<event>
 5   1  0.2192208E+09  0.9118800E+02  0.7818608E-02  0.1180000E+00
       11   -1    0    0    0    0  0.00000000000E+00  0.00000000000E+00  0.10559998763E+01  0.10560000000E+01  0.51109989000E-03 0.  1.
     -623   -1    0    0    0    0  0.00000000000E+00  0.00000000000E+00  0.47855275298E-10  0.17124000000E+03  0.17124000000E+03 0.  1.
       11    1    1    2    0    0 -0.26695615553E-01  0.13787835480E-01  0.83637860962E+00  0.83691827567E+00  0.51109989000E-03 0.  1.
     -623    1    1    2    0    0  0.33910532863E-01 -0.17033283184E-01  0.68663951014E-03  0.17124000421E+03  0.17124000000E+03 0.  1.
       22    1    1    2    0    0 -0.72149219655E-02  0.32454500424E-02  0.21893477213E+00  0.21907766315E+00  0.00000000000E+00 0.  1.
</event>
<event>
 5   1  0.2192208E+09  0.9118800E+02  0.7818608E-02  0.1180000E+00
       11   -1    0    0    0    0  0.00000000000E+00  0.00000000000E+00  0.10559998763E+01  0.10560000000E+01  0.51109989000E-03 0. -1.
     -623   -1    0    0    0    0  0.00000000000E+00  0.00000000000E+00  0.47855275298E-10  0.17124000000E+03  0.17124000000E+03 0.  1.
       11    1    1    2    0    0  0.12118653611E-02 -0.14020143454E-01  0.97641566896E+00  0.97651720561E+00  0.51109989000E-03 0. -1.
     -623    1    1    2    0    0 -0.13094813771E-02  0.15053197640E-01  0.10885339445E-03  0.17124000067E+03  0.17124000000E+03 0.  1.
       22    1    1    2    0    0  0.97614551898E-04 -0.10330373560E-02  0.79474173513E-01  0.79480947090E-01  0.00000000000E+00 0. -1.
</event>
<event>
 5   1  0.2192208E+09  0.9118800E+02  0.7818608E-02  0.1180000E+00
       11   -1    0    0    0    0  0.00000000000E+00  0.00000000000E+00  0.10559998763E+01  0.10560000000E+01  0.51109989000E-03 0.  1.
     -623   -1    0    0    0    0  0.00000000000E+00  0.00000000000E+00  0.47855275298E-10  0.17124000000E+03  0.17124000000E+03 0. -1.
       11    1    1    2    0    0 -0.17793026518E-01 -0.13923337178E-01  0.87811331386E+00  0.87840406665E+00  0.51109989000E-03 0.  1.
     -623    1    1    2    0    0  0.18947333781E-01  0.17665730965E-01  0.33577679821E-03  0.17124000196E+03  0.17124000000E+03 0. -1.
       22    1    1    2    0    0 -0.11543076003E-02 -0.37423941023E-02  0.17755080454E+00  0.17759399239E+00  0.00000000000E+00 0. -1.
</event>
<event>
 5   1  0.2192208E+09  0.9118800E+02  0.7818608E-02  0.1180000E+00
       11   -1    0    0    0    0  0.00000000000E+00  0.00000000000E+00  0.10559998763E+01  0.10560000000E+01  0.51109989000E-03 0. -1.
     -623   -1    0    0    0    0  0.00000000000E+00  0.00000000000E+00  0.47855275298E-10  0.17124000000E+03  0.17124000000E+03 0. -1.
       11    1    1    2    0    0  0.25541074880E-02  0.25823811799E-03  0.67712319924E+00  0.67712825840E+00  0.51109989000E-03 0. -1.
     -623    1    1    2    0    0 -0.54023507040E-02 -0.94016153733E-02  0.12633379326E-03  0.17124000034E+03  0.17124000000E+03 0. -1.
       22    1    1    2    0    0  0.28482432334E-02  0.91433772855E-02  0.37875034673E+00  0.37887140165E+00  0.00000000000E+00 0. -1.
</event>
<event>
 5   1  0.2192208E+09  0.9118800E+02  0.7818608E-02  0.1180000E+00
       11   -1    0    0    0    0  0.00000000000E+00  0.00000000000E+00  0.10559998763E+01  0.10560000000E+01  0.51109989000E-03 0.  1.
     -623   -1    0    0    0    0  0.00000000000E+00  0.00000000000E+00  0.47855275298E-10  0.17124000000E+03  0.17124000000E+03 0. -1.
       11    1    1    2    0    0  0.27274540192E-02  0.11656643805E-01  0.38621728821E+00  0.38640312018E+00  0.51109989000E-03 0.  1.
     -623    1    1    2    0    0 -0.48201975102E-02 -0.29543305177E-01  0.43053972100E-03  0.17124000262E+03  0.17124000000E+03 0. -1.
       22    1    1    2    0    0  0.20927434619E-02  0.17886661193E-01  0.66935204206E+00  0.66959425657E+00  0.00000000000E+00 0.  1.
</event>
<event>
 5   1  0.2192208E+09  0.9118800E+02  0.7818608E-02  0.1180000E+00
       11   -1    0    0    0    0  0.00000000000E+00  0.00000000000E+00  0.10559998763E+01  0.10560000000E+01  0.51109989000E-03 0. -1.
     -623   -1    0    0    0    0  0.00000000000E+00  0.00000000000E+00  0.47855275298E-10  0.17124000000E+03  0.17124000000E+03 0. -1.
       11    1    1    2    0    0 -0.91661052663E-03 -0.20390901145E-02  0.89589970194E+00  0.89590263713E+00  0.51109989000E-03 0. -1.
     -623    1    1    2    0    0 -0.87650925522E-05  0.38999581424E-03  0.13980069520E-04  0.17124000000E+03  0.17124000000E+03 0. -1.
       22    1    1    2    0    0  0.92537561927E-03  0.16490942963E-02  0.16008620490E+00  0.16009737297E+00  0.00000000000E+00 0.  1.
</event>
<event>
 5   1  0.2192208E+09  0.9118800E+02  0.7818608E-02  0.1180000E+00
       11   -1    0    0    0    0  0.00000000000E+00  0.00000000000E+00  0.10559998763E+01  0.10560000000E+01  0.51109989000E-03 0.  1.
     -623   -1    0    0    0    0  0.00000000000E+00  0.00000000000E+00  0.47855275298E-10  0.17124000000E+03  0.17124000000E+03 0. -1.
       11    1    1    2    0    0 -0.18860037596E-02 -0.43642987623E-02  0.77578553623E+00  0.77580027298E+00  0.51109989000E-03 0.  1.
     -623    1    1    2    0    0 -0.10952062933E-03 -0.19400734942E-04  0.56013367379E-04  0.17124000000E+03  0.17124000000E+03 0. -1.
       22    1    1    2    0    0  0.19955243890E-02  0.43836994973E-02  0.28015832750E+00  0.28019972771E+00  0.00000000000E+00 0. -1.
</event>
<event>
 5   1  0.2192208E+09  0.9118800E+02  0.7818608E-02  0.1180000E+00
       11   -1    0    0    0    0  0.00000000000E+00  0.00000000000E+00  0.10559998763E+01  0.10560000000E+01  0.51109989000E-03 0.  1.
     -623   -1    0    0    0    0  0.00000000000E+00  0.00000000000E+00  0.47855275298E-10  0.17124000000E+03  0.17124000000E+03 0. -1.
       11    1    1    2    0    0  0.47868805101E-02 -0.43415153737E-02  0.41657428913E+00  0.41662472630E+00  0.51109989000E-03 0.  1.
     -623    1    1    2    0    0 -0.11407026171E-01  0.12332740449E-01  0.13535517927E-03  0.17124000082E+03  0.17124000000E+03 0. -1.
       22    1    1    2    0    0  0.66201464987E-02 -0.79912259818E-02  0.63929030964E+00  0.63937452720E+00  0.00000000000E+00 0.  1.
</event>
<event>
 5   1  0.2192208E+09  0.9118800E+02  0.7818608E-02  0.1180000E+00
       11   -1    0    0    0    0  0.00000000000E+00  0.00000000000E+00  0.10559998763E+01  0.10560000000E+01  0.51109989000E-03 0.  1.
     -623   -1    0    0    0    0  0.00000000000E+00  0.00000000000E+00  0.47855275298E-10  0.17124000000E+03  0.17124000000E+03 0.  1.
       11    1    1    2    0    0 -0.86823470901E-02 -0.45872637580E-02  0.99178712337E+00  0.99183586618E+00  0.51109989000E-03 0.  1.
     -623    1    1    2    0    0  0.88793980191E-02  0.56156629646E-02  0.57486066831E-04  0.17124000032E+03  0.17124000000E+03 0.  1.
       22    1    1    2    0    0 -0.19705127976E-03 -0.10283994286E-02  0.64155308646E-01  0.64163853235E-01  0.00000000000E+00 0.  1.
</event>
<event>
 5   1  0.2192208E+09  0.9118800E+02  0.7818608E-02  0.1180000E+00
       11   -1    0    0    0    0  0.00000000000E+00  0.00000000000E+00  0.10559998763E+01  0.10560000000E+01  0.51109989000E-03 0. -1.
     -623   -1    0    0    0    0  0.00000000000E+00  0.00000000000E+00  0.47855275298E-10  0.17124000000E+03  0.17124000000E+03 0. -1.
       11    1    1    2    0    0 -0.21306707606E-02  0.23329761088E-02  0.92470549447E+00  0.92471103339E+00  0.51109989000E-03 0. -1.
     -623    1    1    2    0    0  0.99207836008E-04 -0.57495491805E-04  0.40855880719E-04  0.17124000000E+03  0.17124000000E+03 0. -1.
       22    1    1    2    0    0  0.20314629240E-02 -0.22754806167E-02  0.13125353241E+00  0.13128897297E+00  0.00000000000E+00 0. -1.
</event>
<event>
 5   1  0.2192208E+09  0.9118800E+02  0.7818608E-02  0.1180000E+00
       11   -1    0    0    0    0  0.00000000000E+00  0.00000000000E+00  0.10559998763E+01  0.10560000000E+01  0.51109989000E-03 0.  1.
     -623   -1    0    0    0    0  0.00000000000E+00  0.00000000000E+00  0.47855275298E-10  0.17124000000E+03  0.17124000000E+03 0.  1.
       11    1    1    2    0    0 -0.24453486830E-02  0.72214216515E-03  0.15788885860E+00  0.15791027235E+00  0.51109989000E-03 0.  1.
     -623    1    1    2    0    0  0.15752340613E-01 -0.13461238664E-01  0.21149869926E-03  0.17124000125E+03  0.17124000000E+03 0.  1.
       22    1    1    2    0    0 -0.13306991252E-01  0.12739095920E-01  0.89789947364E+00  0.89808842846E+00  0.00000000000E+00 0.  1.
</event>
<event>
 5   1  0.2192208E+09  0.9118800E+02  0.7818608E-02  0.1180000E+00
       11   -1    0    0    0    0  0.00000000000E+00  0.00000000000E+00  0.10559998763E+01  0.10560000000E+01  0.51109989000E-03 0.  1.
     -623   -1    0    0    0    0  0.00000000000E+00  0.00000000000E+00  0.47855275298E-10  0.17124000000E+03  0.17124000000E+03 0. -1.
       11    1    1    2    0    0 -0.33832806903E-02  0.63546787992E-02  0.98699402497E+00  0.98702041270E+00  0.51109989000E-03 0.  1.
     -623    1    1    2    0    0  0.21395635577E-02 -0.55725119383E-02  0.42016708789E-04  0.17124000010E+03  0.17124000000E+03 0. -1.
       22    1    1    2    0    0  0.12437171025E-02 -0.78216678238E-03  0.68963849549E-01  0.68979498126E-01  0.00000000000E+00 0. -1.
</event>
<event>
 5   1  0.2192208E+09  0.9118800E+02  0.7818608E-02  0.1180000E+00
       11   -1    0    0    0    0  0.00000000000E+00  0.00000000000E+00  0.10559998763E+01  0.10560000000E+01  0.51109989000E-03 0.  1.
     -623   -1    0    0    0    0  0.00000000000E+00  0.00000000000E+00  0.47855275298E-10  0.17124000000E+03  0.17124000000E+03 0. -1.
       11    1    1    2    0    0 -0.52381587105E-02  0.29987522036E-02  0.97426240027E+00  0.97428123077E+00  0.51109989000E-03 0.  1.
     -623    1    1    2    0    0  0.49915798625E-02 -0.15999489803E-02  0.31131899801E-04  0.17124000008E+03  0.17124000000E+03 0. -1.
       22    1    1    2    0    0  0.24657879792E-03 -0.13988032072E-02  0.81706354784E-01  0.81718699595E-01  0.00000000000E+00 0. -1.
</event>
<event>
 5   1  0.2192208E+09  0.9118800E+02  0.7818608E-02  0.1180000E+00
       11   -1    0    0    0    0  0.00000000000E+00  0.00000000000E+00  0.10559998763E+01  0.10560000000E+01  0.51109989000E-03 0. -1.
     -623   -1    0    0    0    0  0.00000000000E+00  0.00000000000E+00  0.47855275298E-10  0.17124000000E+03  0.17124000000E+03 0. -1.
       11    1    1    2    0    0  0.32284642617E-03 -0.17401045161E-02  0.22216910054E+00  0.22217673742E+00  0.51109989000E-03 0. -1.
     -623    1    1    2    0    0 -0.24820134796E-02  0.10236296889E-01  0.53919762804E-04  0.17124000032E+03  0.17124000000E+03 0. -1.
       22    1    1    2    0    0  0.21591670846E-02 -0.84961925014E-02  0.83377686931E+00  0.83382295188E+00  0.00000000000E+00 0. -1.
</event>
<event>
 5   1  0.2192208E+09  0.9118800E+02  0.7818608E-02  0.1180000E+00
       11   -1    0    0    0    0  0.00000000000E+00  0.00000000000E+00  0.10559998763E+01  0.10560000000E+01  0.51109989000E-03 0. -1.
     -623   -1    0    0    0    0  0.00000000000E+00  0.00000000000E+00  0.47855275298E-10  0.17124000000E+03  0.17124000000E+03 0. -1.
       11    1    1    2    0    0 -0.15108477936E-01  0.11504373933E-01  0.95675620073E+00  0.95694477667E+00  0.51109989000E-03 0. -1.
     -623    1    1    2    0    0  0.16511120774E-01 -0.12571767754E-01  0.20539319388E-03  0.17124000126E+03  0.17124000000E+03 0. -1.
       22    1    1    2    0    0 -0.14026519838E-02  0.10674007832E-02  0.99038867208E-01  0.99054550602E-01  0.00000000000E+00 0. -1.
</event>
<event>
 5   1  0.2192208E+09  0.9118800E+02  0.7818608E-02  0.1180000E+00
       11   -1    0    0    0    0  0.00000000000E+00  0.00000000000E+00  0.10559998763E+01  0.10560000000E+01  0.51109989000E-03 0. -1.
     -623   -1    0    0    0    0  0.00000000000E+00  0.00000000000E+00  0.47855275298E-10  0.17124000000E+03  0.17124000000E+03 0.  1.
       11    1    1    2    0    0  0.12279796752E-02  0.33883399021E-02  0.25926678020E+00  0.25929233178E+00  0.51109989000E-03 0.  1.
     -623    1    1    2    0    0 -0.67233676223E-02 -0.12884129483E-01  0.10159000743E-03  0.17124000062E+03  0.17124000000E+03 0.  1.
       22    1    1    2    0    0  0.54953893972E-02  0.94957923598E-02  0.79663173389E+00  0.79670727926E+00  0.00000000000E+00 0. -1.
</event>
<event>
 5   1  0.2192208E+09  0.9118800E+02  0.7818608E-02  0.1180000E+00
       11   -1    0    0    0    0  0.00000000000E+00  0.00000000000E+00  0.10559998763E+01  0.10560000000E+01  0.51109989000E-03 0.  1.
     -623   -1    0    0    0    0  0.00000000000E+00  0.00000000000E+00  0.47855275298E-10  0.17124000000E+03  0.17124000000E+03 0.  1.
       11    1    1    2    0    0 -0.12679658792E-01 -0.33882040834E-01  0.10023327231E+01  0.10029855012E+01  0.51109989000E-03 0.  1.
     -623    1    1    2    0    0  0.13267709323E-01  0.35774747075E-01  0.69397045813E-03  0.17124000425E+03  0.17124000000E+03 0.  1.
       22    1    1    2    0    0 -0.58805703202E-03 -0.18927237700E-02  0.52973699836E-01  0.53010763894E-01  0.00000000000E+00 0. -1.
</event>
<event>
 5   1  0.2192208E+09  0.9118800E+02  0.7818608E-02  0.1180000E+00
       11   -1    0    0    0    0  0.00000000000E+00  0.00000000000E+00  0.10559998763E+01  0.10560000000E+01  0.51109989000E-03 0. -1.
     -623   -1    0    0    0    0  0.00000000000E+00  0.00000000000E+00  0.47855275298E-10  0.17124000000E+03  0.17124000000E+03 0. -1.
       11    1    1    2    0    0  0.86309336206E-02  0.41213131067E-02  0.74601207964E+00  0.74607356368E+00  0.51109989000E-03 0. -1.
     -623    1    1    2    0    0 -0.90306668383E-02  0.99994435383E-03  0.10417432396E-03  0.17124000024E+03  0.17124000000E+03 0. -1.
       22    1    1    2    0    0  0.39973322638E-03 -0.51212574615E-02  0.30988362341E+00  0.30992619625E+00  0.00000000000E+00 0. -1.
</event>
<event>
 5   1  0.2192208E+09  0.9118800E+02  0.7818608E-02  0.1180000E+00
       11   -1    0    0    0    0  0.00000000000E+00  0.00000000000E+00  0.10559998763E+01  0.10560000000E+01  0.51109989000E-03 0. -1.
     -623   -1    0    0    0    0  0.00000000000E+00  0.00000000000E+00  0.47855275298E-10  0.17124000000E+03  0.17124000000E+03 0. -1.
       11    1    1    2    0    0  0.26400939981E-02 -0.58344013189E-02  0.50907674288E+00  0.50911727696E+00  0.51109989000E-03 0. -1.
     -623    1    1    2    0    0 -0.44269214267E-02  0.17666113263E-01  0.17230247932E-03  0.17124000097E+03  0.17124000000E+03 0. -1.
       22    1    1    2    0    0  0.17868275687E-02 -0.11831712503E-01  0.54675086441E+00  0.54688178788E+00  0.00000000000E+00 0. -1.
</event>
<event>
 5   1  0.2192208E+09  0.9118800E+02  0.7818608E-02  0.1180000E+00
       11   -1    0    0    0    0  0.00000000000E+00  0.00000000000E+00  0.10559998763E+01  0.10560000000E+01  0.51109989000E-03 0. -1.
     -623   -1    0    0    0    0  0.00000000000E+00  0.00000000000E+00  0.47855275298E-10  0.17124000000E+03  0.17124000000E+03 0.  1.
       11    1    1    2    0    0 -0.28629141974E-02 -0.91498845674E-02  0.49844497583E+00  0.49853743272E+00  0.51109989000E-03 0. -1.
     -623    1    1    2    0    0  0.61716734903E-02  0.17814383757E-01  0.17053111282E-03  0.17124000104E+03  0.17124000000E+03 0.  1.
       22    1    1    2    0    0 -0.33087596884E-02 -0.86645003313E-02  0.55738443708E+00  0.55746159703E+00  0.00000000000E+00 0. -1.
</event>
<event>
 5   1  0.2192208E+09  0.9118800E+02  0.7818608E-02  0.1180000E+00
       11   -1    0    0    0    0  0.00000000000E+00  0.00000000000E+00  0.10559998763E+01  0.10560000000E+01  0.51109989000E-03 0. -1.
     -623   -1    0    0    0    0  0.00000000000E+00  0.00000000000E+00  0.47855275298E-10  0.17124000000E+03  0.17124000000E+03 0. -1.
       11    1    1    2    0    0 -0.56045231744E-02 -0.80798858050E-02  0.74835521404E+00  0.74841999094E+00  0.51109989000E-03 0. -1.
     -623    1    1    2    0    0  0.59055079273E-02  0.11583342203E-01  0.85247709950E-04  0.17124000049E+03  0.17124000000E+03 0. -1.
       22    1    1    2    0    0 -0.30098443305E-03 -0.35034557708E-02  0.30755935742E+00  0.30757945824E+00  0.00000000000E+00 0. -1.
</event>
<event>
 5   1  0.2192208E+09  0.9118800E+02  0.7818608E-02  0.1180000E+00
       11   -1    0    0    0    0  0.00000000000E+00  0.00000000000E+00  0.10559998763E+01  0.10560000000E+01  0.51109989000E-03 0. -1.
     -623   -1    0    0    0    0  0.00000000000E+00  0.00000000000E+00  0.47855275298E-10  0.17124000000E+03  0.17124000000E+03 0. -1.
       11    1    1    2    0    0 -0.64360178915E-03  0.14055681337E-01  0.84133977936E+00  0.84145758180E+00  0.51109989000E-03 0. -1.
     -623    1    1    2    0    0  0.97016573611E-03 -0.16543819798E-01  0.13315785106E-03  0.17124000080E+03  0.17124000000E+03 0. -1.
       22    1    1    2    0    0 -0.32656382468E-03  0.24881363754E-02  0.21452680607E+00  0.21454148315E+00  0.00000000000E+00 0. -1.
</event>
<event>
 5   1  0.2192208E+09  0.9118800E+02  0.7818608E-02  0.1180000E+00
       11   -1    0    0    0    0  0.00000000000E+00  0.00000000000E+00  0.10559998763E+01  0.10560000000E+01  0.51109989000E-03 0. -1.
     -623   -1    0    0    0    0  0.00000000000E+00  0.00000000000E+00  0.47855275298E-10  0.17124000000E+03  0.17124000000E+03 0.  1.
       11    1    1    2    0    0  0.15074602237E-02 -0.39933332769E-02  0.46153117642E+00  0.46155119670E+00  0.51109989000E-03 0. -1.
     -623    1    1    2    0    0 -0.48945445827E-02  0.10631941237E-01  0.67016986871E-04  0.17124000040E+03  0.17124000000E+03 0.  1.
       22    1    1    2    0    0  0.33870840256E-02 -0.66386072358E-02  0.59440161104E+00  0.59444833136E+00  0.00000000000E+00 0. -1.
</event>
<event>
 5   1  0.2192208E+09  0.9118800E+02  0.7818608E-02  0.1180000E+00
       11   -1    0    0    0    0  0.00000000000E+00  0.00000000000E+00  0.10559998763E+01  0.10560000000E+01  0.51109989000E-03 0. -1.
     -623   -1    0    0    0    0  0.00000000000E+00  0.00000000000E+00  0.47855275298E-10  0.17124000000E+03  0.17124000000E+03 0.  1.
       11    1    1    2    0    0 -0.68811296236E-02  0.10702791158E-01  0.10017327296E+01  0.10018136666E+01  0.51109989000E-03 0. -1.
     -623    1    1    2    0    0  0.72332942249E-02 -0.11516487650E-01  0.88607784841E-04  0.17124000054E+03  0.17124000000E+03 0.  1.
       22    1    1    2    0    0 -0.35216671892E-03  0.81369986282E-03  0.54178848068E-01  0.54186102524E-01  0.00000000000E+00 0. -1.
</event>
<event>
 5   1  0.2192208E+09  0.9118800E+02  0.7818608E-02  0.1180000E+00
       11   -1    0    0    0    0  0.00000000000E+00  0.00000000000E+00  0.10559998763E+01  0.10560000000E+01  0.51109989000E-03 0.  1.
     -623   -1    0    0    0    0  0.00000000000E+00  0.00000000000E+00  0.47855275298E-10  0.17124000000E+03  0.17124000000E+03 0. -1.
       11    1    1    2    0    0  0.51806958194E-03 -0.11210903575E-02  0.94572652681E+00  0.94572747130E+00  0.51109989000E-03 0.  1.
     -623    1    1    2    0    0 -0.22007638891E-04 -0.26155170521E-05  0.76622630409E-05  0.17124000000E+03  0.17124000000E+03 0. -1.
       22    1    1    2    0    0 -0.49606194202E-03  0.11237058746E-02  0.11026573677E+00  0.11027257818E+00  0.00000000000E+00 0.  1.
</event>
<event>
 5   1  0.2192208E+09  0.9118800E+02  0.7818608E-02  0.1180000E+00
       11   -1    0    0    0    0  0.00000000000E+00  0.00000000000E+00  0.10559998763E+01  0.10560000000E+01  0.51109989000E-03 0. -1.
     -623   -1    0    0    0    0  0.00000000000E+00  0.00000000000E+00  0.47855275298E-10  0.17124000000E+03  0.17124000000E+03 0. -1.
       11    1    1    2    0    0 -0.10932401145E-02 -0.26174258509E-02  0.73995767746E+00  0.73996329081E+00  0.51109989000E-03 0. -1.
     -623    1    1    2    0    0 -0.96622405303E-03 -0.70732764443E-03  0.29693566671E-04  0.17124000000E+03  0.17124000000E+03 0. -1.
       22    1    1    2    0    0  0.20594641703E-02  0.33247534974E-02  0.31601250832E+00  0.31603670799E+00  0.00000000000E+00 0. -1.
</event>
<event>
 5   1  0.2192208E+09  0.9118800E+02  0.7818608E-02  0.1180000E+00
       11   -1    0    0    0    0  0.00000000000E+00  0.00000000000E+00  0.10559998763E+01  0.10560000000E+01  0.51109989000E-03 0. -1.
     -623   -1    0    0    0    0  0.00000000000E+00  0.00000000000E+00  0.47855275298E-10  0.17124000000E+03  0.17124000000E+03 0. -1.
       11    1    1    2    0    0 -0.69326059923E-02  0.10026992205E-01  0.87565142790E+00  0.87573642497E+00  0.51109989000E-03 0. -1.
     -623    1    1    2    0    0  0.76096771161E-02 -0.12471584318E-01  0.10334499589E-03  0.17124000062E+03  0.17124000000E+03 0. -1.
       22    1    1    2    0    0 -0.67707212187E-03  0.24445937488E-02  0.18024524196E+00  0.18026309027E+00  0.00000000000E+00 0. -1.
</event>
<event>
 5   1  0.2192208E+09  0.9118800E+02  0.7818608E-02  0.1180000E+00
       11   -1    0    0    0    0  0.00000000000E+00  0.00000000000E+00  0.10559998763E+01  0.10560000000E+01  0.51109989000E-03 0.  1.
     -623   -1    0    0    0    0  0.00000000000E+00  0.00000000000E+00  0.47855275298E-10  0.17124000000E+03  0.17124000000E+03 0. -1.
       11    1    1    2    0    0 -0.20907418541E-02  0.15148675326E-01  0.10053601167E+01  0.10054765432E+01  0.51109989000E-03 0.  1.
     -623    1    1    2    0    0  0.22990069616E-02 -0.15812283258E-01  0.12183612680E-03  0.17124000075E+03  0.17124000000E+03 0. -1.
       22    1    1    2    0    0 -0.20826389147E-03  0.66359956821E-03  0.50517365054E-01  0.50522152668E-01  0.00000000000E+00 0.  1.
</event>
<event>
 5   1  0.2192208E+09  0.9118800E+02  0.7818608E-02  0.1180000E+00
       11   -1    0    0    0    0  0.00000000000E+00  0.00000000000E+00  0.10559998763E+01  0.10560000000E+01  0.51109989000E-03 0.  1.
     -623   -1    0    0    0    0  0.00000000000E+00  0.00000000000E+00  0.47855275298E-10  0.17124000000E+03  0.17124000000E+03 0.  1.
       11    1    1    2    0    0 -0.53796116437E-02 -0.16218539298E-01  0.99611097096E+00  0.99625765188E+00  0.51109989000E-03 0.  1.
     -623    1    1    2    0    0  0.57817419496E-02  0.17460936959E-01  0.16181892286E-03  0.17124000099E+03  0.17124000000E+03 0.  1.
       22    1    1    2    0    0 -0.40213124239E-03 -0.12424004893E-02  0.59727257492E-01  0.59741531250E-01  0.00000000000E+00 0.  1.
</event>
<event>
 5   1  0.2192208E+09  0.9118800E+02  0.7818608E-02  0.1180000E+00
       11   -1    0    0    0    0  0.00000000000E+00  0.00000000000E+00  0.10559998763E+01  0.10560000000E+01  0.51109989000E-03 0.  1.
     -623   -1    0    0    0    0  0.00000000000E+00  0.00000000000E+00  0.47855275298E-10  0.17124000000E+03  0.17124000000E+03 0.  1.
       11    1    1    2    0    0 -0.78373826692E-02 -0.99860126155E-02  0.63168532631E+00  0.63181307182E+00  0.51109989000E-03 0.  1.
     -623    1    1    2    0    0  0.11887219722E-01  0.15467707896E-01  0.18348881600E-03  0.17124000111E+03  0.17124000000E+03 0.  1.
       22    1    1    2    0    0 -0.40498381418E-02 -0.54816966977E-02  0.42413115798E+00  0.42418591367E+00  0.00000000000E+00 0. -1.
</event>
<event>
 5   1  0.2192208E+09  0.9118800E+02  0.7818608E-02  0.1180000E+00
       11   -1    0    0    0    0  0.00000000000E+00  0.00000000000E+00  0.10559998763E+01  0.10560000000E+01  0.51109989000E-03 0. -1.
     -623   -1    0    0    0    0  0.00000000000E+00  0.00000000000E+00  0.47855275298E-10  0.17124000000E+03  0.17124000000E+03 0.  1.
       11    1    1    2    0    0 -0.11621686868E-01  0.68129475681E-02  0.58171161725E+00  0.58186780863E+00  0.51109989000E-03 0. -1.
     -623    1    1    2    0    0  0.19629464443E-01 -0.14759724115E-01  0.29206836780E-03  0.17124000176E+03  0.17124000000E+03 0.  1.
       22    1    1    2    0    0 -0.80077777234E-02  0.79467766579E-02  0.47399619872E+00  0.47413043792E+00  0.00000000000E+00 0. -1.
</event>
<event>
 5   1  0.2192208E+09  0.9118800E+02  0.7818608E-02  0.1180000E+00
       11   -1    0    0    0    0  0.00000000000E+00  0.00000000000E+00  0.10559998763E+01  0.10560000000E+01  0.51109989000E-03 0. -1.
     -623   -1    0    0    0    0  0.00000000000E+00  0.00000000000E+00  0.47855275298E-10  0.17124000000E+03  0.17124000000E+03 0.  1.
       11    1    1    2    0    0  0.82114462943E-03 -0.21654979672E-02  0.98051199780E+00  0.98051486613E+00  0.51109989000E-03 0. -1.
     -623    1    1    2    0    0 -0.68781914646E-04  0.11543013708E-03  0.34339223054E-04  0.17124000000E+03  0.17124000000E+03 0.  1.
       22    1    1    2    0    0 -0.75236271417E-03  0.20500678291E-02  0.75453548819E-01  0.75485143287E-01  0.00000000000E+00 0. -1.
</event>
<event>
 5   1  0.2192208E+09  0.9118800E+02  0.7818608E-02  0.1180000E+00
       11   -1    0    0    0    0  0.00000000000E+00  0.00000000000E+00  0.10559998763E+01  0.10560000000E+01  0.51109989000E-03 0.  1.
     -623   -1    0    0    0    0  0.00000000000E+00  0.00000000000E+00  0.47855275298E-10  0.17124000000E+03  0.17124000000E+03 0. -1.
       11    1    1    2    0    0  0.10587013890E-02 -0.24714475565E-02  0.82828013983E+00  0.82828466131E+00  0.51109989000E-03 0.  1.
     -623    1    1    2    0    0 -0.94166182314E-04  0.10292759682E-03  0.18758858376E-04  0.17124000000E+03  0.17124000000E+03 0. -1.
       22    1    1    2    0    0 -0.96453520505E-03  0.23685199579E-02  0.22770099596E+00  0.22771535692E+00  0.00000000000E+00 0.  1.
</event>
<event>
 5   1  0.2192208E+09  0.9118800E+02  0.7818608E-02  0.1180000E+00
       11   -1    0    0    0    0  0.00000000000E+00  0.00000000000E+00  0.10559998763E+01  0.10560000000E+01  0.51109989000E-03 0. -1.
     -623   -1    0    0    0    0  0.00000000000E+00  0.00000000000E+00  0.47855275298E-10  0.17124000000E+03  0.17124000000E+03 0. -1.
       11    1    1    2    0    0  0.77340537794E-02  0.10310527327E-02  0.49865550527E+00  0.49871680623E+00  0.51109989000E-03 0. -1.
     -623    1    1    2    0    0  0.19693259099E-02  0.98296058309E-02  0.25181028758E-03  0.17124000029E+03  0.17124000000E+03 0. -1.
       22    1    1    2    0    0 -0.97033796900E-02 -0.10860658567E-01  0.55709256119E+00  0.55728290053E+00  0.00000000000E+00 0. -1.
</event>
<event>
 5   1  0.2192208E+09  0.9118800E+02  0.7818608E-02  0.1180000E+00
       11   -1    0    0    0    0  0.00000000000E+00  0.00000000000E+00  0.10559998763E+01  0.10560000000E+01  0.51109989000E-03 0.  1.
     -623   -1    0    0    0    0  0.00000000000E+00  0.00000000000E+00  0.47855275298E-10  0.17124000000E+03  0.17124000000E+03 0. -1.
       11    1    1    2    0    0 -0.51719930499E-02  0.12216940839E-01  0.40042643430E+00  0.40064646968E+00  0.51109989000E-03 0.  1.
     -623    1    1    2    0    0  0.21278781396E-01 -0.23315127556E-01  0.51479044206E-03  0.17124000291E+03  0.17124000000E+03 0. -1.
       22    1    1    2    0    0 -0.16106788334E-01  0.11098186705E-01  0.65505865104E+00  0.65535061966E+00  0.00000000000E+00 0.  1.
</event>
<event>
 5   1  0.2192208E+09  0.9118800E+02  0.7818608E-02  0.1180000E+00
       11   -1    0    0    0    0  0.00000000000E+00  0.00000000000E+00  0.10559998763E+01  0.10560000000E+01  0.51109989000E-03 0.  1.
     -623   -1    0    0    0    0  0.00000000000E+00  0.00000000000E+00  0.47855275298E-10  0.17124000000E+03  0.17124000000E+03 0.  1.
       11    1    1    2    0    0  0.50532853465E-02 -0.14564940444E-01  0.90166720392E+00  0.90179913563E+00  0.51109989000E-03 0.  1.
     -623    1    1    2    0    0 -0.59852094401E-02  0.16986729792E-01  0.15459063817E-03  0.17124000095E+03  0.17124000000E+03 0.  1.
       22    1    1    2    0    0  0.93192664837E-03 -0.24217965986E-02  0.15417853249E+00  0.15420036792E+00  0.00000000000E+00 0.  1.
</event>
<event>
 5   1  0.2192208E+09  0.9118800E+02  0.7818608E-02  0.1180000E+00
       11   -1    0    0    0    0  0.00000000000E+00  0.00000000000E+00  0.10559998763E+01  0.10560000000E+01  0.51109989000E-03 0. -1.
     -623   -1    0    0    0    0  0.00000000000E+00  0.00000000000E+00  0.47855275298E-10  0.17124000000E+03  0.17124000000E+03 0.  1.
       11    1    1    2    0    0 -0.65843098365E-03 -0.14132038969E-02  0.10011922663E+01  0.10011936106E+01  0.51109989000E-03 0. -1.
     -623    1    1    2    0    0 -0.33368518770E-03 -0.61510010352E-03  0.47753917048E-04  0.17124000000E+03  0.17124000000E+03 0.  1.
       22    1    1    2    0    0  0.99211617204E-03  0.20283040017E-02  0.54759858327E-01  0.54806390099E-01  0.00000000000E+00 0. -1.
</event>
<event>
 5   1  0.2192208E+09  0.9118800E+02  0.7818608E-02  0.1180000E+00
       11   -1    0    0    0    0  0.00000000000E+00  0.00000000000E+00  0.10559998763E+01  0.10560000000E+01  0.51109989000E-03 0. -1.
     -623   -1    0    0    0    0  0.00000000000E+00  0.00000000000E+00  0.47855275298E-10  0.17124000000E+03  0.17124000000E+03 0. -1.
       11    1    1    2    0    0 -0.19902807215E-02 -0.17339782140E-02  0.99945398889E+00  0.99945760542E+00  0.51109989000E-03 0. -1.
     -623    1    1    2    0    0  0.20826348788E-02  0.10403242715E-02  0.78391226206E-05  0.17124000002E+03  0.17124000000E+03 0. -1.
       22    1    1    2    0    0 -0.92354329359E-04  0.69365385660E-03  0.56538135615E-01  0.56542466022E-01  0.00000000000E+00 0. -1.
</event>
<event>
 5   1  0.2192208E+09  0.9118800E+02  0.7818608E-02  0.1180000E+00
       11   -1    0    0    0    0  0.00000000000E+00  0.00000000000E+00  0.10559998763E+01  0.10560000000E+01  0.51109989000E-03 0.  1.
     -623   -1    0    0    0    0  0.00000000000E+00  0.00000000000E+00  0.47855275298E-10  0.17124000000E+03  0.17124000000E+03 0. -1.
       11    1    1    2    0    0  0.33227982825E-03  0.61532646080E-03  0.98602919849E+00  0.98602957894E+00  0.51109989000E-03 0.  1.
     -623    1    1    2    0    0  0.32385986393E-04  0.94997923709E-04  0.48127778138E-05  0.17124000000E+03  0.17124000000E+03 0. -1.
       22    1    1    2    0    0 -0.36466581629E-03 -0.71032438934E-03  0.69965918826E-01  0.69970474767E-01  0.00000000000E+00 0.  1.
</event>
<event>
 5   1  0.2192208E+09  0.9118800E+02  0.7818608E-02  0.1180000E+00
       11   -1    0    0    0    0  0.00000000000E+00  0.00000000000E+00  0.10559998763E+01  0.10560000000E+01  0.51109989000E-03 0.  1.
     -623   -1    0    0    0    0  0.00000000000E+00  0.00000000000E+00  0.47855275298E-10  0.17124000000E+03  0.17124000000E+03 0.  1.
       11    1    1    2    0    0 -0.15102824590E-01  0.97014012640E-03  0.95326943940E+00  0.95338970091E+00  0.51109989000E-03 0.  1.
     -623    1    1    2    0    0  0.14663301424E-01 -0.71556740946E-02  0.30846719835E-03  0.17124000078E+03  0.17124000000E+03 0.  1.
       22    1    1    2    0    0  0.43952315563E-03  0.61855339731E-02  0.10242197048E+00  0.10260952221E+00  0.00000000000E+00 0.  1.
</event>
<event>
 5   1  0.2192208E+09  0.9118800E+02  0.7818608E-02  0.1180000E+00
       11   -1    0    0    0    0  0.00000000000E+00  0.00000000000E+00  0.10559998763E+01  0.10560000000E+01  0.51109989000E-03 0.  1.
     -623   -1    0    0    0    0  0.00000000000E+00  0.00000000000E+00  0.47855275298E-10  0.17124000000E+03  0.17124000000E+03 0. -1.
       11    1    1    2    0    0 -0.11428954064E-01 -0.15450969536E-01  0.50050955941E-01  0.53616348853E-01  0.51109989000E-03 0.  1.
     -623    1    1    2    0    0  0.64426442084E-02 -0.22942805030E-01  0.43149524954E-02  0.17124000171E+03  0.17124000000E+03 0. -1.
       22    1    1    2    0    0  0.49863098558E-02  0.38393774567E-01  0.10016339680E+01  0.10023819387E+01  0.00000000000E+00 0.  1.
</event>
<event>
 5   1  0.2192208E+09  0.9118800E+02  0.7818608E-02  0.1180000E+00
       11   -1    0    0    0    0  0.00000000000E+00  0.00000000000E+00  0.10559998763E+01  0.10560000000E+01  0.51109989000E-03 0.  1.
     -623   -1    0    0    0    0  0.00000000000E+00  0.00000000000E+00  0.47855275298E-10  0.17124000000E+03  0.17124000000E+03 0.  1.
       11    1    1    2    0    0 -0.38180392420E-02  0.25501589508E-02  0.79703285079E+00  0.79704623906E+00  0.51109989000E-03 0.  1.
     -623    1    1    2    0    0 -0.70491443894E-03 -0.58732927135E-02  0.74196291223E-04  0.17124000010E+03  0.17124000000E+03 0.  1.
       22    1    1    2    0    0  0.45229536824E-02  0.33231337752E-02  0.25889283152E+00  0.25895366099E+00  0.00000000000E+00 0. -1.
</event>
<event>
 5   1  0.2192208E+09  0.9118800E+02  0.7818608E-02  0.1180000E+00
       11   -1    0    0    0    0  0.00000000000E+00  0.00000000000E+00  0.10559998763E+01  0.10560000000E+01  0.51109989000E-03 0. -1.
     -623   -1    0    0    0    0  0.00000000000E+00  0.00000000000E+00  0.47855275298E-10  0.17124000000E+03  0.17124000000E+03 0.  1.
       11    1    1    2    0    0 -0.39233734760E-03  0.34912611477E-02  0.97225966362E+00  0.97226614544E+00  0.51109989000E-03 0. -1.
     -623    1    1    2    0    0 -0.18058856217E-02 -0.11882321981E-02  0.66919591386E-04  0.17124000001E+03  0.17124000000E+03 0.  1.
       22    1    1    2    0    0  0.21982229739E-02 -0.23030289465E-02  0.83673295839E-01  0.83733843594E-01  0.00000000000E+00 0.  1.
</event>
<event>
 5   1  0.2192208E+09  0.9118800E+02  0.7818608E-02  0.1180000E+00
       11   -1    0    0    0    0  0.00000000000E+00  0.00000000000E+00  0.10559998763E+01  0.10560000000E+01  0.51109989000E-03 0.  1.
     -623   -1    0    0    0    0  0.00000000000E+00  0.00000000000E+00  0.47855275298E-10  0.17124000000E+03  0.17124000000E+03 0. -1.
       11    1    1    2    0    0  0.13121323742E-02  0.25003255523E-02  0.93312924921E+00  0.93313366152E+00  0.51109989000E-03 0.  1.
     -623    1    1    2    0    0  0.25101318853E-03 -0.24542626104E-03  0.34927760686E-04  0.17124000000E+03  0.17124000000E+03 0. -1.
       22    1    1    2    0    0 -0.15631455609E-02 -0.22548992931E-02  0.12283569182E+00  0.12286633054E+00  0.00000000000E+00 0.  1.
</event>
<event>
 5   1  0.2192208E+09  0.9118800E+02  0.7818608E-02  0.1180000E+00
       11   -1    0    0    0    0  0.00000000000E+00  0.00000000000E+00  0.10559998763E+01  0.10560000000E+01  0.51109989000E-03 0. -1.
     -623   -1    0    0    0    0  0.00000000000E+00  0.00000000000E+00  0.47855275298E-10  0.17124000000E+03  0.17124000000E+03 0. -1.
       11    1    1    2    0    0  0.39481894625E-01 -0.10528190585E-01  0.93748869130E+00  0.93837890553E+00  0.51109989000E-03 0. -1.
     -623    1    1    2    0    0 -0.48298887090E-01  0.13723347960E-01  0.12719394032E-02  0.17124000737E+03  0.17124000000E+03 0. -1.
       22    1    1    2    0    0  0.88169925110E-02 -0.31951573879E-02  0.11723924667E+00  0.11761372941E+00  0.00000000000E+00 0. -1.
</event>
<event>
 5   1  0.2192208E+09  0.9118800E+02  0.7818608E-02  0.1180000E+00
       11   -1    0    0    0    0  0.00000000000E+00  0.00000000000E+00  0.10559998763E+01  0.10560000000E+01  0.51109989000E-03 0. -1.
     -623   -1    0    0    0    0  0.00000000000E+00  0.00000000000E+00  0.47855275298E-10  0.17124000000E+03  0.17124000000E+03 0. -1.
       11    1    1    2    0    0 -0.32426073642E-02 -0.93909102993E-02  0.54033559176E-01  0.54941700365E-01  0.51109989000E-03 0. -1.
     -623    1    1    2    0    0 -0.40056988390E-02 -0.10820659212E-02  0.98909880147E-03  0.17124000005E+03  0.17124000000E+03 0. -1.
       22    1    1    2    0    0  0.72483062035E-02  0.10472976221E-01  0.10009772185E+01  0.10010582466E+01  0.00000000000E+00 0. -1.
</event>
<event>
 5   1  0.2192208E+09  0.9118800E+02  0.7818608E-02  0.1180000E+00
       11   -1    0    0    0    0  0.00000000000E+00  0.00000000000E+00  0.10559998763E+01  0.10560000000E+01  0.51109989000E-03 0. -1.
     -623   -1    0    0    0    0  0.00000000000E+00  0.00000000000E+00  0.47855275298E-10  0.17124000000E+03  0.17124000000E+03 0.  1.
       11    1    1    2    0    0 -0.41011861026E-01  0.20487393444E-01  0.98945047705E+00  0.99051209674E+00  0.51109989000E-03 0. -1.
     -623    1    1    2    0    0  0.43815103072E-01 -0.21765030972E-01  0.11409965341E-02  0.17124000699E+03  0.17124000000E+03 0.  1.
       22    1    1    2    0    0 -0.28033023959E-02  0.12776675064E-02  0.65409855723E-01  0.65482365292E-01  0.00000000000E+00 0.  1.
</event>
<event>
 5   1  0.2192208E+09  0.9118800E+02  0.7818608E-02  0.1180000E+00
       11   -1    0    0    0    0  0.00000000000E+00  0.00000000000E+00  0.10559998763E+01  0.10560000000E+01  0.51109989000E-03 0. -1.
     -623   -1    0    0    0    0  0.00000000000E+00  0.00000000000E+00  0.47855275298E-10  0.17124000000E+03  0.17124000000E+03 0. -1.
       11    1    1    2    0    0  0.60427754109E-02 -0.63384540101E-02  0.56496876960E+00  0.56503686869E+00  0.51109989000E-03 0. -1.
     -623    1    1    2    0    0 -0.99501647932E-02  0.11395427556E-01  0.11023795908E-03  0.17124000067E+03  0.17124000000E+03 0. -1.
       22    1    1    2    0    0  0.39073916055E-02 -0.50569760915E-02  0.49092110472E+00  0.49096269897E+00  0.00000000000E+00 0. -1.
</event>
<event>
 5   1  0.2192208E+09  0.9118800E+02  0.7818608E-02  0.1180000E+00
       11   -1    0    0    0    0  0.00000000000E+00  0.00000000000E+00  0.10559998763E+01  0.10560000000E+01  0.51109989000E-03 0.  1.
     -623   -1    0    0    0    0  0.00000000000E+00  0.00000000000E+00  0.47855275298E-10  0.17124000000E+03  0.17124000000E+03 0. -1.
       11    1    1    2    0    0  0.78071824469E-03 -0.13120114484E-02  0.95648864914E+00  0.95649000416E+00  0.51109989000E-03 0.  1.
     -623    1    1    2    0    0  0.22398976219E-04  0.27934202634E-04  0.12757786278E-04  0.17124000000E+03  0.17124000000E+03 0. -1.
       22    1    1    2    0    0 -0.80311722094E-03  0.12840772457E-02  0.99498470877E-01  0.99509997279E-01  0.00000000000E+00 0. -1.
</event>
<event>
 5   1  0.2192208E+09  0.9118800E+02  0.7818608E-02  0.1180000E+00
       11   -1    0    0    0    0  0.00000000000E+00  0.00000000000E+00  0.10559998763E+01  0.10560000000E+01  0.51109989000E-03 0. -1.
     -623   -1    0    0    0    0  0.00000000000E+00  0.00000000000E+00  0.47855275298E-10  0.17124000000E+03  0.17124000000E+03 0.  1.
       11    1    1    2    0    0  0.37386764227E-02  0.54977084922E-02  0.91162001246E+00  0.91164439933E+00  0.51109989000E-03 0. -1.
     -623    1    1    2    0    0 -0.99019744964E-03 -0.31920178599E-03  0.14336558760E-03  0.17124000000E+03  0.17124000000E+03 0.  1.
       22    1    1    2    0    0 -0.27484789684E-02 -0.51785067047E-02  0.14423650327E+00  0.14435560239E+00  0.00000000000E+00 0.  1.
</event>
<event>
 5   1  0.2192208E+09  0.9118800E+02  0.7818608E-02  0.1180000E+00
       11   -1    0    0    0    0  0.00000000000E+00  0.00000000000E+00  0.10559998763E+01  0.10560000000E+01  0.51109989000E-03 0. -1.
     -623   -1    0    0    0    0  0.00000000000E+00  0.00000000000E+00  0.47855275298E-10  0.17124000000E+03  0.17124000000E+03 0. -1.
       11    1    1    2    0    0  0.30200825543E-02  0.11568749396E-01  0.92139292554E+00  0.92147064051E+00  0.51109989000E-03 0. -1.
     -623    1    1    2    0    0 -0.36296558184E-02 -0.12918345754E-01  0.86267980017E-04  0.17124000053E+03  0.17124000000E+03 0. -1.
       22    1    1    2    0    0  0.60957287285E-03  0.13495949656E-02  0.13452056903E+00  0.13452871990E+00  0.00000000000E+00 0. -1.
</event>
<event>
 5   1  0.2192208E+09  0.9118800E+02  0.7818608E-02  0.1180000E+00
       11   -1    0    0    0    0  0.00000000000E+00  0.00000000000E+00  0.10559998763E+01  0.10560000000E+01  0.51109989000E-03 0.  1.
     -623   -1    0    0    0    0  0.00000000000E+00  0.00000000000E+00  0.47855275298E-10  0.17124000000E+03  0.17124000000E+03 0. -1.
       11    1    1    2    0    0 -0.43129389502E-02 -0.83476502096E-02  0.75638935084E+00  0.75644788055E+00  0.51109989000E-03 0.  1.
     -623    1    1    2    0    0  0.90008766175E-05 -0.76771117650E-03  0.22806536982E-03  0.17124000000E+03  0.17124000000E+03 0. -1.
       22    1    1    2    0    0  0.43039380736E-02  0.91153613873E-02  0.29938246181E+00  0.29955211923E+00  0.00000000000E+00 0.  1.
</event>
<event>
 5   1  0.2192208E+09  0.9118800E+02  0.7818608E-02  0.1180000E+00
       11   -1    0    0    0    0  0.00000000000E+00  0.00000000000E+00  0.10559998763E+01  0.10560000000E+01  0.51109989000E-03 0. -1.
     -623   -1    0    0    0    0  0.00000000000E+00  0.00000000000E+00  0.47855275298E-10  0.17124000000E+03  0.17124000000E+03 0. -1.
       11    1    1    2    0    0 -0.13331454094E-02  0.18923352191E-02  0.99302491351E+00  0.99302774296E+00  0.51109989000E-03 0. -1.
     -623    1    1    2    0    0  0.47925117239E-04  0.26182180353E-03  0.52685825251E-04  0.17124000000E+03  0.17124000000E+03 0. -1.
       22    1    1    2    0    0  0.12852202921E-02 -0.21541570230E-02  0.62922278345E-01  0.62972258144E-01  0.00000000000E+00 0. -1.
</event>
<event>
 5   1  0.2192208E+09  0.9118800E+02  0.7818608E-02  0.1180000E+00
       11   -1    0    0    0    0  0.00000000000E+00  0.00000000000E+00  0.10559998763E+01  0.10560000000E+01  0.51109989000E-03 0.  1.
     -623   -1    0    0    0    0  0.00000000000E+00  0.00000000000E+00  0.47855275298E-10  0.17124000000E+03  0.17124000000E+03 0. -1.
       11    1    1    2    0    0  0.50893989035E-03  0.18176577462E-01  0.77059262261E+00  0.77080730292E+00  0.51109989000E-03 0.  1.
     -623    1    1    2    0    0 -0.85097557017E-03 -0.25080715880E-01  0.30018376333E-03  0.17124000184E+03  0.17124000000E+03 0. -1.
       22    1    1    2    0    0  0.34203629676E-03  0.69041566006E-02  0.28510783533E+00  0.28519162354E+00  0.00000000000E+00 0. -1.
</event>
<event>
 5   1  0.2192208E+09  0.9118800E+02  0.7818608E-02  0.1180000E+00
       11   -1    0    0    0    0  0.00000000000E+00  0.00000000000E+00  0.10559998763E+01  0.10560000000E+01  0.51109989000E-03 0.  1.
     -623   -1    0    0    0    0  0.00000000000E+00  0.00000000000E+00  0.47855275298E-10  0.17124000000E+03  0.17124000000E+03 0.  1.
       11    1    1    2    0    0 -0.48359568958E-03 -0.10423564892E-01  0.61883754800E+00  0.61892572786E+00  0.51109989000E-03 0.  1.
     -623    1    1    2    0    0  0.14759564424E-02  0.17223759866E-01  0.14295907711E-03  0.17124000087E+03  0.17124000000E+03 0.  1.
       22    1    1    2    0    0 -0.99236069824E-03 -0.68001943377E-02  0.43701933027E+00  0.43707336049E+00  0.00000000000E+00 0.  1.
</event>
<event>
 5   1  0.2192208E+09  0.9118800E+02  0.7818608E-02  0.1180000E+00
       11   -1    0    0    0    0  0.00000000000E+00  0.00000000000E+00  0.10559998763E+01  0.10560000000E+01  0.51109989000E-03 0. -1.
     -623   -1    0    0    0    0  0.00000000000E+00  0.00000000000E+00  0.47855275298E-10  0.17124000000E+03  0.17124000000E+03 0. -1.
       11    1    1    2    0    0  0.99300248807E-03 -0.25522205369E-02  0.84689612444E+00  0.84690070651E+00  0.51109989000E-03 0. -1.
     -623    1    1    2    0    0 -0.22038028100E-03 -0.38908965170E-03  0.26574691146E-04  0.17124000000E+03  0.17124000000E+03 0. -1.
       22    1    1    2    0    0 -0.77262220811E-03  0.29413101868E-02  0.20907717225E+00  0.20909928792E+00  0.00000000000E+00 0. -1.
</event>
<event>
 5   1  0.2192208E+09  0.9118800E+02  0.7818608E-02  0.1180000E+00
       11   -1    0    0    0    0  0.00000000000E+00  0.00000000000E+00  0.10559998763E+01  0.10560000000E+01  0.51109989000E-03 0.  1.
     -623   -1    0    0    0    0  0.00000000000E+00  0.00000000000E+00  0.47855275298E-10  0.17124000000E+03  0.17124000000E+03 0. -1.
       11    1    1    2    0    0  0.48839941760E-01  0.12331639434E-01  0.89684069164E+00  0.89825436077E+00  0.51109989000E-03 0.  1.
     -623    1    1    2    0    0 -0.56389325667E-01 -0.15766053042E-01  0.16417642294E-02  0.17124001002E+03  0.17124000000E+03 0. -1.
       22    1    1    2    0    0  0.75493837018E-02  0.34344135507E-02  0.15751741666E+00  0.15773561722E+00  0.00000000000E+00 0.  1.
</event>
<event>
 5   1  0.2192208E+09  0.9118800E+02  0.7818608E-02  0.1180000E+00
       11   -1    0    0    0    0  0.00000000000E+00  0.00000000000E+00  0.10559998763E+01  0.10560000000E+01  0.51109989000E-03 0.  1.
     -623   -1    0    0    0    0  0.00000000000E+00  0.00000000000E+00  0.47855275298E-10  0.17124000000E+03  0.17124000000E+03 0.  1.
       11    1    1    2    0    0  0.99943952870E-03 -0.48639888158E-02  0.35209580432E+00  0.35213118849E+00  0.51109989000E-03 0.  1.
     -623    1    1    2    0    0 -0.29626598897E-03  0.12308667734E-01  0.75426001979E-04  0.17124000044E+03  0.17124000000E+03 0.  1.
       22    1    1    2    0    0 -0.70317356117E-03 -0.74446780276E-02  0.70382856967E+00  0.70386829249E+00  0.00000000000E+00 0.  1.
</event>
<event>
 5   1  0.2192208E+09  0.9118800E+02  0.7818608E-02  0.1180000E+00
       11   -1    0    0    0    0  0.00000000000E+00  0.00000000000E+00  0.10559998763E+01  0.10560000000E+01  0.51109989000E-03 0. -1.
     -623   -1    0    0    0    0  0.00000000000E+00  0.00000000000E+00  0.47855275298E-10  0.17124000000E+03  0.17124000000E+03 0.  1.
       11    1    1    2    0    0  0.85949799075E-02 -0.10763576012E-01  0.45248741929E+00  0.45269730957E+00  0.51109989000E-03 0. -1.
     -623    1    1    2    0    0 -0.21310435745E-01  0.36040756537E-01  0.87878841254E-03  0.17124000512E+03  0.17124000000E+03 0.  1.
       22    1    1    2    0    0  0.12715455723E-01 -0.25277180331E-01  0.60263366300E+00  0.60329756376E+00  0.00000000000E+00 0. -1.
</event>
<event>
 5   1  0.2192208E+09  0.9118800E+02  0.7818608E-02  0.1180000E+00
       11   -1    0    0    0    0  0.00000000000E+00  0.00000000000E+00  0.10559998763E+01  0.10560000000E+01  0.51109989000E-03 0. -1.
     -623   -1    0    0    0    0  0.00000000000E+00  0.00000000000E+00  0.47855275298E-10  0.17124000000E+03  0.17124000000E+03 0.  1.
       11    1    1    2    0    0  0.69115358206E-02 -0.96824582590E-02  0.97417313181E+00  0.97424589878E+00  0.51109989000E-03 0. -1.
     -623    1    1    2    0    0 -0.77495713899E-02  0.10689758769E-01  0.83653852855E-04  0.17124000051E+03  0.17124000000E+03 0.  1.
       22    1    1    2    0    0  0.83803381251E-03 -0.10072980871E-02  0.81742851333E-01  0.81753352801E-01  0.00000000000E+00 0.  1.
</event>
<event>
 5   1  0.2192208E+09  0.9118800E+02  0.7818608E-02  0.1180000E+00
       11   -1    0    0    0    0  0.00000000000E+00  0.00000000000E+00  0.10559998763E+01  0.10560000000E+01  0.51109989000E-03 0.  1.
     -623   -1    0    0    0    0  0.00000000000E+00  0.00000000000E+00  0.47855275298E-10  0.17124000000E+03  0.17124000000E+03 0.  1.
       11    1    1    2    0    0 -0.60045765001E-02  0.29923021109E-02  0.36884020362E+00  0.36890156660E+00  0.51109989000E-03 0.  1.
     -623    1    1    2    0    0  0.15879432994E-01 -0.10252594707E-01  0.17160961983E-03  0.17124000104E+03  0.17124000000E+03 0.  1.
       22    1    1    2    0    0 -0.98748588419E-02  0.72602941127E-02  0.68698821928E+00  0.68709754630E+00  0.00000000000E+00 0. -1.
</event>
<event>
 5   1  0.2192208E+09  0.9118800E+02  0.7818608E-02  0.1180000E+00
       11   -1    0    0    0    0  0.00000000000E+00  0.00000000000E+00  0.10559998763E+01  0.10560000000E+01  0.51109989000E-03 0.  1.
     -623   -1    0    0    0    0  0.00000000000E+00  0.00000000000E+00  0.47855275298E-10  0.17124000000E+03  0.17124000000E+03 0. -1.
       11    1    1    2    0    0 -0.62467736324E-03  0.24120797606E-02  0.97198481168E+00  0.97198813970E+00  0.51109989000E-03 0.  1.
     -623    1    1    2    0    0  0.46486780764E-03 -0.12624765289E-02  0.11227529832E-04  0.17124000001E+03  0.17124000000E+03 0. -1.
       22    1    1    2    0    0  0.15980956592E-03 -0.11496032598E-02  0.84003813697E-01  0.84011831562E-01  0.00000000000E+00 0.  1.
</event>
<event>
 5   1  0.2192208E+09  0.9118800E+02  0.7818608E-02  0.1180000E+00
       11   -1    0    0    0    0  0.00000000000E+00  0.00000000000E+00  0.10559998763E+01  0.10560000000E+01  0.51109989000E-03 0. -1.
     -623   -1    0    0    0    0  0.00000000000E+00  0.00000000000E+00  0.47855275298E-10  0.17124000000E+03  0.17124000000E+03 0. -1.
       11    1    1    2    0    0  0.11056604624E-02  0.94794109102E-03  0.94825303676E+00  0.94825429291E+00  0.51109989000E-03 0. -1.
     -623    1    1    2    0    0  0.62008041430E-03  0.10994037731E-02  0.34414179480E-04  0.17124000000E+03  0.17124000000E+03 0. -1.
       22    1    1    2    0    0 -0.17257408801E-02 -0.20473448703E-02  0.10771243132E+00  0.10774570833E+00  0.00000000000E+00 0. -1.
</event>
<event>
 5   1  0.2192208E+09  0.9118800E+02  0.7818608E-02  0.1180000E+00
       11   -1    0    0    0    0  0.00000000000E+00  0.00000000000E+00  0.10559998763E+01  0.10560000000E+01  0.51109989000E-03 0. -1.
     -623   -1    0    0    0    0  0.00000000000E+00  0.00000000000E+00  0.47855275298E-10  0.17124000000E+03  0.17124000000E+03 0. -1.
       11    1    1    2    0    0 -0.53232108766E-02 -0.29835525616E-02  0.76173203126E+00  0.76175664542E+00  0.51109989000E-03 0. -1.
     -623    1    1    2    0    0  0.29048465106E-02  0.90541012052E-02  0.97322625701E-04  0.17124000026E+03  0.17124000000E+03 0. -1.
       22    1    1    2    0    0  0.24183643682E-02 -0.60705486368E-02  0.29417052167E+00  0.29424308975E+00  0.00000000000E+00 0. -1.
</event>
<event>
 5   1  0.2192208E+09  0.9118800E+02  0.7818608E-02  0.1180000E+00
       11   -1    0    0    0    0  0.00000000000E+00  0.00000000000E+00  0.10559998763E+01  0.10560000000E+01  0.51109989000E-03 0. -1.
     -623   -1    0    0    0    0  0.00000000000E+00  0.00000000000E+00  0.47855275298E-10  0.17124000000E+03  0.17124000000E+03 0.  1.
       11    1    1    2    0    0  0.36560658739E-02  0.20255987949E-01  0.95753166440E+00  0.95775300647E+00  0.51109989000E-03 0. -1.
     -623    1    1    2    0    0 -0.40608986876E-02 -0.22485736251E-01  0.24888348025E-03  0.17124000152E+03  0.17124000000E+03 0.  1.
       22    1    1    2    0    0  0.40483670143E-03  0.22297698286E-02  0.98220339219E-01  0.98246479848E-01  0.00000000000E+00 0.  1.
</event>
<event>
 5   1  0.2192208E+09  0.9118800E+02  0.7818608E-02  0.1180000E+00
       11   -1    0    0    0    0  0.00000000000E+00  0.00000000000E+00  0.10559998763E+01  0.10560000000E+01  0.51109989000E-03 0. -1.
     -623   -1    0    0    0    0  0.00000000000E+00  0.00000000000E+00  0.47855275298E-10  0.17124000000E+03  0.17124000000E+03 0. -1.
       11    1    1    2    0    0 -0.23674609391E-05  0.67929286911E-03  0.98313051435E+00  0.98313088189E+00  0.51109989000E-03 0. -1.
     -623    1    1    2    0    0 -0.28692511310E-04  0.73696148896E-04  0.41411258154E-05  0.17124000000E+03  0.17124000000E+03 0. -1.
       22    1    1    2    0    0  0.31059971512E-04 -0.75298901611E-03  0.72865193757E-01  0.72869090968E-01  0.00000000000E+00 0.  1.
</event>
<event>
 5   1  0.2192208E+09  0.9118800E+02  0.7818608E-02  0.1180000E+00
       11   -1    0    0    0    0  0.00000000000E+00  0.00000000000E+00  0.10559998763E+01  0.10560000000E+01  0.51109989000E-03 0.  1.
     -623   -1    0    0    0    0  0.00000000000E+00  0.00000000000E+00  0.47855275298E-10  0.17124000000E+03  0.17124000000E+03 0. -1.
       11    1    1    2    0    0 -0.38300664522E-01  0.13235688320E-01  0.96773962860E+00  0.96858782479E+00  0.51109989000E-03 0.  1.
     -623    1    1    2    0    0  0.41845610821E-01 -0.14305267195E-01  0.93225108017E-03  0.17124000571E+03  0.17124000000E+03 0. -1.
       22    1    1    2    0    0 -0.35449661463E-02  0.10695856601E-02  0.87328497121E-01  0.87406963154E-01  0.00000000000E+00 0.  1.
</event>
<event>
 5   1  0.2192208E+09  0.9118800E+02  0.7818608E-02  0.1180000E+00
       11   -1    0    0    0    0  0.00000000000E+00  0.00000000000E+00  0.10559998763E+01  0.10560000000E+01  0.51109989000E-03 0.  1.
     -623   -1    0    0    0    0  0.00000000000E+00  0.00000000000E+00  0.47855275298E-10  0.17124000000E+03  0.17124000000E+03 0.  1.
       11    1    1    2    0    0  0.12111548130E-02 -0.97390046001E-02  0.78147036219E+00  0.78153215117E+00  0.51109989000E-03 0.  1.
     -623    1    1    2    0    0 -0.24965277061E-02  0.13080625187E-01  0.85535951679E-04  0.17124000052E+03  0.17124000000E+03 0.  1.
       22    1    1    2    0    0  0.12853739895E-02 -0.33416263315E-02  0.27444444193E+00  0.27446779476E+00  0.00000000000E+00 0.  1.
</event>
<event>
 5   1  0.2192208E+09  0.9118800E+02  0.7818608E-02  0.1180000E+00
       11   -1    0    0    0    0  0.00000000000E+00  0.00000000000E+00  0.10559998763E+01  0.10560000000E+01  0.51109989000E-03 0.  1.
     -623   -1    0    0    0    0  0.00000000000E+00  0.00000000000E+00  0.47855275298E-10  0.17124000000E+03  0.17124000000E+03 0.  1.
       11    1    1    2    0    0  0.30815394065E-03  0.16077485192E-02  0.82622280057E+00  0.82622458038E+00  0.51109989000E-03 0.  1.
     -623    1    1    2    0    0  0.79350809659E-03  0.18552046040E-02  0.30405969020E-04  0.17124000001E+03  0.17124000000E+03 0.  1.
       22    1    1    2    0    0 -0.11016620413E-02 -0.34629531326E-02  0.22974667519E+00  0.22977541309E+00  0.00000000000E+00 0.  1.
</event>
<event>
 5   1  0.2192208E+09  0.9118800E+02  0.7818608E-02  0.1180000E+00
       11   -1    0    0    0    0  0.00000000000E+00  0.00000000000E+00  0.10559998763E+01  0.10560000000E+01  0.51109989000E-03 0.  1.
     -623   -1    0    0    0    0  0.00000000000E+00  0.00000000000E+00  0.47855275298E-10  0.17124000000E+03  0.17124000000E+03 0.  1.
       11    1    1    2    0    0  0.10177994082E-01 -0.16380795103E-01  0.78056893001E+00  0.78080729872E+00  0.51109989000E-03 0.  1.
     -623    1    1    2    0    0 -0.14366211336E-01  0.22971151228E-01  0.35119608621E-03  0.17124000214E+03  0.17124000000E+03 0.  1.
       22    1    1    2    0    0  0.41882160031E-02 -0.65903541247E-02  0.27507965832E+00  0.27519046557E+00  0.00000000000E+00 0.  1.
</event>
<event>
 5   1  0.2192208E+09  0.9118800E+02  0.7818608E-02  0.1180000E+00
       11   -1    0    0    0    0  0.00000000000E+00  0.00000000000E+00  0.10559998763E+01  0.10560000000E+01  0.51109989000E-03 0. -1.
     -623   -1    0    0    0    0  0.00000000000E+00  0.00000000000E+00  0.47855275298E-10  0.17124000000E+03  0.17124000000E+03 0.  1.
       11    1    1    2    0    0 -0.25172460682E-02 -0.95843066820E-02  0.41424517659E+00  0.41436399821E+00  0.51109989000E-03 0. -1.
     -623    1    1    2    0    0  0.99455400359E-03  0.12917285977E-03  0.19017710924E-03  0.17124000000E+03  0.17124000000E+03 0.  1.
       22    1    1    2    0    0  0.15226920636E-02  0.94551338221E-02  0.64156452373E+00  0.64163599981E+00  0.00000000000E+00 0. -1.
</event>
<event>
 5   1  0.2192208E+09  0.9118800E+02  0.7818608E-02  0.1180000E+00
       11   -1    0    0    0    0  0.00000000000E+00  0.00000000000E+00  0.10559998763E+01  0.10560000000E+01  0.51109989000E-03 0. -1.
     -623   -1    0    0    0    0  0.00000000000E+00  0.00000000000E+00  0.47855275298E-10  0.17124000000E+03  0.17124000000E+03 0.  1.
       11    1    1    2    0    0 -0.42268992310E-02 -0.45588803591E-02  0.64370589226E+00  0.64373611598E+00  0.51109989000E-03 0. -1.
     -623    1    1    2    0    0 -0.29806696293E-04 -0.37706669064E-03  0.81627925271E-04  0.17124000000E+03  0.17124000000E+03 0.  1.
       22    1    1    2    0    0  0.42567059273E-02  0.49359470494E-02  0.41221235520E+00  0.41226388260E+00  0.00000000000E+00 0. -1.
</event>
<event>
 5   1  0.2192208E+09  0.9118800E+02  0.7818608E-02  0.1180000E+00
       11   -1    0    0    0    0  0.00000000000E+00  0.00000000000E+00  0.10559998763E+01  0.10560000000E+01  0.51109989000E-03 0. -1.
     -623   -1    0    0    0    0  0.00000000000E+00  0.00000000000E+00  0.47855275298E-10  0.17124000000E+03  0.17124000000E+03 0.  1.
       11    1    1    2    0    0  0.15140267262E-02 -0.17020788060E-02  0.88407798023E+00  0.88408106285E+00  0.51109989000E-03 0. -1.
     -623    1    1    2    0    0 -0.22113485906E-03 -0.35528735427E-04  0.16602295352E-04  0.17124000000E+03  0.17124000000E+03 0.  1.
       22    1    1    2    0    0 -0.12928918635E-02  0.17376075420E-02  0.17190531113E+00  0.17191895429E+00  0.00000000000E+00 0.  1.
</event>
<event>
 5   1  0.2192208E+09  0.9118800E+02  0.7818608E-02  0.1180000E+00
       11   -1    0    0    0    0  0.00000000000E+00  0.00000000000E+00  0.10559998763E+01  0.10560000000E+01  0.51109989000E-03 0.  1.
     -623   -1    0    0    0    0  0.00000000000E+00  0.00000000000E+00  0.47855275298E-10  0.17124000000E+03  0.17124000000E+03 0. -1.
       11    1    1    2    0    0 -0.91712520588E-03  0.34344613064E-03  0.82526671967E+00  0.82526745901E+00  0.51109989000E-03 0.  1.
     -623    1    1    2    0    0 -0.15089301077E-03 -0.36847781459E-02  0.27322381410E-04  0.17124000004E+03  0.17124000000E+03 0. -1.
       22    1    1    2    0    0  0.10680182175E-02  0.33413320352E-02  0.23070584001E+00  0.23073250698E+00  0.00000000000E+00 0. -1.
</event>
<event>
 5   1  0.2192208E+09  0.9118800E+02  0.7818608E-02  0.1180000E+00
       11   -1    0    0    0    0  0.00000000000E+00  0.00000000000E+00  0.10559998763E+01  0.10560000000E+01  0.51109989000E-03 0.  1.
     -623   -1    0    0    0    0  0.00000000000E+00  0.00000000000E+00  0.47855275298E-10  0.17124000000E+03  0.17124000000E+03 0.  1.
       11    1    1    2    0    0 -0.21366033022E-01 -0.24586356440E-01  0.95084877720E+00  0.95140667153E+00  0.51109989000E-03 0.  1.
     -623    1    1    2    0    0  0.23463909091E-01  0.27229762015E-01  0.61600311866E-03  0.17124000377E+03  0.17124000000E+03 0.  1.
       22    1    1    2    0    0 -0.20978639266E-02 -0.26433914838E-02  0.10453454987E+00  0.10458900835E+00  0.00000000000E+00 0. -1.
</event>
<event>
 5   1  0.2192208E+09  0.9118800E+02  0.7818608E-02  0.1180000E+00
       11   -1    0    0    0    0  0.00000000000E+00  0.00000000000E+00  0.10559998763E+01  0.10560000000E+01  0.51109989000E-03 0. -1.
     -623   -1    0    0    0    0  0.00000000000E+00  0.00000000000E+00  0.47855275298E-10  0.17124000000E+03  0.17124000000E+03 0. -1.
       11    1    1    2    0    0  0.11189763431E-02  0.74081496623E-02  0.90118335412E+00  0.90121464245E+00  0.51109989000E-03 0. -1.
     -623    1    1    2    0    0  0.66326853967E-03  0.11313507417E-02  0.27718800772E-03  0.17124000001E+03  0.17124000000E+03 0. -1.
       22    1    1    2    0    0 -0.17822448831E-02 -0.85395004044E-02  0.15453933466E+00  0.15478535273E+00  0.00000000000E+00 0. -1.
</event>
<event>
 5   1  0.2192208E+09  0.9118800E+02  0.7818608E-02  0.1180000E+00
       11   -1    0    0    0    0  0.00000000000E+00  0.00000000000E+00  0.10559998763E+01  0.10560000000E+01  0.51109989000E-03 0. -1.
     -623   -1    0    0    0    0  0.00000000000E+00  0.00000000000E+00  0.47855275298E-10  0.17124000000E+03  0.17124000000E+03 0. -1.
       11    1    1    2    0    0 -0.39392723017E-02 -0.26972301040E-01  0.96053686403E+00  0.96092369691E+00  0.51109989000E-03 0. -1.
     -623    1    1    2    0    0  0.44350485877E-02  0.29674950762E-01  0.42905338265E-03  0.17124000263E+03  0.17124000000E+03 0. -1.
       22    1    1    2    0    0 -0.49577582502E-03 -0.27026466366E-02  0.95033849229E-01  0.95073564105E-01  0.00000000000E+00 0. -1.
</event>
<event>
 5   1  0.2192208E+09  0.9118800E+02  0.7818608E-02  0.1180000E+00
       11   -1    0    0    0    0  0.00000000000E+00  0.00000000000E+00  0.10559998763E+01  0.10560000000E+01  0.51109989000E-03 0. -1.
     -623   -1    0    0    0    0  0.00000000000E+00  0.00000000000E+00  0.47855275298E-10  0.17124000000E+03  0.17124000000E+03 0.  1.
       11    1    1    2    0    0 -0.76931916840E-03 -0.33113950207E-02  0.77041157565E+00  0.77041924580E+00  0.51109989000E-03 0. -1.
     -623    1    1    2    0    0 -0.41767348749E-03  0.93093303897E-04  0.28148656970E-04  0.17124000000E+03  0.17124000000E+03 0.  1.
       22    1    1    2    0    0  0.11869926579E-02  0.32183017164E-02  0.28556015705E+00  0.28558075865E+00  0.00000000000E+00 0. -1.
</event>
<event>
 5   1  0.2192208E+09  0.9118800E+02  0.7818608E-02  0.1180000E+00
       11   -1    0    0    0    0  0.00000000000E+00  0.00000000000E+00  0.10559998763E+01  0.10560000000E+01  0.51109989000E-03 0. -1.
     -623   -1    0    0    0    0  0.00000000000E+00  0.00000000000E+00  0.47855275298E-10  0.17124000000E+03  0.17124000000E+03 0.  1.
       11    1    1    2    0    0 -0.14964405753E-01  0.19326896193E-01  0.97360332403E+00  0.97391024029E+00  0.51109989000E-03 0. -1.
     -623    1    1    2    0    0  0.15104254636E-01 -0.21506011403E-01  0.33785741451E-03  0.17124000202E+03  0.17124000000E+03 0.  1.
       22    1    1    2    0    0 -0.13984826679E-03  0.21791143334E-02  0.82058651894E-01  0.82087699733E-01  0.00000000000E+00 0.  1.
</event>
<event>
 5   1  0.2192208E+09  0.9118800E+02  0.7818608E-02  0.1180000E+00
       11   -1    0    0    0    0  0.00000000000E+00  0.00000000000E+00  0.10559998763E+01  0.10560000000E+01  0.51109989000E-03 0. -1.
     -623   -1    0    0    0    0  0.00000000000E+00  0.00000000000E+00  0.47855275298E-10  0.17124000000E+03  0.17124000000E+03 0. -1.
       11    1    1    2    0    0 -0.19408127940E-01 -0.11377036206E-01  0.96166963951E+00  0.96193288184E+00  0.51109989000E-03 0. -1.
     -623    1    1    2    0    0  0.21264226689E-01  0.12332436174E-01  0.28805031350E-03  0.17124000176E+03  0.17124000000E+03 0. -1.
       22    1    1    2    0    0 -0.18560692681E-02 -0.95538287033E-03  0.94040722886E-01  0.94063889514E-01  0.00000000000E+00 0. -1.
</event>
<event>
 5   1  0.2192208E+09  0.9118800E+02  0.7818608E-02  0.1180000E+00
       11   -1    0    0    0    0  0.00000000000E+00  0.00000000000E+00  0.10559998763E+01  0.10560000000E+01  0.51109989000E-03 0. -1.
     -623   -1    0    0    0    0  0.00000000000E+00  0.00000000000E+00  0.47855275298E-10  0.17124000000E+03  0.17124000000E+03 0.  1.
       11    1    1    2    0    0  0.17317956317E-03 -0.87099053795E-02  0.52971783111E+00  0.52978970759E+00  0.51109989000E-03 0. -1.
     -623    1    1    2    0    0  0.20237090961E-02  0.16367337094E-01  0.13285213734E-03  0.17124000079E+03  0.17124000000E+03 0.  1.
       22    1    1    2    0    0 -0.21968885646E-02 -0.76574309488E-02  0.52614914370E+00  0.52620944878E+00  0.00000000000E+00 0. -1.
</event>
<event>
 5   1  0.2192208E+09  0.9118800E+02  0.7818608E-02  0.1180000E+00
       11   -1    0    0    0    0  0.00000000000E+00  0.00000000000E+00  0.10559998763E+01  0.10560000000E+01  0.51109989000E-03 0. -1.
     -623   -1    0    0    0    0  0.00000000000E+00  0.00000000000E+00  0.47855275298E-10  0.17124000000E+03  0.17124000000E+03 0. -1.
       11    1    1    2    0    0 -0.16265876902E-02 -0.27177650863E-02  0.28958869391E+00  0.28960646557E+00  0.51109989000E-03 0. -1.
     -623    1    1    2    0    0  0.34800485961E-02  0.11476861704E-01  0.70364805314E-04  0.17124000042E+03  0.17124000000E+03 0. -1.
       22    1    1    2    0    0 -0.18534607071E-02 -0.87590959617E-02  0.76634075732E+00  0.76639305412E+00  0.00000000000E+00 0. -1.
</event>
<event>
 5   1  0.2192208E+09  0.9118800E+02  0.7818608E-02  0.1180000E+00
       11   -1    0    0    0    0  0.00000000000E+00  0.00000000000E+00  0.10559998763E+01  0.10560000000E+01  0.51109989000E-03 0.  1.
     -623   -1    0    0    0    0  0.00000000000E+00  0.00000000000E+00  0.47855275298E-10  0.17124000000E+03  0.17124000000E+03 0. -1.
       11    1    1    2    0    0 -0.10226781515E-02  0.86619406581E-03  0.96697169557E+00  0.96697275940E+00  0.51109989000E-03 0.  1.
     -623    1    1    2    0    0  0.14552405220E-03  0.11252331725E-03  0.10641709102E-04  0.17124000000E+03  0.17124000000E+03 0. -1.
       22    1    1    2    0    0  0.87715409799E-03 -0.97871738406E-03  0.89017548418E-01  0.89027249836E-01  0.00000000000E+00 0.  1.
</event>
<event>
 5   1  0.2192208E+09  0.9118800E+02  0.7818608E-02  0.1180000E+00
       11   -1    0    0    0    0  0.00000000000E+00  0.00000000000E+00  0.10559998763E+01  0.10560000000E+01  0.51109989000E-03 0. -1.
     -623   -1    0    0    0    0  0.00000000000E+00  0.00000000000E+00  0.47855275298E-10  0.17124000000E+03  0.17124000000E+03 0. -1.
       11    1    1    2    0    0 -0.72872605231E-03  0.20932315614E-02  0.97112855501E+00  0.97113121886E+00  0.51109989000E-03 0. -1.
     -623    1    1    2    0    0  0.68593748036E-03 -0.30448805148E-02  0.79151129804E-05  0.17124000003E+03  0.17124000000E+03 0. -1.
       22    1    1    2    0    0  0.42788493178E-04  0.95164930298E-03  0.84863527497E-01  0.84868873956E-01  0.00000000000E+00 0.  1.
</event>
<event>
 5   1  0.2192208E+09  0.9118800E+02  0.7818608E-02  0.1180000E+00
       11   -1    0    0    0    0  0.00000000000E+00  0.00000000000E+00  0.10559998763E+01  0.10560000000E+01  0.51109989000E-03 0. -1.
     -623   -1    0    0    0    0  0.00000000000E+00  0.00000000000E+00  0.47855275298E-10  0.17124000000E+03  0.17124000000E+03 0.  1.
       11    1    1    2    0    0 -0.60106544691E-02 -0.10159234311E-02  0.16440995262E+00  0.16452371808E+00  0.51109989000E-03 0. -1.
     -623    1    1    2    0    0  0.18468330556E-01  0.10579126863E-01  0.25331278520E-03  0.17124000132E+03  0.17124000000E+03 0.  1.
       22    1    1    2    0    0 -0.12457676277E-01 -0.95632035404E-02  0.89133662182E+00  0.89147496990E+00  0.00000000000E+00 0. -1.
</event>
<event>
 5   1  0.2192208E+09  0.9118800E+02  0.7818608E-02  0.1180000E+00
       11   -1    0    0    0    0  0.00000000000E+00  0.00000000000E+00  0.10559998763E+01  0.10560000000E+01  0.51109989000E-03 0.  1.
     -623   -1    0    0    0    0  0.00000000000E+00  0.00000000000E+00  0.47855275298E-10  0.17124000000E+03  0.17124000000E+03 0.  1.
       11    1    1    2    0    0 -0.46961542813E-02  0.14467249933E-02  0.87682463736E+00  0.87683855571E+00  0.51109989000E-03 0.  1.
     -623    1    1    2    0    0  0.18137163280E-03  0.45077298465E-03  0.80741306407E-04  0.17124000000E+03  0.17124000000E+03 0.  1.
       22    1    1    2    0    0  0.45147826479E-02 -0.18974979795E-02  0.17909450139E+00  0.17916144728E+00  0.00000000000E+00 0. -1.
</event>
<event>
 5   1  0.2192208E+09  0.9118800E+02  0.7818608E-02  0.1180000E+00
       11   -1    0    0    0    0  0.00000000000E+00  0.00000000000E+00  0.10559998763E+01  0.10560000000E+01  0.51109989000E-03 0.  1.
     -623   -1    0    0    0    0  0.00000000000E+00  0.00000000000E+00  0.47855275298E-10  0.17124000000E+03  0.17124000000E+03 0. -1.
       11    1    1    2    0    0 -0.15549341382E-02  0.12659360269E-01  0.95176032621E+00  0.95184592082E+00  0.51109989000E-03 0.  1.
     -623    1    1    2    0    0  0.10330369853E-02 -0.14149555730E-01  0.98027595020E-04  0.17124000059E+03  0.17124000000E+03 0. -1.
       22    1    1    2    0    0  0.52189704789E-03  0.14901969004E-02  0.10414162998E+00  0.10415359887E+00  0.00000000000E+00 0.  1.
</event>
<event>
 5   1  0.2192208E+09  0.9118800E+02  0.7818608E-02  0.1180000E+00
       11   -1    0    0    0    0  0.00000000000E+00  0.00000000000E+00  0.10559998763E+01  0.10560000000E+01  0.51109989000E-03 0.  1.
     -623   -1    0    0    0    0  0.00000000000E+00  0.00000000000E+00  0.47855275298E-10  0.17124000000E+03  0.17124000000E+03 0. -1.
       11    1    1    2    0    0  0.88865232534E-02 -0.30744497307E-03  0.88166267502E+00  0.88170766049E+00  0.51109989000E-03 0.  1.
     -623    1    1    2    0    0 -0.10253942600E-01 -0.16396759976E-02  0.61417771280E-04  0.17124000031E+03  0.17124000000E+03 0. -1.
       22    1    1    2    0    0  0.13674196937E-02  0.19471210261E-02  0.17427581929E+00  0.17429206036E+00  0.00000000000E+00 0.  1.
</event>
<event>
 5   1  0.2192208E+09  0.9118800E+02  0.7818608E-02  0.1180000E+00
       11   -1    0    0    0    0  0.00000000000E+00  0.00000000000E+00  0.10559998763E+01  0.10560000000E+01  0.51109989000E-03 0.  1.
     -623   -1    0    0    0    0  0.00000000000E+00  0.00000000000E+00  0.47855275298E-10  0.17124000000E+03  0.17124000000E+03 0. -1.
       11    1    1    2    0    0  0.92338710476E-02  0.16674882280E-01  0.87017418490E+00  0.87038307047E+00  0.51109989000E-03 0.  1.
     -623    1    1    2    0    0 -0.10973506307E-01 -0.19897918102E-01  0.24640792948E-03  0.17124000151E+03  0.17124000000E+03 0. -1.
       22    1    1    2    0    0  0.17396305838E-02  0.32230273442E-02  0.18557883368E+00  0.18561497173E+00  0.00000000000E+00 0.  1.
</event>
<event>
 5   1  0.2192208E+09  0.9118800E+02  0.7818608E-02  0.1180000E+00
       11   -1    0    0    0    0  0.00000000000E+00  0.00000000000E+00  0.10559998763E+01  0.10560000000E+01  0.51109989000E-03 0.  1.
     -623   -1    0    0    0    0  0.00000000000E+00  0.00000000000E+00  0.47855275298E-10  0.17124000000E+03  0.17124000000E+03 0.  1.
       11    1    1    2    0    0  0.77837594982E-03  0.20016914951E-02  0.89874165909E+00  0.89874437058E+00  0.51109989000E-03 0.  1.
     -623    1    1    2    0    0 -0.15762364411E-02  0.47897740649E-03  0.24187263979E-04  0.17124000001E+03  0.17124000000E+03 0.  1.
       22    1    1    2    0    0  0.79786050057E-03 -0.24806689044E-02  0.15723403623E+00  0.15725562772E+00  0.00000000000E+00 0.  1.
</event>
<event>
 5   1  0.2192208E+09  0.9118800E+02  0.7818608E-02  0.1180000E+00
       11   -1    0    0    0    0  0.00000000000E+00  0.00000000000E+00  0.10559998763E+01  0.10560000000E+01  0.51109989000E-03 0.  1.
     -623   -1    0    0    0    0  0.00000000000E+00  0.00000000000E+00  0.47855275298E-10  0.17124000000E+03  0.17124000000E+03 0.  1.
       11    1    1    2    0    0 -0.41740835113E-03 -0.31405306678E-03  0.98451625361E+00  0.98451652485E+00  0.51109989000E-03 0.  1.
     -623    1    1    2    0    0  0.33778275171E-03  0.10340517796E-02  0.38214978280E-05  0.17124000000E+03  0.17124000000E+03 0.  1.
       22    1    1    2    0    0  0.79625575956E-04 -0.71999878465E-03  0.71479874624E-01  0.71483545063E-01  0.00000000000E+00 0. -1.
</event>
<event>
 5   1  0.2192208E+09  0.9118800E+02  0.7818608E-02  0.1180000E+00
       11   -1    0    0    0    0  0.00000000000E+00  0.00000000000E+00  0.10559998763E+01  0.10560000000E+01  0.51109989000E-03 0. -1.
     -623   -1    0    0    0    0  0.00000000000E+00  0.00000000000E+00  0.47855275298E-10  0.17124000000E+03  0.17124000000E+03 0.  1.
       11    1    1    2    0    0  0.16696701051E-01  0.61250142412E-02  0.98452234786E+00  0.98468310145E+00  0.51109989000E-03 0. -1.
     -623    1    1    2    0    0 -0.15755867986E-01 -0.78490328263E-02  0.18858439632E-03  0.17124000090E+03  0.17124000000E+03 0.  1.
       22    1    1    2    0    0 -0.94083298186E-03  0.17240186262E-02  0.71288949630E-01  0.71315999231E-01  0.00000000000E+00 0.  1.
</event>
<event>
 5   1  0.2192208E+09  0.9118800E+02  0.7818608E-02  0.1180000E+00
       11   -1    0    0    0    0  0.00000000000E+00  0.00000000000E+00  0.10559998763E+01  0.10560000000E+01  0.51109989000E-03 0. -1.
     -623   -1    0    0    0    0  0.00000000000E+00  0.00000000000E+00  0.47855275298E-10  0.17124000000E+03  0.17124000000E+03 0. -1.
       11    1    1    2    0    0  0.12355321011E-02  0.11665015878E-02  0.99198413876E+00  0.99198572572E+00  0.51109989000E-03 0. -1.
     -623    1    1    2    0    0  0.25177923492E-02  0.10159518341E-02  0.14889174594E-03  0.17124000002E+03  0.17124000000E+03 0. -1.
       22    1    1    2    0    0 -0.37533244499E-02 -0.21824534217E-02  0.63866845710E-01  0.64014252541E-01  0.00000000000E+00 0. -1.
</event>
<event>
 5   1  0.2192208E+09  0.9118800E+02  0.7818608E-02  0.1180000E+00
       11   -1    0    0    0    0  0.00000000000E+00  0.00000000000E+00  0.10559998763E+01  0.10560000000E+01  0.51109989000E-03 0.  1.
     -623   -1    0    0    0    0  0.00000000000E+00  0.00000000000E+00  0.47855275298E-10  0.17124000000E+03  0.17124000000E+03 0.  1.
       11    1    1    2    0    0  0.20575199412E-02  0.49042453026E-03  0.95084700923E+00  0.95084949918E+00  0.51109989000E-03 0.  1.
     -623    1    1    2    0    0 -0.13631859499E-02 -0.21087837993E-02  0.17132173017E-04  0.17124000002E+03  0.17124000000E+03 0.  1.
       22    1    1    2    0    0 -0.69433394181E-03  0.16183593455E-02  0.10513577326E+00  0.10515052071E+00  0.00000000000E+00 0.  1.
</event>
<event>
 5   1  0.2192208E+09  0.9118800E+02  0.7818608E-02  0.1180000E+00
       11   -1    0    0    0    0  0.00000000000E+00  0.00000000000E+00  0.10559998763E+01  0.10560000000E+01  0.51109989000E-03 0.  1.
     -623   -1    0    0    0    0  0.00000000000E+00  0.00000000000E+00  0.47855275298E-10  0.17124000000E+03  0.17124000000E+03 0. -1.
       11    1    1    2    0    0 -0.54067550622E-02  0.75964580961E-02  0.93236455106E+00  0.93241131293E+00  0.51109989000E-03 0.  1.
     -623    1    1    2    0    0  0.87616266747E-02 -0.10310452444E-01  0.12253039626E-03  0.17124000053E+03  0.17124000000E+03 0. -1.
       22    1    1    2    0    0 -0.33548716434E-02  0.27139943844E-02  0.12351279862E+00  0.12358815620E+00  0.00000000000E+00 0. -1.
</event>
<event>
 5   1  0.2192208E+09  0.9118800E+02  0.7818608E-02  0.1180000E+00
       11   -1    0    0    0    0  0.00000000000E+00  0.00000000000E+00  0.10559998763E+01  0.10560000000E+01  0.51109989000E-03 0. -1.
     -623   -1    0    0    0    0  0.00000000000E+00  0.00000000000E+00  0.47855275298E-10  0.17124000000E+03  0.17124000000E+03 0.  1.
       11    1    1    2    0    0 -0.66103748247E-02  0.99770186811E-03  0.59942545485E+00  0.59946295099E+00  0.51109989000E-03 0. -1.
     -623    1    1    2    0    0  0.76363924036E-02 -0.55850144402E-02  0.61834250298E-04  0.17124000026E+03  0.17124000000E+03 0.  1.
       22    1    1    2    0    0 -0.10260176943E-02  0.45873126564E-02  0.45651260321E+00  0.45653680360E+00  0.00000000000E+00 0. -1.
</event>
<event>
 5   1  0.2192208E+09  0.9118800E+02  0.7818608E-02  0.1180000E+00
       11   -1    0    0    0    0  0.00000000000E+00  0.00000000000E+00  0.10559998763E+01  0.10560000000E+01  0.51109989000E-03 0. -1.
     -623   -1    0    0    0    0  0.00000000000E+00  0.00000000000E+00  0.47855275298E-10  0.17124000000E+03  0.17124000000E+03 0.  1.
       11    1    1    2    0    0  0.20220731622E-01 -0.16864306610E-01  0.94568870198E+00  0.94605531820E+00  0.51109989000E-03 0. -1.
     -623    1    1    2    0    0 -0.22543035504E-01  0.18776016055E-01  0.41016167056E-03  0.17124000251E+03  0.17124000000E+03 0.  1.
       22    1    1    2    0    0  0.23222934789E-02 -0.19117007806E-02  0.10990052558E+00  0.10994168077E+00  0.00000000000E+00 0. -1.
</event>
<event>
 5   1  0.2192208E+09  0.9118800E+02  0.7818608E-02  0.1180000E+00
       11   -1    0    0    0    0  0.00000000000E+00  0.00000000000E+00  0.10559998763E+01  0.10560000000E+01  0.51109989000E-03 0. -1.
     -623   -1    0    0    0    0  0.00000000000E+00  0.00000000000E+00  0.47855275298E-10  0.17124000000E+03  0.17124000000E+03 0. -1.
       11    1    1    2    0    0  0.17527128745E-03  0.13826461925E-02  0.96836898451E+00  0.96837012233E+00  0.51109989000E-03 0. -1.
     -623    1    1    2    0    0 -0.20220472038E-04  0.83576076151E-04  0.13418661681E-04  0.17124000000E+03  0.17124000000E+03 0. -1.
       22    1    1    2    0    0 -0.15505081559E-03 -0.14662222679E-02  0.87617463684E-01  0.87629868144E-01  0.00000000000E+00 0. -1.
</event>
<event>
 5   1  0.2192208E+09  0.9118800E+02  0.7818608E-02  0.1180000E+00
       11   -1    0    0    0    0  0.00000000000E+00  0.00000000000E+00  0.10559998763E+01  0.10560000000E+01  0.51109989000E-03 0. -1.
     -623   -1    0    0    0    0  0.00000000000E+00  0.00000000000E+00  0.47855275298E-10  0.17124000000E+03  0.17124000000E+03 0.  1.
       11    1    1    2    0    0  0.10939118768E-01 -0.34492206103E-03  0.98351612292E+00  0.98357714927E+00  0.51109989000E-03 0. -1.
     -623    1    1    2    0    0 -0.11194171654E-01  0.17170965321E-02  0.74726738069E-04  0.17124000037E+03  0.17124000000E+03 0.  1.
       22    1    1    2    0    0  0.25505335106E-03 -0.13721745423E-02  0.72409070550E-01  0.72422520069E-01  0.00000000000E+00 0. -1.
</event>
<event>
 5   1  0.2192208E+09  0.9118800E+02  0.7818608E-02  0.1180000E+00
       11   -1    0    0    0    0  0.00000000000E+00  0.00000000000E+00  0.10559998763E+01  0.10560000000E+01  0.51109989000E-03 0.  1.
     -623   -1    0    0    0    0  0.00000000000E+00  0.00000000000E+00  0.47855275298E-10  0.17124000000E+03  0.17124000000E+03 0.  1.
       11    1    1    2    0    0 -0.11509195256E-01 -0.15300964277E-01  0.81615078809E+00  0.81637549646E+00  0.51109989000E-03 0.  1.
     -623    1    1    2    0    0  0.15457791746E-01  0.20157813763E-01  0.30823748220E-03  0.17124000188E+03  0.17124000000E+03 0.  1.
       22    1    1    2    0    0 -0.39485987935E-02 -0.48568524912E-02  0.23954100815E+00  0.23962277653E+00  0.00000000000E+00 0.  1.
</event>
<event>
 5   1  0.2192208E+09  0.9118800E+02  0.7818608E-02  0.1180000E+00
       11   -1    0    0    0    0  0.00000000000E+00  0.00000000000E+00  0.10559998763E+01  0.10560000000E+01  0.51109989000E-03 0. -1.
     -623   -1    0    0    0    0  0.00000000000E+00  0.00000000000E+00  0.47855275298E-10  0.17124000000E+03  0.17124000000E+03 0.  1.
       11    1    1    2    0    0  0.78392625039E-02 -0.13747561990E-01  0.96323511291E+00  0.96336524406E+00  0.51109989000E-03 0. -1.
     -623    1    1    2    0    0 -0.85825880430E-02  0.15116284570E-01  0.14398498585E-03  0.17124000088E+03  0.17124000000E+03 0.  1.
       22    1    1    2    0    0  0.74333054635E-03 -0.13687313996E-02  0.92621394476E-01  0.92634489692E-01  0.00000000000E+00 0. -1.
</event>
<event>
 5   1  0.2192208E+09  0.9118800E+02  0.7818608E-02  0.1180000E+00
       11   -1    0    0    0    0  0.00000000000E+00  0.00000000000E+00  0.10559998763E+01  0.10560000000E+01  0.51109989000E-03 0. -1.
     -623   -1    0    0    0    0  0.00000000000E+00  0.00000000000E+00  0.47855275298E-10  0.17124000000E+03  0.17124000000E+03 0.  1.
       11    1    1    2    0    0  0.81358499800E-03  0.21036573145E-03  0.98275677361E+00  0.98275726579E+00  0.51109989000E-03 0. -1.
     -623    1    1    2    0    0 -0.11800420966E-02 -0.95830702192E-03  0.51111157768E-05  0.17124000001E+03  0.17124000000E+03 0.  1.
       22    1    1    2    0    0  0.36645719614E-03  0.74794136968E-03  0.73238078925E-01  0.73242814745E-01  0.00000000000E+00 0. -1.
</event>
<event>
 5   1  0.2192208E+09  0.9118800E+02  0.7818608E-02  0.1180000E+00
       11   -1    0    0    0    0  0.00000000000E+00  0.00000000000E+00  0.10559998763E+01  0.10560000000E+01  0.51109989000E-03 0.  1.
     -623   -1    0    0    0    0  0.00000000000E+00  0.00000000000E+00  0.47855275298E-10  0.17124000000E+03  0.17124000000E+03 0. -1.
       11    1    1    2    0    0  0.93793504313E-03 -0.17426467135E-02  0.89071224267E+00  0.89071458784E+00  0.51109989000E-03 0.  1.
     -623    1    1    2    0    0 -0.79162641975E-04 -0.26691240682E-05  0.13667663565E-04  0.17124000000E+03  0.17124000000E+03 0. -1.
       22    1    1    2    0    0 -0.85877239980E-03  0.17453158376E-02  0.16527398416E+00  0.16528543026E+00  0.00000000000E+00 0. -1.
</event>
<event>
 5   1  0.2192208E+09  0.9118800E+02  0.7818608E-02  0.1180000E+00
       11   -1    0    0    0    0  0.00000000000E+00  0.00000000000E+00  0.10559998763E+01  0.10560000000E+01  0.51109989000E-03 0.  1.
     -623   -1    0    0    0    0  0.00000000000E+00  0.00000000000E+00  0.47855275298E-10  0.17124000000E+03  0.17124000000E+03 0.  1.
       11    1    1    2    0    0  0.19380517977E-01  0.15937537804E-01  0.98809804436E+00  0.98841672187E+00  0.51109989000E-03 0.  1.
     -623    1    1    2    0    0 -0.20799104850E-01 -0.17059590565E-01  0.34487489997E-03  0.17124000211E+03  0.17124000000E+03 0.  1.
       22    1    1    2    0    0  0.14186215411E-02  0.11220811961E-02  0.67558716670E-01  0.67582924999E-01  0.00000000000E+00 0. -1.
</event>
<event>
 5   1  0.2192208E+09  0.9118800E+02  0.7818608E-02  0.1180000E+00
       11   -1    0    0    0    0  0.00000000000E+00  0.00000000000E+00  0.10559998763E+01  0.10560000000E+01  0.51109989000E-03 0. -1.
     -623   -1    0    0    0    0  0.00000000000E+00  0.00000000000E+00  0.47855275298E-10  0.17124000000E+03  0.17124000000E+03 0. -1.
       11    1    1    2    0    0 -0.23143457334E-01 -0.33330832818E-01  0.98508147755E+00  0.98591700597E+00  0.51109989000E-03 0. -1.
     -623    1    1    2    0    0  0.24698378698E-01  0.35681238521E-01  0.89759584831E-03  0.17124000550E+03  0.17124000000E+03 0. -1.
       22    1    1    2    0    0 -0.15548948366E-02 -0.23503673780E-02  0.70019669712E-01  0.70076358862E-01  0.00000000000E+00 0.  1.
</event>
<event>
 5   1  0.2192208E+09  0.9118800E+02  0.7818608E-02  0.1180000E+00
       11   -1    0    0    0    0  0.00000000000E+00  0.00000000000E+00  0.10559998763E+01  0.10560000000E+01  0.51109989000E-03 0.  1.
     -623   -1    0    0    0    0  0.00000000000E+00  0.00000000000E+00  0.47855275298E-10  0.17124000000E+03  0.17124000000E+03 0. -1.
       11    1    1    2    0    0 -0.30913846047E-02 -0.57130673669E-02  0.54823172113E+00  0.54827044155E+00  0.51109989000E-03 0.  1.
     -623    1    1    2    0    0  0.86803332926E-02  0.11770845376E-01  0.10612469236E-03  0.17124000062E+03  0.17124000000E+03 0. -1.
       22    1    1    2    0    0 -0.55889492042E-02 -0.60577787089E-02  0.50766209336E+00  0.50772899668E+00  0.00000000000E+00 0.  1.
</event>
<event>
 5   1  0.2192208E+09  0.9118800E+02  0.7818608E-02  0.1180000E+00
       11   -1    0    0    0    0  0.00000000000E+00  0.00000000000E+00  0.10559998763E+01  0.10560000000E+01  0.51109989000E-03 0.  1.
     -623   -1    0    0    0    0  0.00000000000E+00  0.00000000000E+00  0.47855275298E-10  0.17124000000E+03  0.17124000000E+03 0. -1.
       11    1    1    2    0    0 -0.19813207877E-01  0.99933990500E-02  0.79782421621E+00  0.79813292905E+00  0.51109989000E-03 0.  1.
     -623    1    1    2    0    0  0.26337208604E-01 -0.13082461283E-01  0.41216611624E-03  0.17124000253E+03  0.17124000000E+03 0. -1.
       22    1    1    2    0    0 -0.65240409476E-02  0.30890822120E-02  0.25776510606E+00  0.25786615800E+00  0.00000000000E+00 0.  1.
</event>
<event>
 5   1  0.2192208E+09  0.9118800E+02  0.7818608E-02  0.1180000E+00
       11   -1    0    0    0    0  0.00000000000E+00  0.00000000000E+00  0.10559998763E+01  0.10560000000E+01  0.51109989000E-03 0. -1.
     -623   -1    0    0    0    0  0.00000000000E+00  0.00000000000E+00  0.47855275298E-10  0.17124000000E+03  0.17124000000E+03 0.  1.
       11    1    1    2    0    0 -0.12086429406E-02 -0.18947096669E-02  0.94524787016E+00  0.94525067998E+00  0.51109989000E-03 0. -1.
     -623    1    1    2    0    0 -0.30706390983E-04  0.33559403190E-04  0.25261396117E-04  0.17124000000E+03  0.17124000000E+03 0.  1.
       22    1    1    2    0    0  0.12393493316E-02  0.18611502637E-02  0.11072674608E+00  0.11074932128E+00  0.00000000000E+00 0. -1.
</event>
<event>
 5   1  0.2192208E+09  0.9118800E+02  0.7818608E-02  0.1180000E+00
       11   -1    0    0    0    0  0.00000000000E+00  0.00000000000E+00  0.10559998763E+01  0.10560000000E+01  0.51109989000E-03 0.  1.
     -623   -1    0    0    0    0  0.00000000000E+00  0.00000000000E+00  0.47855275298E-10  0.17124000000E+03  0.17124000000E+03 0.  1.
       11    1    1    2    0    0  0.13832639828E-02 -0.66499928850E-03  0.99291488428E+00  0.99291620205E+00  0.51109989000E-03 0.  1.
     -623    1    1    2    0    0 -0.10112410597E-02  0.20236387531E-02  0.16938544749E-04  0.17124000001E+03  0.17124000000E+03 0.  1.
       22    1    1    2    0    0 -0.37202289426E-03 -0.13586395224E-02  0.63068083730E-01  0.63083813199E-01  0.00000000000E+00 0.  1.
</event>
<event>
 5   1  0.2192208E+09  0.9118800E+02  0.7818608E-02  0.1180000E+00
       11   -1    0    0    0    0  0.00000000000E+00  0.00000000000E+00  0.10559998763E+01  0.10560000000E+01  0.51109989000E-03 0. -1.
     -623   -1    0    0    0    0  0.00000000000E+00  0.00000000000E+00  0.47855275298E-10  0.17124000000E+03  0.17124000000E+03 0. -1.
       11    1    1    2    0    0  0.78976222874E-02  0.11938051296E-01  0.81204277968E+00  0.81216908754E+00  0.51109989000E-03 0. -1.
     -623    1    1    2    0    0 -0.11434497584E-01 -0.16110678064E-01  0.18868658159E-03  0.17124000114E+03  0.17124000000E+03 0. -1.
       22    1    1    2    0    0  0.35368750207E-02  0.41726263789E-02  0.24376838463E+00  0.24382974724E+00  0.00000000000E+00 0.  1.
</event>
<event>
 5   1  0.2192208E+09  0.9118800E+02  0.7818608E-02  0.1180000E+00
       11   -1    0    0    0    0  0.00000000000E+00  0.00000000000E+00  0.10559998763E+01  0.10560000000E+01  0.51109989000E-03 0.  1.
     -623   -1    0    0    0    0  0.00000000000E+00  0.00000000000E+00  0.47855275298E-10  0.17124000000E+03  0.17124000000E+03 0. -1.
       11    1    1    2    0    0 -0.11687092462E-03  0.65987325189E-03  0.99901370714E+00  0.99901406264E+00  0.51109989000E-03 0.  1.
     -623    1    1    2    0    0 -0.39719628211E-05 -0.61059602231E-04  0.35062972492E-05  0.17124000000E+03  0.17124000000E+03 0. -1.
       22    1    1    2    0    0  0.12084288759E-03 -0.59881364747E-03  0.56982700865E-01  0.56985975280E-01  0.00000000000E+00 0.  1.
</event>
<event>
 5   1  0.2192208E+09  0.9118800E+02  0.7818608E-02  0.1180000E+00
       11   -1    0    0    0    0  0.00000000000E+00  0.00000000000E+00  0.10559998763E+01  0.10560000000E+01  0.51109989000E-03 0. -1.
     -623   -1    0    0    0    0  0.00000000000E+00  0.00000000000E+00  0.47855275298E-10  0.17124000000E+03  0.17124000000E+03 0. -1.
       11    1    1    2    0    0 -0.16318009911E-01  0.96654131970E-03  0.81444283566E+00  0.81460702516E+00  0.51109989000E-03 0. -1.
     -623    1    1    2    0    0  0.11339128163E-02  0.20741790991E-02  0.66130179259E-03  0.17124000002E+03  0.17124000000E+03 0. -1.
       22    1    1    2    0    0  0.15184097095E-01 -0.30407204178E-02  0.24089573839E+00  0.24139295674E+00  0.00000000000E+00 0. -1.
</event>
<event>
 5   1  0.2192208E+09  0.9118800E+02  0.7818608E-02  0.1180000E+00
       11   -1    0    0    0    0  0.00000000000E+00  0.00000000000E+00  0.10559998763E+01  0.10560000000E+01  0.51109989000E-03 0.  1.
     -623   -1    0    0    0    0  0.00000000000E+00  0.00000000000E+00  0.47855275298E-10  0.17124000000E+03  0.17124000000E+03 0.  1.
       11    1    1    2    0    0 -0.86923394446E-02  0.14269974127E-01  0.92259555572E+00  0.92274699110E+00  0.51109989000E-03 0.  1.
     -623    1    1    2    0    0  0.10933289464E-01 -0.20616308961E-01  0.32298192650E-03  0.17124000159E+03  0.17124000000E+03 0.  1.
       22    1    1    2    0    0 -0.22409500044E-02  0.63463348055E-02  0.13308133724E+00  0.13325141705E+00  0.00000000000E+00 0. -1.
</event>
<event>
 5   1  0.2192208E+09  0.9118800E+02  0.7818608E-02  0.1180000E+00
       11   -1    0    0    0    0  0.00000000000E+00  0.00000000000E+00  0.10559998763E+01  0.10560000000E+01  0.51109989000E-03 0. -1.
     -623   -1    0    0    0    0  0.00000000000E+00  0.00000000000E+00  0.47855275298E-10  0.17124000000E+03  0.17124000000E+03 0. -1.
       11    1    1    2    0    0  0.52958458399E-02  0.10159701510E-01  0.93058050961E+00  0.93065117611E+00  0.51109989000E-03 0. -1.
     -623    1    1    2    0    0 -0.57545285633E-02 -0.11696102156E-01  0.81294526185E-04  0.17124000050E+03  0.17124000000E+03 0. -1.
       22    1    1    2    0    0  0.45868048621E-03  0.15363960990E-02  0.12533766171E+00  0.12534791719E+00  0.00000000000E+00 0.  1.
</event>
<event>
 5   1  0.2192208E+09  0.9118800E+02  0.7818608E-02  0.1180000E+00
       11   -1    0    0    0    0  0.00000000000E+00  0.00000000000E+00  0.10559998763E+01  0.10560000000E+01  0.51109989000E-03 0. -1.
     -623   -1    0    0    0    0  0.00000000000E+00  0.00000000000E+00  0.47855275298E-10  0.17124000000E+03  0.17124000000E+03 0. -1.
       11    1    1    2    0    0  0.19592296830E-02  0.12502000976E-02  0.44710398517E+00  0.44711031789E+00  0.51109989000E-03 0. -1.
     -623    1    1    2    0    0 -0.41908307915E-02 -0.80530960453E-02  0.48543747870E-04  0.17124000024E+03  0.17124000000E+03 0. -1.
       22    1    1    2    0    0  0.22316011574E-02  0.68028960419E-02  0.60884735979E+00  0.60888945381E+00  0.00000000000E+00 0. -1.
</event>
<event>
 5   1  0.2192208E+09  0.9118800E+02  0.7818608E-02  0.1180000E+00
       11   -1    0    0    0    0  0.00000000000E+00  0.00000000000E+00  0.10559998763E+01  0.10560000000E+01  0.51109989000E-03 0.  1.
     -623   -1    0    0    0    0  0.00000000000E+00  0.00000000000E+00  0.47855275298E-10  0.17124000000E+03  0.17124000000E+03 0. -1.
       11    1    1    2    0    0  0.69784074271E-02 -0.13683583149E-01  0.79676561606E+00  0.79691382644E+00  0.51109989000E-03 0.  1.
     -623    1    1    2    0    0 -0.88139966175E-02  0.17653331176E-01  0.18614133804E-03  0.17124000114E+03  0.17124000000E+03 0. -1.
       22    1    1    2    0    0  0.18355933850E-02 -0.39697564284E-02  0.25904862143E+00  0.25908553922E+00  0.00000000000E+00 0.  1.
</event>
<event>
 5   1  0.2192208E+09  0.9118800E+02  0.7818608E-02  0.1180000E+00
       11   -1    0    0    0    0  0.00000000000E+00  0.00000000000E+00  0.10559998763E+01  0.10560000000E+01  0.51109989000E-03 0.  1.
     -623   -1    0    0    0    0  0.00000000000E+00  0.00000000000E+00  0.47855275298E-10  0.17124000000E+03  0.17124000000E+03 0. -1.
       11    1    1    2    0    0 -0.11394539779E-02 -0.10016763732E-02  0.98813325672E+00  0.98813455358E+00  0.51109989000E-03 0.  1.
     -623    1    1    2    0    0 -0.11581718406E-04 -0.16380411131E-04  0.18572540897E-04  0.17124000000E+03  0.17124000000E+03 0. -1.
       22    1    1    2    0    0  0.11510356964E-02  0.10180567844E-02  0.67848054998E-01  0.67865454318E-01  0.00000000000E+00 0.  1.
</event>
<event>
 5   1  0.2192208E+09  0.9118800E+02  0.7818608E-02  0.1180000E+00
       11   -1    0    0    0    0  0.00000000000E+00  0.00000000000E+00  0.10559998763E+01  0.10560000000E+01  0.51109989000E-03 0. -1.
     -623   -1    0    0    0    0  0.00000000000E+00  0.00000000000E+00  0.47855275298E-10  0.17124000000E+03  0.17124000000E+03 0. -1.
       11    1    1    2    0    0  0.19797549328E-01  0.66637952182E-02  0.83279468642E+00  0.83305678083E+00  0.51109989000E-03 0. -1.
     -623    1    1    2    0    0 -0.23609913361E-01 -0.91749418265E-02  0.31058806516E-03  0.17124000187E+03  0.17124000000E+03 0. -1.
       22    1    1    2    0    0  0.38123640256E-02  0.25111466052E-02  0.22289460152E+00  0.22294134512E+00  0.00000000000E+00 0.  1.
</event>
<event>
 5   1  0.2192208E+09  0.9118800E+02  0.7818608E-02  0.1180000E+00
       11   -1    0    0    0    0  0.00000000000E+00  0.00000000000E+00  0.10559998763E+01  0.10560000000E+01  0.51109989000E-03 0.  1.
     -623   -1    0    0    0    0  0.00000000000E+00  0.00000000000E+00  0.47855275298E-10  0.17124000000E+03  0.17124000000E+03 0.  1.
       11    1    1    2    0    0 -0.47126665800E-02  0.60402623597E-02  0.60829957084E+00  0.60834802794E+00  0.51109989000E-03 0.  1.
     -623    1    1    2    0    0  0.21069773302E-03 -0.61085804471E-03  0.10390159166E-03  0.17124000000E+03  0.17124000000E+03 0.  1.
       22    1    1    2    0    0  0.45019688461E-02 -0.54294043125E-02  0.44759640821E+00  0.44765197509E+00  0.00000000000E+00 0. -1.
</event>
<event>
 5   1  0.2192208E+09  0.9118800E+02  0.7818608E-02  0.1180000E+00
       11   -1    0    0    0    0  0.00000000000E+00  0.00000000000E+00  0.10559998763E+01  0.10560000000E+01  0.51109989000E-03 0.  1.
     -623   -1    0    0    0    0  0.00000000000E+00  0.00000000000E+00  0.47855275298E-10  0.17124000000E+03  0.17124000000E+03 0. -1.
       11    1    1    2    0    0  0.72264828362E-02 -0.35021563118E-02  0.52986017642E+00  0.52992127239E+00  0.51109989000E-03 0.  1.
     -623    1    1    2    0    0 -0.13422889258E-01  0.96392432779E-02  0.13406373366E-03  0.17124000080E+03  0.17124000000E+03 0. -1.
       22    1    1    2    0    0  0.61964075446E-02 -0.61370877725E-02  0.52600572454E+00  0.52607801852E+00  0.00000000000E+00 0.  1.
</event>
<event>
 5   1  0.2192208E+09  0.9118800E+02  0.7818608E-02  0.1180000E+00
       11   -1    0    0    0    0  0.00000000000E+00  0.00000000000E+00  0.10559998763E+01  0.10560000000E+01  0.51109989000E-03 0.  1.
     -623   -1    0    0    0    0  0.00000000000E+00  0.00000000000E+00  0.47855275298E-10  0.17124000000E+03  0.17124000000E+03 0. -1.
       11    1    1    2    0    0  0.17029691464E-01  0.17786400783E-01  0.10020347462E+01  0.10023373984E+01  0.51109989000E-03 0.  1.
     -623    1    1    2    0    0 -0.18784704687E-01 -0.19533424429E-01  0.36184239404E-03  0.17124000214E+03  0.17124000000E+03 0. -1.
       22    1    1    2    0    0  0.17550132883E-02  0.17470237147E-02  0.53603291469E-01  0.53660460488E-01  0.00000000000E+00 0.  1.
</event>
<event>
 5   1  0.2192208E+09  0.9118800E+02  0.7818608E-02  0.1180000E+00
       11   -1    0    0    0    0  0.00000000000E+00  0.00000000000E+00  0.10559998763E+01  0.10560000000E+01  0.51109989000E-03 0. -1.
     -623   -1    0    0    0    0  0.00000000000E+00  0.00000000000E+00  0.47855275298E-10  0.17124000000E+03  0.17124000000E+03 0. -1.
       11    1    1    2    0    0 -0.71995860320E-02 -0.12396479063E-01  0.88374096990E+00  0.88385738094E+00  0.51109989000E-03 0. -1.
     -623    1    1    2    0    0  0.85151003404E-02  0.14694289617E-01  0.13749344489E-03  0.17124000084E+03  0.17124000000E+03 0. -1.
       22    1    1    2    0    0 -0.13155214799E-02 -0.22978229292E-02  0.17212230227E+00  0.17214266620E+00  0.00000000000E+00 0.  1.
</event>
<event>
 5   1  0.2192208E+09  0.9118800E+02  0.7818608E-02  0.1180000E+00
       11   -1    0    0    0    0  0.00000000000E+00  0.00000000000E+00  0.10559998763E+01  0.10560000000E+01  0.51109989000E-03 0. -1.
     -623   -1    0    0    0    0  0.00000000000E+00  0.00000000000E+00  0.47855275298E-10  0.17124000000E+03  0.17124000000E+03 0. -1.
       11    1    1    2    0    0 -0.22352917059E-02  0.18219089688E-02  0.99090071828E+00  0.99090504620E+00  0.51109989000E-03 0. -1.
     -623    1    1    2    0    0  0.78439178000E-03 -0.21006076728E-03  0.40341663035E-04  0.17124000000E+03  0.17124000000E+03 0. -1.
       22    1    1    2    0    0  0.14508999189E-02 -0.16118481996E-02  0.65058825900E-01  0.65094961347E-01  0.00000000000E+00 0.  1.
</event>
<event>
 5   1  0.2192208E+09  0.9118800E+02  0.7818608E-02  0.1180000E+00
       11   -1    0    0    0    0  0.00000000000E+00  0.00000000000E+00  0.10559998763E+01  0.10560000000E+01  0.51109989000E-03 0.  1.
     -623   -1    0    0    0    0  0.00000000000E+00  0.00000000000E+00  0.47855275298E-10  0.17124000000E+03  0.17124000000E+03 0. -1.
       11    1    1    2    0    0  0.15778335307E-01  0.38993798677E-01  0.99760826932E+00  0.99849486350E+00  0.51109989000E-03 0.  1.
     -623    1    1    2    0    0 -0.16610849286E-01 -0.41158857314E-01  0.93903221752E-03  0.17124000575E+03  0.17124000000E+03 0. -1.
       22    1    1    2    0    0  0.83250867678E-03  0.21650455002E-02  0.57452238075E-01  0.57499044796E-01  0.00000000000E+00 0. -1.
</event>
<event>
 5   1  0.2192208E+09  0.9118800E+02  0.7818608E-02  0.1180000E+00
       11   -1    0    0    0    0  0.00000000000E+00  0.00000000000E+00  0.10559998763E+01  0.10560000000E+01  0.51109989000E-03 0. -1.
     -623   -1    0    0    0    0  0.00000000000E+00  0.00000000000E+00  0.47855275298E-10  0.17124000000E+03  0.17124000000E+03 0.  1.
       11    1    1    2    0    0 -0.99084239102E-02  0.92083713876E-02  0.40159628437E+00  0.40182434945E+00  0.51109989000E-03 0. -1.
     -623    1    1    2    0    0  0.21748468330E-01 -0.22414718995E-01  0.47128635756E-03  0.17124000285E+03  0.17124000000E+03 0.  1.
       22    1    1    2    0    0 -0.11840043096E-01  0.13206346244E-01  0.65393224138E+00  0.65417273753E+00  0.00000000000E+00 0.  1.
</event>
<event>
 5   1  0.2192208E+09  0.9118800E+02  0.7818608E-02  0.1180000E+00
       11   -1    0    0    0    0  0.00000000000E+00  0.00000000000E+00  0.10559998763E+01  0.10560000000E+01  0.51109989000E-03 0.  1.
     -623   -1    0    0    0    0  0.00000000000E+00  0.00000000000E+00  0.47855275298E-10  0.17124000000E+03  0.17124000000E+03 0.  1.
       11    1    1    2    0    0  0.25426273233E-02  0.96848795918E-02  0.87025696820E+00  0.87031472110E+00  0.51109989000E-03 0.  1.
     -623    1    1    2    0    0 -0.53844201465E-02 -0.12205130658E-01  0.97002289094E-04  0.17124000052E+03  0.17124000000E+03 0.  1.
       22    1    1    2    0    0  0.28417928237E-02  0.25202510668E-02  0.18564590597E+00  0.18568475935E+00  0.00000000000E+00 0.  1.
</event>
<event>
 5   1  0.2192208E+09  0.9118800E+02  0.7818608E-02  0.1180000E+00
       11   -1    0    0    0    0  0.00000000000E+00  0.00000000000E+00  0.10559998763E+01  0.10560000000E+01  0.51109989000E-03 0.  1.
     -623   -1    0    0    0    0  0.00000000000E+00  0.00000000000E+00  0.47855275298E-10  0.17124000000E+03  0.17124000000E+03 0.  1.
       11    1    1    2    0    0 -0.10771682081E-02  0.14361678545E-02  0.99021488045E+00  0.99021663971E+00  0.51109989000E-03 0.  1.
     -623    1    1    2    0    0  0.12085406448E-02 -0.22549034812E-02  0.68810797882E-05  0.17124000002E+03  0.17124000000E+03 0.  1.
       22    1    1    2    0    0 -0.13137259388E-03  0.81873592008E-03  0.65778252219E-01  0.65783478566E-01  0.00000000000E+00 0.  1.
</event>
<event>
 5   1  0.2192208E+09  0.9118800E+02  0.7818608E-02  0.1180000E+00
       11   -1    0    0    0    0  0.00000000000E+00  0.00000000000E+00  0.10559998763E+01  0.10560000000E+01  0.51109989000E-03 0. -1.
     -623   -1    0    0    0    0  0.00000000000E+00  0.00000000000E+00  0.47855275298E-10  0.17124000000E+03  0.17124000000E+03 0.  1.
       11    1    1    2    0    0  0.40548252159E-01  0.55812612794E-03  0.43336995487E+00  0.43526342744E+00  0.51109989000E-03 0. -1.
     -623    1    1    2    0    0 -0.16257133677E-01  0.28586588853E-01  0.30571126475E-02  0.17124000319E+03  0.17124000000E+03 0.  1.
       22    1    1    2    0    0 -0.24291118480E-01 -0.29144714983E-01  0.61957280892E+00  0.62073338754E+00  0.00000000000E+00 0. -1.
</event>
<event>
 5   1  0.2192208E+09  0.9118800E+02  0.7818608E-02  0.1180000E+00
       11   -1    0    0    0    0  0.00000000000E+00  0.00000000000E+00  0.10559998763E+01  0.10560000000E+01  0.51109989000E-03 0. -1.
     -623   -1    0    0    0    0  0.00000000000E+00  0.00000000000E+00  0.47855275298E-10  0.17124000000E+03  0.17124000000E+03 0.  1.
       11    1    1    2    0    0  0.41234979956E-02  0.79271734892E-02  0.10041886152E+01  0.10042284997E+01  0.51109989000E-03 0. -1.
     -623    1    1    2    0    0 -0.44396477514E-02 -0.85424557226E-02  0.44653131090E-04  0.17124000027E+03  0.17124000000E+03 0.  1.
       22    1    1    2    0    0  0.31614855960E-03  0.61527993162E-03  0.51766323462E-01  0.51770945173E-01  0.00000000000E+00 0.  1.
</event>
<event>
 5   1  0.2192208E+09  0.9118800E+02  0.7818608E-02  0.1180000E+00
       11   -1    0    0    0    0  0.00000000000E+00  0.00000000000E+00  0.10559998763E+01  0.10560000000E+01  0.51109989000E-03 0.  1.
     -623   -1    0    0    0    0  0.00000000000E+00  0.00000000000E+00  0.47855275298E-10  0.17124000000E+03  0.17124000000E+03 0.  1.
       11    1    1    2    0    0  0.10876100156E-02 -0.10322893610E-01  0.24396747861E+00  0.24418873207E+00  0.51109989000E-03 0.  1.
     -623    1    1    2    0    0  0.58349038365E-04 -0.50158425410E-03  0.29410829336E-03  0.17124000000E+03  0.17124000000E+03 0.  1.
       22    1    1    2    0    0 -0.11459590540E-02  0.10824477864E-01  0.81173829060E+00  0.81181126807E+00  0.00000000000E+00 0.  1.
</event>
<event>
 5   1  0.2192208E+09  0.9118800E+02  0.7818608E-02  0.1180000E+00
       11   -1    0    0    0    0  0.00000000000E+00  0.00000000000E+00  0.10559998763E+01  0.10560000000E+01  0.51109989000E-03 0.  1.
     -623   -1    0    0    0    0  0.00000000000E+00  0.00000000000E+00  0.47855275298E-10  0.17124000000E+03  0.17124000000E+03 0. -1.
       11    1    1    2    0    0 -0.12183728212E-01  0.13355992848E-01  0.85254519335E+00  0.85273700148E+00  0.51109989000E-03 0.  1.
     -623    1    1    2    0    0  0.15205179829E-01 -0.16316643851E-01  0.23716058378E-03  0.17124000145E+03  0.17124000000E+03 0. -1.
       22    1    1    2    0    0 -0.30214460097E-02  0.29606449860E-02  0.20321713310E+00  0.20326115649E+00  0.00000000000E+00 0. -1.
</event>
<event>
 5   1  0.2192208E+09  0.9118800E+02  0.7818608E-02  0.1180000E+00
       11   -1    0    0    0    0  0.00000000000E+00  0.00000000000E+00  0.10559998763E+01  0.10560000000E+01  0.51109989000E-03 0.  1.
     -623   -1    0    0    0    0  0.00000000000E+00  0.00000000000E+00  0.47855275298E-10  0.17124000000E+03  0.17124000000E+03 0. -1.
       11    1    1    2    0    0 -0.66177701497E-03  0.10283095589E-01  0.87581361132E+00  0.87587437627E+00  0.51109989000E-03 0.  1.
     -623    1    1    2    0    0  0.86817758948E-03 -0.12607743401E-01  0.76227191994E-04  0.17124000047E+03  0.17124000000E+03 0. -1.
       22    1    1    2    0    0 -0.20640085444E-03  0.23246518774E-02  0.18011037832E+00  0.18012549788E+00  0.00000000000E+00 0.  1.
</event>
<event>
 5   1  0.2192208E+09  0.9118800E+02  0.7818608E-02  0.1180000E+00
       11   -1    0    0    0    0  0.00000000000E+00  0.00000000000E+00  0.10559998763E+01  0.10560000000E+01  0.51109989000E-03 0.  1.
     -623   -1    0    0    0    0  0.00000000000E+00  0.00000000000E+00  0.47855275298E-10  0.17124000000E+03  0.17124000000E+03 0. -1.
       11    1    1    2    0    0 -0.20506994628E-01  0.22927946941E-01  0.90481729475E+00  0.90534017125E+00  0.51109989000E-03 0.  1.
     -623    1    1    2    0    0  0.23869736632E-01 -0.26598245647E-01  0.60874314597E-03  0.17124000373E+03  0.17124000000E+03 0. -1.
       22    1    1    2    0    0 -0.33627330184E-02  0.36702886934E-02  0.15057344116E+00  0.15065570077E+00  0.00000000000E+00 0.  1.
</event>
<event>
 5   1  0.2192208E+09  0.9118800E+02  0.7818608E-02  0.1180000E+00
       11   -1    0    0    0    0  0.00000000000E+00  0.00000000000E+00  0.10559998763E+01  0.10560000000E+01  0.51109989000E-03 0. -1.
     -623   -1    0    0    0    0  0.00000000000E+00  0.00000000000E+00  0.47855275298E-10  0.17124000000E+03  0.17124000000E+03 0. -1.
       11    1    1    2    0    0 -0.10648969569E-02  0.51049848956E-02  0.68877996334E+00  0.68879989401E+00  0.51109989000E-03 0. -1.
     -623    1    1    2    0    0  0.43647262418E-04  0.12351591262E-03  0.58453146972E-04  0.17124000000E+03  0.17124000000E+03 0. -1.
       22    1    1    2    0    0  0.10212496944E-02 -0.52285008086E-02  0.36716146291E+00  0.36720010896E+00  0.00000000000E+00 0. -1.
</event>
<event>
 5   1  0.2192208E+09  0.9118800E+02  0.7818608E-02  0.1180000E+00
       11   -1    0    0    0    0  0.00000000000E+00  0.00000000000E+00  0.10559998763E+01  0.10560000000E+01  0.51109989000E-03 0.  1.
     -623   -1    0    0    0    0  0.00000000000E+00  0.00000000000E+00  0.47855275298E-10  0.17124000000E+03  0.17124000000E+03 0. -1.
       11    1    1    2    0    0 -0.18515820363E-02  0.71977205196E-02  0.90808920363E+00  0.90811976000E+00  0.51109989000E-03 0.  1.
     -623    1    1    2    0    0  0.22509681863E-02 -0.88848905097E-02  0.40842206805E-04  0.17124000025E+03  0.17124000000E+03 0. -1.
       22    1    1    2    0    0 -0.39938603568E-03  0.16871695388E-02  0.14786977690E+00  0.14787994107E+00  0.00000000000E+00 0. -1.
</event>
<event>
 5   1  0.2192208E+09  0.9118800E+02  0.7818608E-02  0.1180000E+00
       11   -1    0    0    0    0  0.00000000000E+00  0.00000000000E+00  0.10559998763E+01  0.10560000000E+01  0.51109989000E-03 0.  1.
     -623   -1    0    0    0    0  0.00000000000E+00  0.00000000000E+00  0.47855275298E-10  0.17124000000E+03  0.17124000000E+03 0.  1.
       11    1    1    2    0    0  0.88711851662E-03 -0.95910126525E-02  0.52667384181E+00  0.52676215825E+00  0.51109989000E-03 0.  1.
     -623    1    1    2    0    0  0.76927199424E-03  0.19406520579E-01  0.18291647701E-03  0.17124000110E+03  0.17124000000E+03 0.  1.
       22    1    1    2    0    0 -0.16563905594E-02 -0.98155091507E-02  0.52914318471E+00  0.52923680689E+00  0.00000000000E+00 0.  1.
</event>
<event>
 5   1  0.2192208E+09  0.9118800E+02  0.7818608E-02  0.1180000E+00
       11   -1    0    0    0    0  0.00000000000E+00  0.00000000000E+00  0.10559998763E+01  0.10560000000E+01  0.51109989000E-03 0.  1.
     -623   -1    0    0    0    0  0.00000000000E+00  0.00000000000E+00  0.47855275298E-10  0.17124000000E+03  0.17124000000E+03 0. -1.
       11    1    1    2    0    0  0.43119199181E-03  0.12797269912E-02  0.95284204788E+00  0.95284314190E+00  0.51109989000E-03 0.  1.
     -623    1    1    2    0    0 -0.27221943409E-04 -0.15227636874E-03  0.79228986052E-05  0.17124000000E+03  0.17124000000E+03 0. -1.
       22    1    1    2    0    0 -0.40397004930E-03 -0.11274506275E-02  0.10314987048E+00  0.10315682292E+00  0.00000000000E+00 0. -1.
</event>
<event>
 5   1  0.2192208E+09  0.9118800E+02  0.7818608E-02  0.1180000E+00
       11   -1    0    0    0    0  0.00000000000E+00  0.00000000000E+00  0.10559998763E+01  0.10560000000E+01  0.51109989000E-03 0. -1.
     -623   -1    0    0    0    0  0.00000000000E+00  0.00000000000E+00  0.47855275298E-10  0.17124000000E+03  0.17124000000E+03 0.  1.
       11    1    1    2    0    0 -0.26810893131E-03 -0.79017440859E-03  0.99391091556E+00  0.99391139723E+00  0.51109989000E-03 0. -1.
     -623    1    1    2    0    0  0.55107786877E-04  0.14814350492E-02  0.45780102098E-05  0.17124000001E+03  0.17124000000E+03 0.  1.
       22    1    1    2    0    0  0.21300113794E-03 -0.69126081502E-03  0.62084507139E-01  0.62088720696E-01  0.00000000000E+00 0. -1.
</event>
<event>
 5   1  0.2192208E+09  0.9118800E+02  0.7818608E-02  0.1180000E+00
       11   -1    0    0    0    0  0.00000000000E+00  0.00000000000E+00  0.10559998763E+01  0.10560000000E+01  0.51109989000E-03 0.  1.
     -623   -1    0    0    0    0  0.00000000000E+00  0.00000000000E+00  0.47855275298E-10  0.17124000000E+03  0.17124000000E+03 0. -1.
       11    1    1    2    0    0 -0.15911011636E-03  0.47050548649E-02  0.92336768148E+00  0.92337982395E+00  0.51109989000E-03 0.  1.
     -623    1    1    2    0    0 -0.43880069088E-03 -0.10576528840E-03  0.93144153882E-04  0.17124000000E+03  0.17124000000E+03 0. -1.
       22    1    1    2    0    0  0.59791080664E-03 -0.45992895767E-02  0.13253904928E+00  0.13262017397E+00  0.00000000000E+00 0. -1.
</event>
<event>
 5   1  0.2192208E+09  0.9118800E+02  0.7818608E-02  0.1180000E+00
       11   -1    0    0    0    0  0.00000000000E+00  0.00000000000E+00  0.10559998763E+01  0.10560000000E+01  0.51109989000E-03 0.  1.
     -623   -1    0    0    0    0  0.00000000000E+00  0.00000000000E+00  0.47855275298E-10  0.17124000000E+03  0.17124000000E+03 0. -1.
       11    1    1    2    0    0 -0.46570659815E-02  0.35358511444E-03  0.96225658302E+00  0.96226805313E+00  0.51109989000E-03 0.  1.
     -623    1    1    2    0    0  0.44169178508E-02 -0.13676651010E-02  0.17202353893E-04  0.17124000006E+03  0.17124000000E+03 0. -1.
       22    1    1    2    0    0  0.24014807232E-03  0.10140800046E-02  0.93726104934E-01  0.93731898388E-01  0.00000000000E+00 0.  1.
</event>
<event>
 5   1  0.2192208E+09  0.9118800E+02  0.7818608E-02  0.1180000E+00
       11   -1    0    0    0    0  0.00000000000E+00  0.00000000000E+00  0.10559998763E+01  0.10560000000E+01  0.51109989000E-03 0.  1.
     -623   -1    0    0    0    0  0.00000000000E+00  0.00000000000E+00  0.47855275298E-10  0.17124000000E+03  0.17124000000E+03 0.  1.
       11    1    1    2    0    0  0.16772497235E-02  0.99278385963E-02  0.83334657531E+00  0.83340755393E+00  0.51109989000E-03 0.  1.
     -623    1    1    2    0    0 -0.12412907552E-02 -0.12592171386E-01  0.77695484781E-04  0.17124000047E+03  0.17124000000E+03 0.  1.
       22    1    1    2    0    0 -0.43595866447E-03  0.26643358725E-02  0.22257586409E+00  0.22259223710E+00  0.00000000000E+00 0. -1.
</event>
<event>
 5   1  0.2192208E+09  0.9118800E+02  0.7818608E-02  0.1180000E+00
       11   -1    0    0    0    0  0.00000000000E+00  0.00000000000E+00  0.10559998763E+01  0.10560000000E+01  0.51109989000E-03 0. -1.
     -623   -1    0    0    0    0  0.00000000000E+00  0.00000000000E+00  0.47855275298E-10  0.17124000000E+03  0.17124000000E+03 0.  1.
       11    1    1    2    0    0  0.27583710052E-02 -0.19657957563E-02  0.73615248004E+00  0.73616044994E+00  0.51109989000E-03 0. -1.
     -623    1    1    2    0    0 -0.44040363747E-02  0.53447162872E-02  0.30068962321E-04  0.17124000014E+03  0.17124000000E+03 0.  1.
       22    1    1    2    0    0  0.16456652317E-02 -0.33789203637E-02  0.31981729432E+00  0.31983937697E+00  0.00000000000E+00 0.  1.
</event>
<event>
 5   1  0.2192208E+09  0.9118800E+02  0.7818608E-02  0.1180000E+00
       11   -1    0    0    0    0  0.00000000000E+00  0.00000000000E+00  0.10559998763E+01  0.10560000000E+01  0.51109989000E-03 0.  1.
     -623   -1    0    0    0    0  0.00000000000E+00  0.00000000000E+00  0.47855275298E-10  0.17124000000E+03  0.17124000000E+03 0.  1.
       11    1    1    2    0    0 -0.46554306446E-02  0.72136057316E-02  0.14209410455E+00  0.14235415313E+00  0.51109989000E-03 0.  1.
     -623    1    1    2    0    0  0.21508819098E-02  0.24535732718E-02  0.31453441030E-03  0.17124000003E+03  0.17124000000E+03 0.  1.
       22    1    1    2    0    0  0.25045487349E-02 -0.96671790033E-02  0.91359123735E+00  0.91364581545E+00  0.00000000000E+00 0.  1.
</event>
<event>
 5   1  0.2192208E+09  0.9118800E+02  0.7818608E-02  0.1180000E+00
       11   -1    0    0    0    0  0.00000000000E+00  0.00000000000E+00  0.10559998763E+01  0.10560000000E+01  0.51109989000E-03 0. -1.
     -623   -1    0    0    0    0  0.00000000000E+00  0.00000000000E+00  0.47855275298E-10  0.17124000000E+03  0.17124000000E+03 0.  1.
       11    1    1    2    0    0  0.89394561324E-02  0.79517230056E-02  0.99236524992E+00  0.99243750143E+00  0.51109989000E-03 0. -1.
     -623    1    1    2    0    0 -0.94314471092E-02 -0.88230199357E-02  0.80491293429E-04  0.17124000049E+03  0.17124000000E+03 0.  1.
       22    1    1    2    0    0  0.49198900892E-03  0.87129508914E-03  0.63553914834E-01  0.63561791189E-01  0.00000000000E+00 0. -1.
</event>
<event>
 5   1  0.2192208E+09  0.9118800E+02  0.7818608E-02  0.1180000E+00
       11   -1    0    0    0    0  0.00000000000E+00  0.00000000000E+00  0.10559998763E+01  0.10560000000E+01  0.51109989000E-03 0. -1.
     -623   -1    0    0    0    0  0.00000000000E+00  0.00000000000E+00  0.47855275298E-10  0.17124000000E+03  0.17124000000E+03 0.  1.
       11    1    1    2    0    0  0.15034722869E-02 -0.12211023726E-02  0.94340798945E+00  0.94341011618E+00  0.51109989000E-03 0. -1.
     -623    1    1    2    0    0 -0.20521352880E-04  0.75137973792E-04  0.17602290237E-04  0.17124000000E+03  0.17124000000E+03 0.  1.
       22    1    1    2    0    0 -0.14829509337E-02  0.11459643974E-02  0.11257430372E+00  0.11258990290E+00  0.00000000000E+00 0. -1.
</event>
<event>
 5   1  0.2192208E+09  0.9118800E+02  0.7818608E-02  0.1180000E+00
       11   -1    0    0    0    0  0.00000000000E+00  0.00000000000E+00  0.10559998763E+01  0.10560000000E+01  0.51109989000E-03 0.  1.
     -623   -1    0    0    0    0  0.00000000000E+00  0.00000000000E+00  0.47855275298E-10  0.17124000000E+03  0.17124000000E+03 0.  1.
       11    1    1    2    0    0  0.10255578469E-03 -0.11682581026E-02  0.94785156807E+00  0.94785243137E+00  0.51109989000E-03 0.  1.
     -623    1    1    2    0    0 -0.33777898680E-04 -0.17934115747E-04  0.72669764253E-05  0.17124000000E+03  0.17124000000E+03 0.  1.
       22    1    1    2    0    0 -0.68777884783E-04  0.11861922190E-02  0.10814107973E+00  0.10814760703E+00  0.00000000000E+00 0.  1.
</event>
<event>
 5   1  0.2192208E+09  0.9118800E+02  0.7818608E-02  0.1180000E+00
       11   -1    0    0    0    0  0.00000000000E+00  0.00000000000E+00  0.10559998763E+01  0.10560000000E+01  0.51109989000E-03 0.  1.
     -623   -1    0    0    0    0  0.00000000000E+00  0.00000000000E+00  0.47855275298E-10  0.17124000000E+03  0.17124000000E+03 0. -1.
       11    1    1    2    0    0 -0.67117097713E-02 -0.10157336307E-01  0.94165597640E+00  0.94173481280E+00  0.51109989000E-03 0.  1.
     -623    1    1    2    0    0  0.74036802288E-02  0.11335836412E-01  0.87420969441E-04  0.17124000054E+03  0.17124000000E+03 0. -1.
       22    1    1    2    0    0 -0.69196833402E-03 -0.11784968536E-02  0.11425617615E+00  0.11426434905E+00  0.00000000000E+00 0.  1.
</event>
<event>
 5   1  0.2192208E+09  0.9118800E+02  0.7818608E-02  0.1180000E+00
       11   -1    0    0    0    0  0.00000000000E+00  0.00000000000E+00  0.10559998763E+01  0.10560000000E+01  0.51109989000E-03 0. -1.
     -623   -1    0    0    0    0  0.00000000000E+00  0.00000000000E+00  0.47855275298E-10  0.17124000000E+03  0.17124000000E+03 0. -1.
       11    1    1    2    0    0 -0.14510694553E-02 -0.18732582724E-02  0.89924370873E+00  0.89924697587E+00  0.51109989000E-03 0. -1.
     -623    1    1    2    0    0  0.98623229241E-04 -0.92191655083E-04  0.21300891046E-04  0.17124000000E+03  0.17124000000E+03 0. -1.
       22    1    1    2    0    0  0.13524462254E-02  0.19654499281E-02  0.15673487398E+00  0.15675303131E+00  0.00000000000E+00 0.  1.
</event>
<event>
 5   1  0.2192208E+09  0.9118800E+02  0.7818608E-02  0.1180000E+00
       11   -1    0    0    0    0  0.00000000000E+00  0.00000000000E+00  0.10559998763E+01  0.10560000000E+01  0.51109989000E-03 0.  1.
     -623   -1    0    0    0    0  0.00000000000E+00  0.00000000000E+00  0.47855275298E-10  0.17124000000E+03  0.17124000000E+03 0.  1.
       11    1    1    2    0    0 -0.26135995301E-02 -0.95168152050E-02  0.10016481612E+01  0.10016969106E+01  0.51109989000E-03 0.  1.
     -623    1    1    2    0    0  0.27050894901E-02  0.10086493125E-01  0.52009549076E-04  0.17124000032E+03  0.17124000000E+03 0.  1.
       22    1    1    2    0    0 -0.91491986465E-04 -0.56968547606E-03  0.54300496683E-01  0.54303562059E-01  0.00000000000E+00 0.  1.
</event>
<event>
 5   1  0.2192208E+09  0.9118800E+02  0.7818608E-02  0.1180000E+00
       11   -1    0    0    0    0  0.00000000000E+00  0.00000000000E+00  0.10559998763E+01  0.10560000000E+01  0.51109989000E-03 0.  1.
     -623   -1    0    0    0    0  0.00000000000E+00  0.00000000000E+00  0.47855275298E-10  0.17124000000E+03  0.17124000000E+03 0.  1.
       11    1    1    2    0    0 -0.97306110711E-03 -0.19068732772E-02  0.98974144231E+00  0.98974388953E+00  0.51109989000E-03 0.  1.
     -623    1    1    2    0    0 -0.25588462584E-04  0.35350407849E-03  0.28064364086E-04  0.17124000000E+03  0.17124000000E+03 0.  1.
       22    1    1    2    0    0  0.99864956983E-03  0.15533691968E-02  0.66230375334E-01  0.66256115746E-01  0.00000000000E+00 0.  1.
</event>
<event>
 5   1  0.2192208E+09  0.9118800E+02  0.7818608E-02  0.1180000E+00
       11   -1    0    0    0    0  0.00000000000E+00  0.00000000000E+00  0.10559998763E+01  0.10560000000E+01  0.51109989000E-03 0.  1.
     -623   -1    0    0    0    0  0.00000000000E+00  0.00000000000E+00  0.47855275298E-10  0.17124000000E+03  0.17124000000E+03 0.  1.
       11    1    1    2    0    0 -0.75303586128E-03 -0.63502104228E-02  0.77117939844E+00  0.77120608014E+00  0.51109989000E-03 0.  1.
     -623    1    1    2    0    0  0.69384777044E-03  0.93403860707E-02  0.42518384077E-04  0.17124000026E+03  0.17124000000E+03 0.  1.
       22    1    1    2    0    0  0.59188019292E-04 -0.29901766110E-02  0.28477806842E+00  0.28479377260E+00  0.00000000000E+00 0.  1.
</event>
<event>
 5   1  0.2192208E+09  0.9118800E+02  0.7818608E-02  0.1180000E+00
       11   -1    0    0    0    0  0.00000000000E+00  0.00000000000E+00  0.10559998763E+01  0.10560000000E+01  0.51109989000E-03 0.  1.
     -623   -1    0    0    0    0  0.00000000000E+00  0.00000000000E+00  0.47855275298E-10  0.17124000000E+03  0.17124000000E+03 0.  1.
       11    1    1    2    0    0 -0.29575291331E-03 -0.97919973133E-03  0.98912496440E+00  0.98912562535E+00  0.51109989000E-03 0.  1.
     -623    1    1    2    0    0 -0.12643719139E-03  0.21453123980E-02  0.12051430132E-04  0.17124000001E+03  0.17124000000E+03 0.  1.
       22    1    1    2    0    0  0.42219010922E-03 -0.11661127432E-02  0.66862898218E-01  0.66874398850E-01  0.00000000000E+00 0.  1.
</event>
<event>
 5   1  0.2192208E+09  0.9118800E+02  0.7818608E-02  0.1180000E+00
       11   -1    0    0    0    0  0.00000000000E+00  0.00000000000E+00  0.10559998763E+01  0.10560000000E+01  0.51109989000E-03 0.  1.
     -623   -1    0    0    0    0  0.00000000000E+00  0.00000000000E+00  0.47855275298E-10  0.17124000000E+03  0.17124000000E+03 0.  1.
       11    1    1    2    0    0  0.40788465495E-02  0.20732232130E-01  0.31826356839E+00  0.31896461030E+00  0.51109989000E-03 0.  1.
     -623    1    1    2    0    0 -0.75986911721E-02 -0.33320837825E-02  0.91495154633E-03  0.17124000020E+03  0.17124000000E+03 0.  1.
       22    1    1    2    0    0  0.35198446215E-02 -0.17400148348E-01  0.73682135628E+00  0.73703518609E+00  0.00000000000E+00 0.  1.
</event>
<event>
 5   1  0.2192208E+09  0.9118800E+02  0.7818608E-02  0.1180000E+00
       11   -1    0    0    0    0  0.00000000000E+00  0.00000000000E+00  0.10559998763E+01  0.10560000000E+01  0.51109989000E-03 0. -1.
     -623   -1    0    0    0    0  0.00000000000E+00  0.00000000000E+00  0.47855275298E-10  0.17124000000E+03  0.17124000000E+03 0.  1.
       11    1    1    2    0    0  0.11481629476E-01  0.37565271248E-02  0.90943340531E+00  0.90951378177E+00  0.51109989000E-03 0. -1.
     -623    1    1    2    0    0 -0.11675797907E-01 -0.60376090134E-02  0.98647669994E-04  0.17124000050E+03  0.17124000000E+03 0.  1.
       22    1    1    2    0    0  0.19416846953E-03  0.22810819083E-02  0.14646782683E+00  0.14648571716E+00  0.00000000000E+00 0.  1.
</event>
<event>
 5   1  0.2192208E+09  0.9118800E+02  0.7818608E-02  0.1180000E+00
       11   -1    0    0    0    0  0.00000000000E+00  0.00000000000E+00  0.10559998763E+01  0.10560000000E+01  0.51109989000E-03 0.  1.
     -623   -1    0    0    0    0  0.00000000000E+00  0.00000000000E+00  0.47855275298E-10  0.17124000000E+03  0.17124000000E+03 0. -1.
       11    1    1    2    0    0  0.45763388943E-03 -0.19760642805E-02  0.88937973626E+00  0.88938219610E+00  0.51109989000E-03 0.  1.
     -623    1    1    2    0    0  0.38294137486E-03 -0.17227839586E-02  0.45527704001E-04  0.17124000001E+03  0.17124000000E+03 0. -1.
       22    1    1    2    0    0 -0.84057526175E-03  0.36988482278E-02  0.16657460541E+00  0.16661778780E+00  0.00000000000E+00 0.  1.
</event>
<event>
 5   1  0.2192208E+09  0.9118800E+02  0.7818608E-02  0.1180000E+00
       11   -1    0    0    0    0  0.00000000000E+00  0.00000000000E+00  0.10559998763E+01  0.10560000000E+01  0.51109989000E-03 0. -1.
     -623   -1    0    0    0    0  0.00000000000E+00  0.00000000000E+00  0.47855275298E-10  0.17124000000E+03  0.17124000000E+03 0. -1.
       11    1    1    2    0    0 -0.90507750563E-04  0.12104639962E-02  0.99734129289E+00  0.99734216252E+00  0.51109989000E-03 0. -1.
     -623    1    1    2    0    0  0.96722808798E-03  0.29475361035E-03  0.26619249516E-04  0.17124000000E+03  0.17124000000E+03 0. -1.
       22    1    1    2    0    0 -0.87672033783E-03 -0.15052176066E-02  0.58631964672E-01  0.58657834941E-01  0.00000000000E+00 0. -1.
</event>
<event>
 5   1  0.2192208E+09  0.9118800E+02  0.7818608E-02  0.1180000E+00
       11   -1    0    0    0    0  0.00000000000E+00  0.00000000000E+00  0.10559998763E+01  0.10560000000E+01  0.51109989000E-03 0.  1.
     -623   -1    0    0    0    0  0.00000000000E+00  0.00000000000E+00  0.47855275298E-10  0.17124000000E+03  0.17124000000E+03 0.  1.
       11    1    1    2    0    0  0.19837045668E-01  0.40407092804E-01  0.99190333621E+00  0.99292433304E+00  0.51109989000E-03 0.  1.
     -623    1    1    2    0    0 -0.21867055636E-01 -0.43357530146E-01  0.11295270265E-02  0.17124000689E+03  0.17124000000E+03 0.  1.
       22    1    1    2    0    0  0.20300099580E-02  0.29504373214E-02  0.62967012626E-01  0.63068777536E-01  0.00000000000E+00 0. -1.
</event>
<event>
 5   1  0.2192208E+09  0.9118800E+02  0.7818608E-02  0.1180000E+00
       11   -1    0    0    0    0  0.00000000000E+00  0.00000000000E+00  0.10559998763E+01  0.10560000000E+01  0.51109989000E-03 0.  1.
     -623   -1    0    0    0    0  0.00000000000E+00  0.00000000000E+00  0.47855275298E-10  0.17124000000E+03  0.17124000000E+03 0. -1.
       11    1    1    2    0    0 -0.15304507563E-02  0.89467380065E-02  0.66508332784E+00  0.66514545822E+00  0.51109989000E-03 0.  1.
     -623    1    1    2    0    0  0.47333679607E-03  0.42741922397E-03  0.17586787281E-03  0.17124000000E+03  0.17124000000E+03 0. -1.
       22    1    1    2    0    0  0.10571139605E-02 -0.93741572302E-02  0.39074068011E+00  0.39085453996E+00  0.00000000000E+00 0. -1.
</event>
<event>
 5   1  0.2192208E+09  0.9118800E+02  0.7818608E-02  0.1180000E+00
       11   -1    0    0    0    0  0.00000000000E+00  0.00000000000E+00  0.10559998763E+01  0.10560000000E+01  0.51109989000E-03 0. -1.
     -623   -1    0    0    0    0  0.00000000000E+00  0.00000000000E+00  0.47855275298E-10  0.17124000000E+03  0.17124000000E+03 0. -1.
       11    1    1    2    0    0  0.80229728196E-02  0.12077461174E-01  0.49942449653E+00  0.49963518903E+00  0.51109989000E-03 0. -1.
     -623    1    1    2    0    0 -0.38968300060E-04  0.48409239378E-03  0.40969892800E-03  0.17124000000E+03  0.17124000000E+03 0. -1.
       22    1    1    2    0    0 -0.79840045195E-02 -0.12561553568E-01  0.55616568165E+00  0.55636481053E+00  0.00000000000E+00 0. -1.
</event>
<event>
 5   1  0.2192208E+09  0.9118800E+02  0.7818608E-02  0.1180000E+00
       11   -1    0    0    0    0  0.00000000000E+00  0.00000000000E+00  0.10559998763E+01  0.10560000000E+01  0.51109989000E-03 0.  1.
     -623   -1    0    0    0    0  0.00000000000E+00  0.00000000000E+00  0.47855275298E-10  0.17124000000E+03  0.17124000000E+03 0.  1.
       11    1    1    2    0    0  0.17408493705E-02 -0.22769996736E-01  0.95942522558E+00  0.95969710222E+00  0.51109989000E-03 0.  1.
     -623    1    1    2    0    0 -0.21000934896E-02  0.24261829193E-01  0.28571093871E-03  0.17124000173E+03  0.17124000000E+03 0.  1.
       22    1    1    2    0    0  0.35924407027E-03 -0.14918318941E-02  0.96288915325E-01  0.96301141391E-01  0.00000000000E+00 0. -1.
</event>
<event>
 5   1  0.2192208E+09  0.9118800E+02  0.7818608E-02  0.1180000E+00
       11   -1    0    0    0    0  0.00000000000E+00  0.00000000000E+00  0.10559998763E+01  0.10560000000E+01  0.51109989000E-03 0. -1.
     -623   -1    0    0    0    0  0.00000000000E+00  0.00000000000E+00  0.47855275298E-10  0.17124000000E+03  0.17124000000E+03 0.  1.
       11    1    1    2    0    0 -0.82130432433E-03  0.56936099763E-03  0.99960382530E+00  0.99960445551E+00  0.51109989000E-03 0. -1.
     -623    1    1    2    0    0  0.39422456458E-04  0.49836374663E-03  0.16037047733E-04  0.17124000000E+03  0.17124000000E+03 0.  1.
       22    1    1    2    0    0  0.78188186709E-03 -0.10677247541E-02  0.56380034887E-01  0.56395564624E-01  0.00000000000E+00 0. -1.
</event>
<event>
 5   1  0.2192208E+09  0.9118800E+02  0.7818608E-02  0.1180000E+00
       11   -1    0    0    0    0  0.00000000000E+00  0.00000000000E+00  0.10559998763E+01  0.10560000000E+01  0.51109989000E-03 0.  1.
     -623   -1    0    0    0    0  0.00000000000E+00  0.00000000000E+00  0.47855275298E-10  0.17124000000E+03  0.17124000000E+03 0. -1.
       11    1    1    2    0    0 -0.71824756489E-03 -0.27606663085E-01  0.99335371751E+00  0.99373764800E+00  0.51109989000E-03 0.  1.
     -623    1    1    2    0    0  0.41080864954E-03  0.29228200324E-01  0.40818135396E-03  0.17124000250E+03  0.17124000000E+03 0. -1.
       22    1    1    2    0    0  0.30743896919E-03 -0.16215334085E-02  0.62237839178E-01  0.62259718236E-01  0.00000000000E+00 0. -1.
</event>
<event>
 5   1  0.2192208E+09  0.9118800E+02  0.7818608E-02  0.1180000E+00
       11   -1    0    0    0    0  0.00000000000E+00  0.00000000000E+00  0.10559998763E+01  0.10560000000E+01  0.51109989000E-03 0. -1.
     -623   -1    0    0    0    0  0.00000000000E+00  0.00000000000E+00  0.47855275298E-10  0.17124000000E+03  0.17124000000E+03 0.  1.
       11    1    1    2    0    0  0.10493813197E-02  0.44837974892E-02  0.95777821140E+00  0.95778941793E+00  0.51109989000E-03 0. -1.
     -623    1    1    2    0    0 -0.95307939322E-03 -0.56299845290E-02  0.17913955916E-04  0.17124000010E+03  0.17124000000E+03 0.  1.
       22    1    1    2    0    0 -0.96301928359E-04  0.11461870286E-02  0.98203748933E-01  0.98210484793E-01  0.00000000000E+00 0. -1.
</event>
<event>
 5   1  0.2192208E+09  0.9118800E+02  0.7818608E-02  0.1180000E+00
       11   -1    0    0    0    0  0.00000000000E+00  0.00000000000E+00  0.10559998763E+01  0.10560000000E+01  0.51109989000E-03 0. -1.
     -623   -1    0    0    0    0  0.00000000000E+00  0.00000000000E+00  0.47855275298E-10  0.17124000000E+03  0.17124000000E+03 0.  1.
       11    1    1    2    0    0 -0.68316927028E-02  0.49106749518E-02  0.96303785569E+00  0.96307474241E+00  0.51109989000E-03 0. -1.
     -623    1    1    2    0    0  0.60543161094E-02 -0.36639154042E-02  0.48525440762E-04  0.17124000015E+03  0.17124000000E+03 0.  1.
       22    1    1    2    0    0  0.77737669646E-03 -0.12467596100E-02  0.92913477251E-01  0.92925093376E-01  0.00000000000E+00 0.  1.
</event>
<event>
 5   1  0.2192208E+09  0.9118800E+02  0.7818608E-02  0.1180000E+00
       11   -1    0    0    0    0  0.00000000000E+00  0.00000000000E+00  0.10559998763E+01  0.10560000000E+01  0.51109989000E-03 0.  1.
     -623   -1    0    0    0    0  0.00000000000E+00  0.00000000000E+00  0.47855275298E-10  0.17124000000E+03  0.17124000000E+03 0. -1.
       11    1    1    2    0    0  0.10110019614E-01  0.56414540788E-02  0.99637261904E+00  0.99644001109E+00  0.51109989000E-03 0.  1.
     -623    1    1    2    0    0 -0.96302438634E-02 -0.65474396053E-02  0.76488096031E-04  0.17124000040E+03  0.17124000000E+03 0. -1.
       22    1    1    2    0    0 -0.47977566071E-03  0.90598558761E-03  0.59550779079E-01  0.59559602781E-01  0.00000000000E+00 0. -1.
</event>
<event>
 5   1  0.2192208E+09  0.9118800E+02  0.7818608E-02  0.1180000E+00
       11   -1    0    0    0    0  0.00000000000E+00  0.00000000000E+00  0.10559998763E+01  0.10560000000E+01  0.51109989000E-03 0. -1.
     -623   -1    0    0    0    0  0.00000000000E+00  0.00000000000E+00  0.47855275298E-10  0.17124000000E+03  0.17124000000E+03 0.  1.
       11    1    1    2    0    0  0.96115724365E-04 -0.13942398798E-02  0.95190137569E+00  0.95190253882E+00  0.51109989000E-03 0. -1.
     -623    1    1    2    0    0  0.14584067001E-04  0.35631240341E-04  0.99645471479E-05  0.17124000000E+03  0.17124000000E+03 0.  1.
       22    1    1    2    0    0 -0.11069979205E-03  0.13586086378E-02  0.10408858594E+00  0.10409751099E+00  0.00000000000E+00 0. -1.
</event>
<event>
 5   1  0.2192208E+09  0.9118800E+02  0.7818608E-02  0.1180000E+00
       11   -1    0    0    0    0  0.00000000000E+00  0.00000000000E+00  0.10559998763E+01  0.10560000000E+01  0.51109989000E-03 0. -1.
     -623   -1    0    0    0    0  0.00000000000E+00  0.00000000000E+00  0.47855275298E-10  0.17124000000E+03  0.17124000000E+03 0.  1.
       11    1    1    2    0    0 -0.23084541016E-02 -0.33212095816E-02  0.77719543110E+00  0.77720612372E+00  0.51109989000E-03 0. -1.
     -623    1    1    2    0    0  0.99372573009E-05 -0.15779347074E-03  0.41752691637E-04  0.17124000000E+03  0.17124000000E+03 0.  1.
       22    1    1    2    0    0  0.22985168442E-02  0.34790030539E-02  0.27876270267E+00  0.27879388631E+00  0.00000000000E+00 0.  1.
</event>
<event>
 5   1  0.2192208E+09  0.9118800E+02  0.7818608E-02  0.1180000E+00
       11   -1    0    0    0    0  0.00000000000E+00  0.00000000000E+00  0.10559998763E+01  0.10560000000E+01  0.51109989000E-03 0.  1.
     -623   -1    0    0    0    0  0.00000000000E+00  0.00000000000E+00  0.47855275298E-10  0.17124000000E+03  0.17124000000E+03 0.  1.
       11    1    1    2    0    0  0.49233011985E-02  0.38241354601E-01  0.84623138552E+00  0.84710947294E+00  0.51109989000E-03 0.  1.
     -623    1    1    2    0    0 -0.60012414810E-02 -0.47882117272E-01  0.11101484530E-02  0.17124000680E+03  0.17124000000E+03 0.  1.
       22    1    1    2    0    0  0.10779413277E-02  0.96407710114E-02  0.20865852613E+00  0.20888390783E+00  0.00000000000E+00 0.  1.
</event>
<event>
 5   1  0.2192208E+09  0.9118800E+02  0.7818608E-02  0.1180000E+00
       11   -1    0    0    0    0  0.00000000000E+00  0.00000000000E+00  0.10559998763E+01  0.10560000000E+01  0.51109989000E-03 0.  1.
     -623   -1    0    0    0    0  0.00000000000E+00  0.00000000000E+00  0.47855275298E-10  0.17124000000E+03  0.17124000000E+03 0. -1.
       11    1    1    2    0    0 -0.81497773723E-02 -0.17363512289E-02  0.25571351660E+00  0.25584975588E+00  0.51109989000E-03 0.  1.
     -623    1    1    2    0    0  0.51131161868E-02  0.19180574023E-01  0.33320537320E-03  0.17124000115E+03  0.17124000000E+03 0. -1.
       22    1    1    2    0    0  0.30366611727E-02 -0.17444222843E-01  0.79995315705E+00  0.80014909591E+00  0.00000000000E+00 0.  1.
</event>
<event>
 5   1  0.2192208E+09  0.9118800E+02  0.7818608E-02  0.1180000E+00
       11   -1    0    0    0    0  0.00000000000E+00  0.00000000000E+00  0.10559998763E+01  0.10560000000E+01  0.51109989000E-03 0.  1.
     -623   -1    0    0    0    0  0.00000000000E+00  0.00000000000E+00  0.47855275298E-10  0.17124000000E+03  0.17124000000E+03 0.  1.
       11    1    1    2    0    0  0.11164909357E-02  0.51797086812E-02  0.28594306842E+00  0.28599261448E+00  0.51109989000E-03 0.  1.
     -623    1    1    2    0    0 -0.13431533651E-02 -0.16664375707E-01  0.13592376946E-03  0.17124000082E+03  0.17124000000E+03 0.  1.
       22    1    1    2    0    0  0.22666232869E-03  0.11484665776E-01  0.76992080499E+00  0.77000649016E+00  0.00000000000E+00 0.  1.
</event>
<event>
 5   1  0.2192208E+09  0.9118800E+02  0.7818608E-02  0.1180000E+00
       11   -1    0    0    0    0  0.00000000000E+00  0.00000000000E+00  0.10559998763E+01  0.10560000000E+01  0.51109989000E-03 0. -1.
     -623   -1    0    0    0    0  0.00000000000E+00  0.00000000000E+00  0.47855275298E-10  0.17124000000E+03  0.17124000000E+03 0. -1.
       11    1    1    2    0    0 -0.99706729821E-03  0.42259846197E-02  0.76148817179E+00  0.76150072231E+00  0.51109989000E-03 0. -1.
     -623    1    1    2    0    0 -0.22932574126E-03  0.12603265539E-03  0.47139063756E-04  0.17124000000E+03  0.17124000000E+03 0. -1.
       22    1    1    2    0    0  0.12263930401E-02 -0.43520172755E-02  0.29446456862E+00  0.29449928059E+00  0.00000000000E+00 0. -1.
</event>
<event>
 5   1  0.2192208E+09  0.9118800E+02  0.7818608E-02  0.1180000E+00
       11   -1    0    0    0    0  0.00000000000E+00  0.00000000000E+00  0.10559998763E+01  0.10560000000E+01  0.51109989000E-03 0.  1.
     -623   -1    0    0    0    0  0.00000000000E+00  0.00000000000E+00  0.47855275298E-10  0.17124000000E+03  0.17124000000E+03 0. -1.
       11    1    1    2    0    0 -0.13471694808E-02 -0.89114524001E-03  0.98385721077E+00  0.98385866943E+00  0.51109989000E-03 0.  1.
     -623    1    1    2    0    0  0.93334271958E-03  0.19469863559E-04  0.77909576155E-05  0.17124000000E+03  0.17124000000E+03 0. -1.
       22    1    1    2    0    0  0.41382676061E-03  0.87167537644E-03  0.72134875342E-01  0.72141328731E-01  0.00000000000E+00 0. -1.
</event>
<event>
 5   1  0.2192208E+09  0.9118800E+02  0.7818608E-02  0.1180000E+00
       11   -1    0    0    0    0  0.00000000000E+00  0.00000000000E+00  0.10559998763E+01  0.10560000000E+01  0.51109989000E-03 0.  1.
     -623   -1    0    0    0    0  0.00000000000E+00  0.00000000000E+00  0.47855275298E-10  0.17124000000E+03  0.17124000000E+03 0.  1.
       11    1    1    2    0    0 -0.77998127930E-03 -0.86043626943E-03  0.96448192361E+00  0.96448275822E+00  0.51109989000E-03 0.  1.
     -623    1    1    2    0    0 -0.30471376602E-03 -0.25613675479E-03  0.13951976456E-04  0.17124000000E+03  0.17124000000E+03 0.  1.
       22    1    1    2    0    0  0.10846950415E-02  0.11165730210E-02  0.91503987623E-01  0.91517228157E-01  0.00000000000E+00 0.  1.
</event>
<event>
 5   1  0.2192208E+09  0.9118800E+02  0.7818608E-02  0.1180000E+00
       11   -1    0    0    0    0  0.00000000000E+00  0.00000000000E+00  0.10559998763E+01  0.10560000000E+01  0.51109989000E-03 0. -1.
     -623   -1    0    0    0    0  0.00000000000E+00  0.00000000000E+00  0.47855275298E-10  0.17124000000E+03  0.17124000000E+03 0. -1.
       11    1    1    2    0    0  0.49409307431E-02  0.15801063568E-01  0.36801803629E+00  0.36839058439E+00  0.51109989000E-03 0. -1.
     -623    1    1    2    0    0 -0.30033954375E-02 -0.28723121623E-02  0.49676282096E-03  0.17124000005E+03  0.17124000000E+03 0. -1.
       22    1    1    2    0    0 -0.19375353059E-02 -0.12928751406E-01  0.68748507711E+00  0.68760936432E+00  0.00000000000E+00 0.  1.
</event>
<event>
 5   1  0.2192208E+09  0.9118800E+02  0.7818608E-02  0.1180000E+00
       11   -1    0    0    0    0  0.00000000000E+00  0.00000000000E+00  0.10559998763E+01  0.10560000000E+01  0.51109989000E-03 0. -1.
     -623   -1    0    0    0    0  0.00000000000E+00  0.00000000000E+00  0.47855275298E-10  0.17124000000E+03  0.17124000000E+03 0. -1.
       11    1    1    2    0    0  0.21662754343E-02  0.46442043242E-02  0.58547568858E+00  0.58549833861E+00  0.51109989000E-03 0. -1.
     -623    1    1    2    0    0 -0.13396601827E-02  0.38703925122E-02  0.10035166001E-03  0.17124000005E+03  0.17124000000E+03 0. -1.
       22    1    1    2    0    0 -0.82661525522E-03 -0.85145968260E-02  0.47042383329E+00  0.47050160954E+00  0.00000000000E+00 0.  1.
</event>
<event>
 5   1  0.2192208E+09  0.9118800E+02  0.7818608E-02  0.1180000E+00
       11   -1    0    0    0    0  0.00000000000E+00  0.00000000000E+00  0.10559998763E+01  0.10560000000E+01  0.51109989000E-03 0.  1.
     -623   -1    0    0    0    0  0.00000000000E+00  0.00000000000E+00  0.47855275298E-10  0.17124000000E+03  0.17124000000E+03 0. -1.
       11    1    1    2    0    0  0.23905863395E-04  0.12260196712E-01  0.93789073640E+00  0.93797100576E+00  0.51109989000E-03 0.  1.
     -623    1    1    2    0    0  0.12700950001E-04 -0.13648320067E-01  0.88858413453E-04  0.17124000054E+03  0.17124000000E+03 0. -1.
       22    1    1    2    0    0 -0.36606826603E-04  0.13881375469E-02  0.11802137953E+00  0.11802954838E+00  0.00000000000E+00 0. -1.
</event>
<event>
 5   1  0.2192208E+09  0.9118800E+02  0.7818608E-02  0.1180000E+00
       11   -1    0    0    0    0  0.00000000000E+00  0.00000000000E+00  0.10559998763E+01  0.10560000000E+01  0.51109989000E-03 0. -1.
     -623   -1    0    0    0    0  0.00000000000E+00  0.00000000000E+00  0.47855275298E-10  0.17124000000E+03  0.17124000000E+03 0.  1.
       11    1    1    2    0    0 -0.53889027014E-02 -0.56613300448E-02  0.76641130624E+00  0.76645133080E+00  0.51109989000E-03 0. -1.
     -623    1    1    2    0    0 -0.14584310733E-03 -0.10754310124E-03  0.15028925395E-03  0.17124000000E+03  0.17124000000E+03 0.  1.
       22    1    1    2    0    0  0.55347458086E-02  0.57688731459E-02  0.28943827935E+00  0.28954866752E+00  0.00000000000E+00 0. -1.
</event>
<event>
 5   1  0.2192208E+09  0.9118800E+02  0.7818608E-02  0.1180000E+00
       11   -1    0    0    0    0  0.00000000000E+00  0.00000000000E+00  0.10559998763E+01  0.10560000000E+01  0.51109989000E-03 0.  1.
     -623   -1    0    0    0    0  0.00000000000E+00  0.00000000000E+00  0.47855275298E-10  0.17124000000E+03  0.17124000000E+03 0.  1.
       11    1    1    2    0    0  0.19116115181E-01 -0.78227883503E-02  0.98470390071E+00  0.98492063395E+00  0.51109989000E-03 0.  1.
     -623    1    1    2    0    0 -0.20503819258E-01  0.88536327204E-02  0.23909102753E-03  0.17124000146E+03  0.17124000000E+03 0.  1.
       22    1    1    2    0    0  0.13877091420E-02 -0.10308465572E-02  0.71057145430E-01  0.71078170334E-01  0.00000000000E+00 0.  1.
</event>
<event>
 5   1  0.2192208E+09  0.9118800E+02  0.7818608E-02  0.1180000E+00
       11   -1    0    0    0    0  0.00000000000E+00  0.00000000000E+00  0.10559998763E+01  0.10560000000E+01  0.51109989000E-03 0. -1.
     -623   -1    0    0    0    0  0.00000000000E+00  0.00000000000E+00  0.47855275298E-10  0.17124000000E+03  0.17124000000E+03 0. -1.
       11    1    1    2    0    0  0.10264853834E-02 -0.16358756609E-02  0.75405726332E+00  0.75405990966E+00  0.51109989000E-03 0. -1.
     -623    1    1    2    0    0 -0.12886262959E-02  0.59369810649E-02  0.33380240873E-04  0.17124000011E+03  0.17124000000E+03 0. -1.
       22    1    1    2    0    0  0.26214093281E-03 -0.43011054974E-02  0.30190924941E+00  0.30193999918E+00  0.00000000000E+00 0. -1.
</event>
<event>
 5   1  0.2192208E+09  0.9118800E+02  0.7818608E-02  0.1180000E+00
       11   -1    0    0    0    0  0.00000000000E+00  0.00000000000E+00  0.10559998763E+01  0.10560000000E+01  0.51109989000E-03 0. -1.
     -623   -1    0    0    0    0  0.00000000000E+00  0.00000000000E+00  0.47855275298E-10  0.17124000000E+03  0.17124000000E+03 0.  1.
       11    1    1    2    0    0 -0.32059680923E-02 -0.17057266452E-02  0.66295788913E+00  0.66296803219E+00  0.51109989000E-03 0. -1.
     -623    1    1    2    0    0 -0.26600575674E-02 -0.39672596872E-02  0.94812288247E-04  0.17124000007E+03  0.17124000000E+03 0.  1.
       22    1    1    2    0    0  0.58660256669E-02  0.56729863431E-02  0.39294717782E+00  0.39303190403E+00  0.00000000000E+00 0. -1.
</event>
<event>
 5   1  0.2192208E+09  0.9118800E+02  0.7818608E-02  0.1180000E+00
       11   -1    0    0    0    0  0.00000000000E+00  0.00000000000E+00  0.10559998763E+01  0.10560000000E+01  0.51109989000E-03 0.  1.
     -623   -1    0    0    0    0  0.00000000000E+00  0.00000000000E+00  0.47855275298E-10  0.17124000000E+03  0.17124000000E+03 0. -1.
       11    1    1    2    0    0 -0.16185607206E-01  0.18162336415E-02  0.65707937667E+00  0.65728140172E+00  0.51109989000E-03 0.  1.
     -623    1    1    2    0    0 -0.46650389714E-02  0.31727781248E-02  0.77880958409E-03  0.17124000009E+03  0.17124000000E+03 0. -1.
       22    1    1    2    0    0  0.20850646179E-01 -0.49890117675E-02  0.39814169052E+00  0.39871850398E+00  0.00000000000E+00 0. -1.
</event>
<event>
 5   1  0.2192208E+09  0.9118800E+02  0.7818608E-02  0.1180000E+00
       11   -1    0    0    0    0  0.00000000000E+00  0.00000000000E+00  0.10559998763E+01  0.10560000000E+01  0.51109989000E-03 0. -1.
     -623   -1    0    0    0    0  0.00000000000E+00  0.00000000000E+00  0.47855275298E-10  0.17124000000E+03  0.17124000000E+03 0.  1.
       11    1    1    2    0    0 -0.19342709982E-01 -0.16409585804E-01  0.93440164434E+00  0.93474601315E+00  0.51109989000E-03 0. -1.
     -623    1    1    2    0    0  0.21425206405E-01  0.18007228469E-01  0.37494494889E-03  0.17124000229E+03  0.17124000000E+03 0.  1.
       22    1    1    2    0    0 -0.20824969028E-02 -0.15976430683E-02  0.12122331070E+00  0.12125172293E+00  0.00000000000E+00 0. -1.
</event>
<event>
 5   1  0.2192208E+09  0.9118800E+02  0.7818608E-02  0.1180000E+00
       11   -1    0    0    0    0  0.00000000000E+00  0.00000000000E+00  0.10559998763E+01  0.10560000000E+01  0.51109989000E-03 0.  1.
     -623   -1    0    0    0    0  0.00000000000E+00  0.00000000000E+00  0.47855275298E-10  0.17124000000E+03  0.17124000000E+03 0. -1.
       11    1    1    2    0    0  0.63037008363E-02 -0.15391843177E-01  0.99205226141E+00  0.99219181415E+00  0.51109989000E-03 0.  1.
     -623    1    1    2    0    0 -0.68135177297E-02  0.16178431328E-01  0.14721441132E-03  0.17124000090E+03  0.17124000000E+03 0. -1.
       22    1    1    2    0    0  0.50981433968E-03 -0.78658208812E-03  0.63800004810E-01  0.63806890191E-01  0.00000000000E+00 0.  1.
</event>
<event>
 5   1  0.2192208E+09  0.9118800E+02  0.7818608E-02  0.1180000E+00
       11   -1    0    0    0    0  0.00000000000E+00  0.00000000000E+00  0.10559998763E+01  0.10560000000E+01  0.51109989000E-03 0. -1.
     -623   -1    0    0    0    0  0.00000000000E+00  0.00000000000E+00  0.47855275298E-10  0.17124000000E+03  0.17124000000E+03 0.  1.
       11    1    1    2    0    0 -0.37677977068E-02 -0.95008059263E-02  0.21621785237E+00  0.21645988663E+00  0.51109989000E-03 0. -1.
     -623    1    1    2    0    0  0.71587996819E-03  0.38088667009E-03  0.29699662641E-03  0.17124000000E+03  0.17124000000E+03 0.  1.
       22    1    1    2    0    0  0.30519177396E-02  0.91199192567E-02  0.83948502594E+00  0.83954010977E+00  0.00000000000E+00 0.  1.
</event>
<event>
 5   1  0.2192208E+09  0.9118800E+02  0.7818608E-02  0.1180000E+00
       11   -1    0    0    0    0  0.00000000000E+00  0.00000000000E+00  0.10559998763E+01  0.10560000000E+01  0.51109989000E-03 0.  1.
     -623   -1    0    0    0    0  0.00000000000E+00  0.00000000000E+00  0.47855275298E-10  0.17124000000E+03  0.17124000000E+03 0. -1.
       11    1    1    2    0    0  0.10027030369E-02  0.96685658877E-02  0.83903112536E+00  0.83908758608E+00  0.51109989000E-03 0.  1.
     -623    1    1    2    0    0 -0.11881822088E-02 -0.12011498530E-01  0.69495534965E-04  0.17124000043E+03  0.17124000000E+03 0. -1.
       22    1    1    2    0    0  0.18548003583E-03  0.23429413762E-02  0.21690002327E+00  0.21691275636E+00  0.00000000000E+00 0.  1.
</event>
<event>
 5   1  0.2192208E+09  0.9118800E+02  0.7818608E-02  0.1180000E+00
       11   -1    0    0    0    0  0.00000000000E+00  0.00000000000E+00  0.10559998763E+01  0.10560000000E+01  0.51109989000E-03 0. -1.
     -623   -1    0    0    0    0  0.00000000000E+00  0.00000000000E+00  0.47855275298E-10  0.17124000000E+03  0.17124000000E+03 0.  1.
       11    1    1    2    0    0  0.38579729670E-02 -0.12011191431E-02  0.77471658613E+00  0.77472729182E+00  0.51109989000E-03 0. -1.
     -623    1    1    2    0    0  0.81030823129E-03  0.58446371089E-02  0.87763851534E-04  0.17124000010E+03  0.17124000000E+03 0.  1.
       22    1    1    2    0    0 -0.46682811945E-02 -0.46435179385E-02  0.28119552145E+00  0.28127260157E+00  0.00000000000E+00 0.  1.
</event>
<event>
 5   1  0.2192208E+09  0.9118800E+02  0.7818608E-02  0.1180000E+00
       11   -1    0    0    0    0  0.00000000000E+00  0.00000000000E+00  0.10559998763E+01  0.10560000000E+01  0.51109989000E-03 0. -1.
     -623   -1    0    0    0    0  0.00000000000E+00  0.00000000000E+00  0.47855275298E-10  0.17124000000E+03  0.17124000000E+03 0. -1.
       11    1    1    2    0    0 -0.12914853356E-01 -0.10286594357E-01  0.26079276371E+00  0.26131539237E+00  0.51109989000E-03 0. -1.
     -623    1    1    2    0    0  0.22012397132E-02  0.17125157278E-02  0.64101013808E-03  0.17124000002E+03  0.17124000000E+03 0. -1.
       22    1    1    2    0    0  0.10713613642E-01  0.85740786286E-02  0.79456610270E+00  0.79468458391E+00  0.00000000000E+00 0. -1.
</event>
<event>
 5   1  0.2192208E+09  0.9118800E+02  0.7818608E-02  0.1180000E+00
       11   -1    0    0    0    0  0.00000000000E+00  0.00000000000E+00  0.10559998763E+01  0.10560000000E+01  0.51109989000E-03 0. -1.
     -623   -1    0    0    0    0  0.00000000000E+00  0.00000000000E+00  0.47855275298E-10  0.17124000000E+03  0.17124000000E+03 0.  1.
       11    1    1    2    0    0 -0.89247513544E-03  0.23017391277E-02  0.10027973391E+01  0.10028005081E+01  0.51109989000E-03 0. -1.
     -623    1    1    2    0    0  0.11654725361E-02 -0.17212821272E-02  0.69252444252E-05  0.17124000001E+03  0.17124000000E+03 0.  1.
       22    1    1    2    0    0 -0.27299739203E-03 -0.58045701322E-03  0.53195604238E-01  0.53199471502E-01  0.00000000000E+00 0.  1.
</event>
<event>
 5   1  0.2192208E+09  0.9118800E+02  0.7818608E-02  0.1180000E+00
       11   -1    0    0    0    0  0.00000000000E+00  0.00000000000E+00  0.10559998763E+01  0.10560000000E+01  0.51109989000E-03 0.  1.
     -623   -1    0    0    0    0  0.00000000000E+00  0.00000000000E+00  0.47855275298E-10  0.17124000000E+03  0.17124000000E+03 0.  1.
       11    1    1    2    0    0  0.14900498300E-01 -0.15980183968E-01  0.97243143393E+00  0.97267699986E+00  0.51109989000E-03 0.  1.
     -623    1    1    2    0    0 -0.15927897440E-01  0.17291019778E-01  0.26370332216E-03  0.17124000161E+03  0.17124000000E+03 0.  1.
       22    1    1    2    0    0  0.10274204239E-02 -0.13108589162E-02  0.83306149876E-01  0.83322797307E-01  0.00000000000E+00 0.  1.
</event>
<event>
 5   1  0.2192208E+09  0.9118800E+02  0.7818608E-02  0.1180000E+00
       11   -1    0    0    0    0  0.00000000000E+00  0.00000000000E+00  0.10559998763E+01  0.10560000000E+01  0.51109989000E-03 0.  1.
     -623   -1    0    0    0    0  0.00000000000E+00  0.00000000000E+00  0.47855275298E-10  0.17124000000E+03  0.17124000000E+03 0. -1.
       11    1    1    2    0    0 -0.31785064157E-02 -0.11586686781E-02  0.89505663148E+00  0.89506317107E+00  0.51109989000E-03 0.  1.
     -623    1    1    2    0    0  0.43955581938E-02  0.52644373687E-02  0.63537811639E-04  0.17124000014E+03  0.17124000000E+03 0. -1.
       22    1    1    2    0    0 -0.12170517817E-02 -0.41057686949E-02  0.16087970793E+00  0.16093669244E+00  0.00000000000E+00 0.  1.
</event>
<event>
 5   1  0.2192208E+09  0.9118800E+02  0.7818608E-02  0.1180000E+00
       11   -1    0    0    0    0  0.00000000000E+00  0.00000000000E+00  0.10559998763E+01  0.10560000000E+01  0.51109989000E-03 0.  1.
     -623   -1    0    0    0    0  0.00000000000E+00  0.00000000000E+00  0.47855275298E-10  0.17124000000E+03  0.17124000000E+03 0.  1.
       11    1    1    2    0    0  0.49535265219E-02 -0.13160833621E-02  0.93763778638E+00  0.93765193391E+00  0.51109989000E-03 0.  1.
     -623    1    1    2    0    0 -0.28417972737E-02  0.29868614507E-02  0.44711303093E-04  0.17124000005E+03  0.17124000000E+03 0.  1.
       22    1    1    2    0    0 -0.21117292637E-02 -0.16707780723E-02  0.11831737293E+00  0.11834801070E+00  0.00000000000E+00 0.  1.
</event>
<event>
 5   1  0.2192208E+09  0.9118800E+02  0.7818608E-02  0.1180000E+00
       11   -1    0    0    0    0  0.00000000000E+00  0.00000000000E+00  0.10559998763E+01  0.10560000000E+01  0.51109989000E-03 0.  1.
     -623   -1    0    0    0    0  0.00000000000E+00  0.00000000000E+00  0.47855275298E-10  0.17124000000E+03  0.17124000000E+03 0. -1.
       11    1    1    2    0    0  0.51036755034E-03  0.15479495537E-02  0.99209356166E+00  0.99209503221E+00  0.51109989000E-03 0.  1.
     -623    1    1    2    0    0 -0.16188672377E-03 -0.60132623306E-03  0.93098539955E-05  0.17124000000E+03  0.17124000000E+03 0. -1.
       22    1    1    2    0    0 -0.34848082962E-03 -0.94662333197E-03  0.63896984893E-01  0.63904946702E-01  0.00000000000E+00 0.  1.
</event>
<event>
 5   1  0.2192208E+09  0.9118800E+02  0.7818608E-02  0.1180000E+00
       11   -1    0    0    0    0  0.00000000000E+00  0.00000000000E+00  0.10559998763E+01  0.10560000000E+01  0.51109989000E-03 0. -1.
     -623   -1    0    0    0    0  0.00000000000E+00  0.00000000000E+00  0.47855275298E-10  0.17124000000E+03  0.17124000000E+03 0. -1.
       11    1    1    2    0    0 -0.81904068622E-02 -0.12830272783E-01  0.72489309013E+00  0.72505306841E+00  0.51109989000E-03 0. -1.
     -623    1    1    2    0    0  0.64499150046E-02 -0.44838496402E-03  0.43105637258E-03  0.17124000012E+03  0.17124000000E+03 0. -1.
       22    1    1    2    0    0  0.17404918600E-02  0.13278657747E-01  0.33067572946E+00  0.33094680859E+00  0.00000000000E+00 0. -1.
</event>
<event>
 5   1  0.2192208E+09  0.9118800E+02  0.7818608E-02  0.1180000E+00
       11   -1    0    0    0    0  0.00000000000E+00  0.00000000000E+00  0.10559998763E+01  0.10560000000E+01  0.51109989000E-03 0. -1.
     -623   -1    0    0    0    0  0.00000000000E+00  0.00000000000E+00  0.47855275298E-10  0.17124000000E+03  0.17124000000E+03 0. -1.
       11    1    1    2    0    0  0.44010598756E-01  0.68057470468E-02  0.99381107092E+00  0.99480850263E+00  0.51109989000E-03 0. -1.
     -623    1    1    2    0    0 -0.43933934162E-01 -0.86629679641E-02  0.10314076982E-02  0.17124000586E+03  0.17124000000E+03 0. -1.
       22    1    1    2    0    0 -0.76664662091E-04  0.18572209040E-02  0.61157396122E-01  0.61185637591E-01  0.00000000000E+00 0. -1.
</event>
<event>
 5   1  0.2192208E+09  0.9118800E+02  0.7818608E-02  0.1180000E+00
       11   -1    0    0    0    0  0.00000000000E+00  0.00000000000E+00  0.10559998763E+01  0.10560000000E+01  0.51109989000E-03 0.  1.
     -623   -1    0    0    0    0  0.00000000000E+00  0.00000000000E+00  0.47855275298E-10  0.17124000000E+03  0.17124000000E+03 0.  1.
       11    1    1    2    0    0 -0.15923025815E-03 -0.90414547494E-03  0.99465520859E+00  0.99465576359E+00  0.51109989000E-03 0.  1.
     -623    1    1    2    0    0  0.15785997105E-04 -0.13031730508E-04  0.74559791869E-05  0.17124000000E+03  0.17124000000E+03 0.  1.
       22    1    1    2    0    0  0.14344426135E-03  0.91717720520E-03  0.61337191171E-01  0.61344215791E-01  0.00000000000E+00 0. -1.
</event>
<event>
 5   1  0.2192208E+09  0.9118800E+02  0.7818608E-02  0.1180000E+00
       11   -1    0    0    0    0  0.00000000000E+00  0.00000000000E+00  0.10559998763E+01  0.10560000000E+01  0.51109989000E-03 0. -1.
     -623   -1    0    0    0    0  0.00000000000E+00  0.00000000000E+00  0.47855275298E-10  0.17124000000E+03  0.17124000000E+03 0.  1.
       11    1    1    2    0    0  0.12360088476E-01  0.38893506956E-01  0.93972439136E+00  0.94061026446E+00  0.51109989000E-03 0. -1.
     -623    1    1    2    0    0 -0.14160851211E-01 -0.43488730091E-01  0.99746429584E-03  0.17124000611E+03  0.17124000000E+03 0.  1.
       22    1    1    2    0    0  0.18007715112E-02  0.45952500856E-02  0.11527867450E+00  0.11538427924E+00  0.00000000000E+00 0.  1.
</event>
<event>
 5   1  0.2192208E+09  0.9118800E+02  0.7818608E-02  0.1180000E+00
       11   -1    0    0    0    0  0.00000000000E+00  0.00000000000E+00  0.10559998763E+01  0.10560000000E+01  0.51109989000E-03 0. -1.
     -623   -1    0    0    0    0  0.00000000000E+00  0.00000000000E+00  0.47855275298E-10  0.17124000000E+03  0.17124000000E+03 0.  1.
       11    1    1    2    0    0 -0.46431835009E-02 -0.47664456616E-02  0.45035335009E+00  0.45040279675E+00  0.51109989000E-03 0. -1.
     -623    1    1    2    0    0  0.11446299379E-01  0.12607272882E-01  0.13914720686E-03  0.17124000085E+03  0.17124000000E+03 0.  1.
       22    1    1    2    0    0 -0.68031165289E-02 -0.78408279366E-02  0.60550743907E+00  0.60559641655E+00  0.00000000000E+00 0. -1.
</event>
<event>
 5   1  0.2192208E+09  0.9118800E+02  0.7818608E-02  0.1180000E+00
       11   -1    0    0    0    0  0.00000000000E+00  0.00000000000E+00  0.10559998763E+01  0.10560000000E+01  0.51109989000E-03 0. -1.
     -623   -1    0    0    0    0  0.00000000000E+00  0.00000000000E+00  0.47855275298E-10  0.17124000000E+03  0.17124000000E+03 0.  1.
       11    1    1    2    0    0 -0.45775095948E-03  0.69719143907E-02  0.75850468652E+00  0.75853703787E+00  0.51109989000E-03 0. -1.
     -623    1    1    2    0    0  0.14107768815E-02 -0.10532609763E-01  0.55396173874E-04  0.17124000033E+03  0.17124000000E+03 0.  1.
       22    1    1    2    0    0 -0.95302589619E-03  0.35606951798E-02  0.29743977434E+00  0.29746261306E+00  0.00000000000E+00 0.  1.
</event>
<event>
 5   1  0.2192208E+09  0.9118800E+02  0.7818608E-02  0.1180000E+00
       11   -1    0    0    0    0  0.00000000000E+00  0.00000000000E+00  0.10559998763E+01  0.10560000000E+01  0.51109989000E-03 0. -1.
     -623   -1    0    0    0    0  0.00000000000E+00  0.00000000000E+00  0.47855275298E-10  0.17124000000E+03  0.17124000000E+03 0.  1.
       11    1    1    2    0    0  0.46483890615E-02  0.13405798507E-01  0.92972719900E+00  0.92983560307E+00  0.51109989000E-03 0. -1.
     -623    1    1    2    0    0 -0.41524098868E-02 -0.15800180493E-01  0.13275765449E-03  0.17124000078E+03  0.17124000000E+03 0.  1.
       22    1    1    2    0    0 -0.49597935993E-03  0.23943812816E-02  0.12613987263E+00  0.12616357051E+00  0.00000000000E+00 0.  1.
</event>
<event>
 5   1  0.2192208E+09  0.9118800E+02  0.7818608E-02  0.1180000E+00
       11   -1    0    0    0    0  0.00000000000E+00  0.00000000000E+00  0.10559998763E+01  0.10560000000E+01  0.51109989000E-03 0. -1.
     -623   -1    0    0    0    0  0.00000000000E+00  0.00000000000E+00  0.47855275298E-10  0.17124000000E+03  0.17124000000E+03 0. -1.
       11    1    1    2    0    0 -0.95740993533E-03 -0.33947202318E-02  0.73459318458E+00  0.73460183012E+00  0.51109989000E-03 0. -1.
     -623    1    1    2    0    0 -0.24941633350E-03 -0.60939045524E-04  0.29366092883E-04  0.17124000000E+03  0.17124000000E+03 0. -1.
       22    1    1    2    0    0  0.12068262720E-02  0.34556592781E-02  0.32137733910E+00  0.32139818310E+00  0.00000000000E+00 0.  1.
</event>
<event>
 5   1  0.2192208E+09  0.9118800E+02  0.7818608E-02  0.1180000E+00
       11   -1    0    0    0    0  0.00000000000E+00  0.00000000000E+00  0.10559998763E+01  0.10560000000E+01  0.51109989000E-03 0.  1.
     -623   -1    0    0    0    0  0.00000000000E+00  0.00000000000E+00  0.47855275298E-10  0.17124000000E+03  0.17124000000E+03 0. -1.
       11    1    1    2    0    0 -0.20815942084E-02  0.20964314916E-01  0.79838397725E+00  0.79866205111E+00  0.51109989000E-03 0.  1.
     -623    1    1    2    0    0  0.24705730840E-02 -0.24559627903E-01  0.30514029905E-03  0.17124000178E+03  0.17124000000E+03 0. -1.
       22    1    1    2    0    0 -0.38897885239E-03  0.35953127556E-02  0.25731074888E+00  0.25733615966E+00  0.00000000000E+00 0.  1.
</event>
<event>
 5   1  0.2192208E+09  0.9118800E+02  0.7818608E-02  0.1180000E+00
       11   -1    0    0    0    0  0.00000000000E+00  0.00000000000E+00  0.10559998763E+01  0.10560000000E+01  0.51109989000E-03 0.  1.
     -623   -1    0    0    0    0  0.00000000000E+00  0.00000000000E+00  0.47855275298E-10  0.17124000000E+03  0.17124000000E+03 0.  1.
       11    1    1    2    0    0 -0.44669676562E-02  0.44669121818E-01  0.99291674360E+00  0.99393118735E+00  0.51109989000E-03 0.  1.
     -623    1    1    2    0    0  0.47735251648E-02 -0.47471185687E-01  0.10850158675E-02  0.17124000665E+03  0.17124000000E+03 0.  1.
       22    1    1    2    0    0 -0.30655319694E-03  0.28020209906E-02  0.61997164061E-01  0.62061208884E-01  0.00000000000E+00 0.  1.
</event>
<event>
 5   1  0.2192208E+09  0.9118800E+02  0.7818608E-02  0.1180000E+00
       11   -1    0    0    0    0  0.00000000000E+00  0.00000000000E+00  0.10559998763E+01  0.10560000000E+01  0.51109989000E-03 0.  1.
     -623   -1    0    0    0    0  0.00000000000E+00  0.00000000000E+00  0.47855275298E-10  0.17124000000E+03  0.17124000000E+03 0. -1.
       11    1    1    2    0    0  0.62421874294E-03 -0.85915542711E-02  0.97287955369E+00  0.97291782369E+00  0.51109989000E-03 0.  1.
     -623    1    1    2    0    0 -0.72759870973E-03  0.97126837726E-02  0.46052450520E-04  0.17124000028E+03  0.17124000000E+03 0. -1.
       22    1    1    2    0    0  0.10338004089E-03 -0.11211304907E-02  0.83074377767E-01  0.83082006851E-01  0.00000000000E+00 0. -1.
</event>
<event>
 5   1  0.2192208E+09  0.9118800E+02  0.7818608E-02  0.1180000E+00
       11   -1    0    0    0    0  0.00000000000E+00  0.00000000000E+00  0.10559998763E+01  0.10560000000E+01  0.51109989000E-03 0.  1.
     -623   -1    0    0    0    0  0.00000000000E+00  0.00000000000E+00  0.47855275298E-10  0.17124000000E+03  0.17124000000E+03 0. -1.
       11    1    1    2    0    0  0.24403339881E-01  0.17955804924E-01  0.98845144586E+00  0.98891579822E+00  0.51109989000E-03 0.  1.
     -623    1    1    2    0    0 -0.26332670169E-01 -0.18862049935E-01  0.50116792322E-03  0.17124000306E+03  0.17124000000E+03 0. -1.
       22    1    1    2    0    0  0.19293322395E-02  0.90624640869E-03  0.67047340821E-01  0.67081215826E-01  0.00000000000E+00 0.  1.
</event>
<event>
 5   1  0.2192208E+09  0.9118800E+02  0.7818608E-02  0.1180000E+00
       11   -1    0    0    0    0  0.00000000000E+00  0.00000000000E+00  0.10559998763E+01  0.10560000000E+01  0.51109989000E-03 0. -1.
     -623   -1    0    0    0    0  0.00000000000E+00  0.00000000000E+00  0.47855275298E-10  0.17124000000E+03  0.17124000000E+03 0.  1.
       11    1    1    2    0    0 -0.10138531345E-01  0.10318195722E-01  0.95919211737E+00  0.95930132609E+00  0.51109989000E-03 0. -1.
     -623    1    1    2    0    0  0.10997663245E-01 -0.11364355594E-01  0.11929152010E-03  0.17124000073E+03  0.17124000000E+03 0.  1.
       22    1    1    2    0    0 -0.85913380424E-03  0.10461618395E-02  0.96688650285E-01  0.96698126453E-01  0.00000000000E+00 0. -1.
</event>
<event>
 5   1  0.2192208E+09  0.9118800E+02  0.7818608E-02  0.1180000E+00
       11   -1    0    0    0    0  0.00000000000E+00  0.00000000000E+00  0.10559998763E+01  0.10560000000E+01  0.51109989000E-03 0. -1.
     -623   -1    0    0    0    0  0.00000000000E+00  0.00000000000E+00  0.47855275298E-10  0.17124000000E+03  0.17124000000E+03 0.  1.
       11    1    1    2    0    0 -0.16992227348E-02  0.60627099533E-02  0.29542310334E+00  0.29549063440E+00  0.51109989000E-03 0. -1.
     -623    1    1    2    0    0 -0.10096987291E-02 -0.25701248868E-01  0.32777036264E-03  0.17124000193E+03  0.17124000000E+03 0.  1.
       22    1    1    2    0    0  0.27089214577E-02  0.19638538757E-01  0.76024899619E+00  0.76050742709E+00  0.00000000000E+00 0. -1.
</event>
<event>
 5   1  0.2192208E+09  0.9118800E+02  0.7818608E-02  0.1180000E+00
       11   -1    0    0    0    0  0.00000000000E+00  0.00000000000E+00  0.10559998763E+01  0.10560000000E+01  0.51109989000E-03 0.  1.
     -623   -1    0    0    0    0  0.00000000000E+00  0.00000000000E+00  0.47855275298E-10  0.17124000000E+03  0.17124000000E+03 0. -1.
       11    1    1    2    0    0 -0.90401719101E-03  0.11876997205E-01  0.93371264386E+00  0.93378875708E+00  0.51109989000E-03 0.  1.
     -623    1    1    2    0    0  0.98149686922E-03 -0.13532038266E-01  0.87758878659E-04  0.17124000054E+03  0.17124000000E+03 0. -1.
       22    1    1    2    0    0 -0.77481155171E-04  0.16550614237E-02  0.12220106256E+00  0.12221229448E+00  0.00000000000E+00 0.  1.
</event>
<event>
 5   1  0.2192208E+09  0.9118800E+02  0.7818608E-02  0.1180000E+00
       11   -1    0    0    0    0  0.00000000000E+00  0.00000000000E+00  0.10559998763E+01  0.10560000000E+01  0.51109989000E-03 0.  1.
     -623   -1    0    0    0    0  0.00000000000E+00  0.00000000000E+00  0.47855275298E-10  0.17124000000E+03  0.17124000000E+03 0. -1.
       11    1    1    2    0    0  0.56535380296E-04 -0.15332233519E-02  0.96545709873E+00  0.96545845311E+00  0.51109989000E-03 0.  1.
     -623    1    1    2    0    0  0.10664856659E-04 -0.48233676201E-04  0.15068116142E-04  0.17124000000E+03  0.17124000000E+03 0. -1.
       22    1    1    2    0    0 -0.67200237207E-04  0.15814570292E-02  0.90527734477E-01  0.90541571843E-01  0.00000000000E+00 0. -1.
</event>
<event>
 5   1  0.2192208E+09  0.9118800E+02  0.7818608E-02  0.1180000E+00
       11   -1    0    0    0    0  0.00000000000E+00  0.00000000000E+00  0.10559998763E+01  0.10560000000E+01  0.51109989000E-03 0. -1.
     -623   -1    0    0    0    0  0.00000000000E+00  0.00000000000E+00  0.47855275298E-10  0.17124000000E+03  0.17124000000E+03 0.  1.
       11    1    1    2    0    0  0.99025407509E-03 -0.50367215449E-02  0.94016922617E+00  0.94018337798E+00  0.51109989000E-03 0. -1.
     -623    1    1    2    0    0 -0.25379398184E-03  0.29339770026E-02  0.35485519931E-04  0.17124000003E+03  0.17124000000E+03 0.  1.
       22    1    1    2    0    0 -0.73646009390E-03  0.21027445498E-02  0.11579516197E+00  0.11581659399E+00  0.00000000000E+00 0. -1.
</event>
<event>
 5   1  0.2192208E+09  0.9118800E+02  0.7818608E-02  0.1180000E+00
       11   -1    0    0    0    0  0.00000000000E+00  0.00000000000E+00  0.10559998763E+01  0.10560000000E+01  0.51109989000E-03 0.  1.
     -623   -1    0    0    0    0  0.00000000000E+00  0.00000000000E+00  0.47855275298E-10  0.17124000000E+03  0.17124000000E+03 0. -1.
       11    1    1    2    0    0  0.11025646531E-01 -0.15037423481E-01  0.28312599714E+00  0.28373981121E+00  0.51109989000E-03 0.  1.
     -623    1    1    2    0    0 -0.23992557072E-01  0.58407987711E-01  0.19532255388E-02  0.17124001165E+03  0.17124000000E+03 0. -1.
       22    1    1    2    0    0  0.12966910656E-01 -0.43370564510E-01  0.77092065876E+00  0.77224854078E+00  0.00000000000E+00 0.  1.
</event>
<event>
 5   1  0.2192208E+09  0.9118800E+02  0.7818608E-02  0.1180000E+00
       11   -1    0    0    0    0  0.00000000000E+00  0.00000000000E+00  0.10559998763E+01  0.10560000000E+01  0.51109989000E-03 0. -1.
     -623   -1    0    0    0    0  0.00000000000E+00  0.00000000000E+00  0.47855275298E-10  0.17124000000E+03  0.17124000000E+03 0. -1.
       11    1    1    2    0    0 -0.15229706849E-01  0.21390252238E-01  0.92774340991E+00  0.92811506976E+00  0.51109989000E-03 0. -1.
     -623    1    1    2    0    0  0.14798477447E-01 -0.23782431727E-01  0.39693088136E-03  0.17124000229E+03  0.17124000000E+03 0. -1.
       22    1    1    2    0    0  0.43122942678E-03  0.23921794496E-02  0.12785953385E+00  0.12788263713E+00  0.00000000000E+00 0. -1.
</event>
<event>
 5   1  0.2192208E+09  0.9118800E+02  0.7818608E-02  0.1180000E+00
       11   -1    0    0    0    0  0.00000000000E+00  0.00000000000E+00  0.10559998763E+01  0.10560000000E+01  0.51109989000E-03 0. -1.
     -623   -1    0    0    0    0  0.00000000000E+00  0.00000000000E+00  0.47855275298E-10  0.17124000000E+03  0.17124000000E+03 0.  1.
       11    1    1    2    0    0  0.43846755723E-03  0.67214271987E-03  0.98272587649E+00  0.98272633707E+00  0.51109989000E-03 0. -1.
     -623    1    1    2    0    0  0.57427209582E-04  0.73863312553E-04  0.58127956064E-05  0.17124000000E+03  0.17124000000E+03 0.  1.
       22    1    1    2    0    0 -0.49589476299E-03 -0.74600602750E-03  0.73268116656E-01  0.73273592480E-01  0.00000000000E+00 0. -1.
</event>
<event>
 5   1  0.2192208E+09  0.9118800E+02  0.7818608E-02  0.1180000E+00
       11   -1    0    0    0    0  0.00000000000E+00  0.00000000000E+00  0.10559998763E+01  0.10560000000E+01  0.51109989000E-03 0.  1.
     -623   -1    0    0    0    0  0.00000000000E+00  0.00000000000E+00  0.47855275298E-10  0.17124000000E+03  0.17124000000E+03 0.  1.
       11    1    1    2    0    0  0.31431249161E-02 -0.52759352021E-02  0.86330176095E+00  0.86332375527E+00  0.51109989000E-03 0.  1.
     -623    1    1    2    0    0  0.45729097479E-02  0.13555784386E-01  0.35516192420E-03  0.17124000060E+03  0.17124000000E+03 0.  1.
       22    1    1    2    0    0 -0.77160346604E-02 -0.82798491734E-02  0.19234295268E+00  0.19267564594E+00  0.00000000000E+00 0. -1.
</event>
<event>
 5   1  0.2192208E+09  0.9118800E+02  0.7818608E-02  0.1180000E+00
       11   -1    0    0    0    0  0.00000000000E+00  0.00000000000E+00  0.10559998763E+01  0.10560000000E+01  0.51109989000E-03 0.  1.
     -623   -1    0    0    0    0  0.00000000000E+00  0.00000000000E+00  0.47855275298E-10  0.17124000000E+03  0.17124000000E+03 0.  1.
       11    1    1    2    0    0 -0.27711270332E-02 -0.17160440250E-01  0.90418347239E+00  0.90435069128E+00  0.51109989000E-03 0.  1.
     -623    1    1    2    0    0  0.30128529507E-02  0.20066298444E-01  0.19633363309E-03  0.17124000120E+03  0.17124000000E+03 0.  1.
       22    1    1    2    0    0 -0.24172846566E-03 -0.29058751654E-02  0.15162096330E+00  0.15164899952E+00  0.00000000000E+00 0. -1.
</event>
<event>
 5   1  0.2192208E+09  0.9118800E+02  0.7818608E-02  0.1180000E+00
       11   -1    0    0    0    0  0.00000000000E+00  0.00000000000E+00  0.10559998763E+01  0.10560000000E+01  0.51109989000E-03 0. -1.
     -623   -1    0    0    0    0  0.00000000000E+00  0.00000000000E+00  0.47855275298E-10  0.17124000000E+03  0.17124000000E+03 0. -1.
       11    1    1    2    0    0  0.17818396606E-02 -0.66648286428E-02  0.50669935693E+00  0.50674657812E+00  0.51109989000E-03 0. -1.
     -623    1    1    2    0    0  0.13062999977E-03 -0.48856495255E-03  0.97012503574E-04  0.17124000000E+03  0.17124000000E+03 0. -1.
       22    1    1    2    0    0 -0.19124696606E-02  0.71533935964E-02  0.54920350906E+00  0.54925342324E+00  0.00000000000E+00 0. -1.
</event>
<event>
 5   1  0.2192208E+09  0.9118800E+02  0.7818608E-02  0.1180000E+00
       11   -1    0    0    0    0  0.00000000000E+00  0.00000000000E+00  0.10559998763E+01  0.10560000000E+01  0.51109989000E-03 0. -1.
     -623   -1    0    0    0    0  0.00000000000E+00  0.00000000000E+00  0.47855275298E-10  0.17124000000E+03  0.17124000000E+03 0.  1.
       11    1    1    2    0    0 -0.59952166492E-03  0.13652333105E-01  0.87484548916E+00  0.87495236256E+00  0.51109989000E-03 0. -1.
     -623    1    1    2    0    0  0.78488044088E-03 -0.16348073332E-01  0.12769741889E-03  0.17124000078E+03  0.17124000000E+03 0.  1.
       22    1    1    2    0    0 -0.18535873189E-03  0.26957393094E-02  0.18102663051E+00  0.18104679594E+00  0.00000000000E+00 0. -1.
</event>
<event>
 5   1  0.2192208E+09  0.9118800E+02  0.7818608E-02  0.1180000E+00
       11   -1    0    0    0    0  0.00000000000E+00  0.00000000000E+00  0.10559998763E+01  0.10560000000E+01  0.51109989000E-03 0.  1.
     -623   -1    0    0    0    0  0.00000000000E+00  0.00000000000E+00  0.47855275298E-10  0.17124000000E+03  0.17124000000E+03 0.  1.
       11    1    1    2    0    0  0.30188035428E-02 -0.10919288959E-01  0.83996318147E+00  0.84003973209E+00  0.51109989000E-03 0.  1.
     -623    1    1    2    0    0 -0.28662658902E-02  0.13821836610E-01  0.96569031833E-04  0.17124000058E+03  0.17124000000E+03 0.  1.
       22    1    1    2    0    0 -0.15253715799E-03 -0.29025500357E-02  0.21594030809E+00  0.21595986831E+00  0.00000000000E+00 0. -1.
</event>
<event>
 5   1  0.2192208E+09  0.9118800E+02  0.7818608E-02  0.1180000E+00
       11   -1    0    0    0    0  0.00000000000E+00  0.00000000000E+00  0.10559998763E+01  0.10560000000E+01  0.51109989000E-03 0.  1.
     -623   -1    0    0    0    0  0.00000000000E+00  0.00000000000E+00  0.47855275298E-10  0.17124000000E+03  0.17124000000E+03 0.  1.
       11    1    1    2    0    0  0.29865811382E-02  0.78944600159E-02  0.90636914148E+00  0.90640858558E+00  0.51109989000E-03 0.  1.
     -623    1    1    2    0    0 -0.36822207327E-02 -0.95110610010E-02  0.49977149193E-04  0.17124000030E+03  0.17124000000E+03 0.  1.
       22    1    1    2    0    0  0.69564184289E-03  0.16166067923E-02  0.14958140248E+00  0.14959175547E+00  0.00000000000E+00 0. -1.
</event>
<event>
 5   1  0.2192208E+09  0.9118800E+02  0.7818608E-02  0.1180000E+00
       11   -1    0    0    0    0  0.00000000000E+00  0.00000000000E+00  0.10559998763E+01  0.10560000000E+01  0.51109989000E-03 0. -1.
     -623   -1    0    0    0    0  0.00000000000E+00  0.00000000000E+00  0.47855275298E-10  0.17124000000E+03  0.17124000000E+03 0.  1.
       11    1    1    2    0    0  0.16689956931E-01  0.14034153214E-01  0.84995576052E+00  0.85023559570E+00  0.51109989000E-03 0. -1.
     -623    1    1    2    0    0 -0.19990153349E-01 -0.16211801500E-01  0.31963861907E-03  0.17124000193E+03  0.17124000000E+03 0.  1.
       22    1    1    2    0    0  0.33001973889E-02  0.21776490729E-02  0.20572452848E+00  0.20576252107E+00  0.00000000000E+00 0. -1.
</event>
<event>
 5   1  0.2192208E+09  0.9118800E+02  0.7818608E-02  0.1180000E+00
       11   -1    0    0    0    0  0.00000000000E+00  0.00000000000E+00  0.10559998763E+01  0.10560000000E+01  0.51109989000E-03 0.  1.
     -623   -1    0    0    0    0  0.00000000000E+00  0.00000000000E+00  0.47855275298E-10  0.17124000000E+03  0.17124000000E+03 0.  1.
       11    1    1    2    0    0 -0.22409119219E-02  0.40961858495E-02  0.62760797434E+00  0.62762555007E+00  0.51109989000E-03 0.  1.
     -623    1    1    2    0    0 -0.51842859692E-05  0.56959499569E-03  0.48752111989E-04  0.17124000000E+03  0.17124000000E+03 0.  1.
       22    1    1    2    0    0  0.22460962080E-02 -0.46657808522E-02  0.42834316293E+00  0.42837446199E+00  0.00000000000E+00 0. -1.
</event>
<event>
 5   1  0.2192208E+09  0.9118800E+02  0.7818608E-02  0.1180000E+00
       11   -1    0    0    0    0  0.00000000000E+00  0.00000000000E+00  0.10559998763E+01  0.10560000000E+01  0.51109989000E-03 0. -1.
     -623   -1    0    0    0    0  0.00000000000E+00  0.00000000000E+00  0.47855275298E-10  0.17124000000E+03  0.17124000000E+03 0.  1.
       11    1    1    2    0    0 -0.37868129830E-02 -0.68958510378E-02  0.86885725758E+00  0.86889302447E+00  0.51109989000E-03 0. -1.
     -623    1    1    2    0    0  0.48254666045E-02  0.89408932339E-02  0.50004023216E-04  0.17124000030E+03  0.17124000000E+03 0.  1.
       22    1    1    2    0    0 -0.10386528796E-02 -0.20450408217E-02  0.18709245243E+00  0.18710651177E+00  0.00000000000E+00 0.  1.
</event>
<event>
 5   1  0.2192208E+09  0.9118800E+02  0.7818608E-02  0.1180000E+00
       11   -1    0    0    0    0  0.00000000000E+00  0.00000000000E+00  0.10559998763E+01  0.10560000000E+01  0.51109989000E-03 0.  1.
     -623   -1    0    0    0    0  0.00000000000E+00  0.00000000000E+00  0.47855275298E-10  0.17124000000E+03  0.17124000000E+03 0. -1.
       11    1    1    2    0    0 -0.14908147093E-02 -0.32521596101E-02  0.83035110723E+00  0.83035897152E+00  0.51109989000E-03 0.  1.
     -623    1    1    2    0    0 -0.64886152816E-03  0.42930989728E-03  0.35546464235E-04  0.17124000000E+03  0.17124000000E+03 0. -1.
       22    1    1    2    0    0  0.21396762418E-02  0.28228497100E-02  0.22561322964E+00  0.22564103369E+00  0.00000000000E+00 0.  1.
</event>
<event>
 5   1  0.2192208E+09  0.9118800E+02  0.7818608E-02  0.1180000E+00
       11   -1    0    0    0    0  0.00000000000E+00  0.00000000000E+00  0.10559998763E+01  0.10560000000E+01  0.51109989000E-03 0. -1.
     -623   -1    0    0    0    0  0.00000000000E+00  0.00000000000E+00  0.47855275298E-10  0.17124000000E+03  0.17124000000E+03 0.  1.
       11    1    1    2    0    0 -0.39270584093E-02 -0.11766721778E-01  0.78540050372E+00  0.78549862507E+00  0.51109989000E-03 0. -1.
     -623    1    1    2    0    0  0.54701757648E-02  0.15626184619E-01  0.13073461063E-03  0.17124000080E+03  0.17124000000E+03 0.  1.
       22    1    1    2    0    0 -0.15431241579E-02 -0.38594822727E-02  0.27046995104E+00  0.27050188770E+00  0.00000000000E+00 0.  1.
</event>
<event>
 5   1  0.2192208E+09  0.9118800E+02  0.7818608E-02  0.1180000E+00
       11   -1    0    0    0    0  0.00000000000E+00  0.00000000000E+00  0.10559998763E+01  0.10560000000E+01  0.51109989000E-03 0. -1.
     -623   -1    0    0    0    0  0.00000000000E+00  0.00000000000E+00  0.47855275298E-10  0.17124000000E+03  0.17124000000E+03 0. -1.
       11    1    1    2    0    0  0.38803231307E-02 -0.71067660075E-02  0.35734276664E+00  0.35743485717E+00  0.51109989000E-03 0. -1.
     -623    1    1    2    0    0 -0.11480081058E-01  0.17479129025E-01  0.21159834787E-03  0.17124000128E+03  0.17124000000E+03 0. -1.
       22    1    1    2    0    0  0.75997577193E-02 -0.10372362701E-01  0.69844549229E+00  0.69856384671E+00  0.00000000000E+00 0. -1.
</event>
<event>
 5   1  0.2192208E+09  0.9118800E+02  0.7818608E-02  0.1180000E+00
       11   -1    0    0    0    0  0.00000000000E+00  0.00000000000E+00  0.10559998763E+01  0.10560000000E+01  0.51109989000E-03 0. -1.
     -623   -1    0    0    0    0  0.00000000000E+00  0.00000000000E+00  0.47855275298E-10  0.17124000000E+03  0.17124000000E+03 0.  1.
       11    1    1    2    0    0 -0.87138784601E-02  0.62606701962E-02  0.95338687730E+00  0.95344739063E+00  0.51109989000E-03 0. -1.
     -623    1    1    2    0    0  0.83551677678E-02 -0.77145221239E-02  0.71700665382E-04  0.17124000038E+03  0.17124000000E+03 0.  1.
       22    1    1    2    0    0  0.35871093184E-03  0.14538517065E-02  0.10254126812E+00  0.10255220147E+00  0.00000000000E+00 0.  1.
</event>
<event>
 5   1  0.2192208E+09  0.9118800E+02  0.7818608E-02  0.1180000E+00
       11   -1    0    0    0    0  0.00000000000E+00  0.00000000000E+00  0.10559998763E+01  0.10560000000E+01  0.51109989000E-03 0.  1.
     -623   -1    0    0    0    0  0.00000000000E+00  0.00000000000E+00  0.47855275298E-10  0.17124000000E+03  0.17124000000E+03 0.  1.
       11    1    1    2    0    0  0.17416592104E-01 -0.11079935638E-01  0.91799079124E+00  0.91822298854E+00  0.51109989000E-03 0.  1.
     -623    1    1    2    0    0 -0.19914108144E-01  0.12812948126E-01  0.26725143038E-03  0.17124000164E+03  0.17124000000E+03 0.  1.
       22    1    1    2    0    0  0.24975443624E-02 -0.17330307109E-02  0.13774333514E+00  0.13777687577E+00  0.00000000000E+00 0. -1.
</event>
<event>
 5   1  0.2192208E+09  0.9118800E+02  0.7818608E-02  0.1180000E+00
       11   -1    0    0    0    0  0.00000000000E+00  0.00000000000E+00  0.10559998763E+01  0.10560000000E+01  0.51109989000E-03 0. -1.
     -623   -1    0    0    0    0  0.00000000000E+00  0.00000000000E+00  0.47855275298E-10  0.17124000000E+03  0.17124000000E+03 0.  1.
       11    1    1    2    0    0 -0.38635398232E-03 -0.88230148114E-03  0.99020121718E+00  0.99020181754E+00  0.51109989000E-03 0. -1.
     -623    1    1    2    0    0  0.74263144220E-04  0.11245506950E-03  0.57207721769E-05  0.17124000000E+03  0.17124000000E+03 0.  1.
       22    1    1    2    0    0  0.31209083523E-03  0.76984640731E-03  0.65792979182E-01  0.65798223181E-01  0.00000000000E+00 0. -1.
</event>
<event>
 5   1  0.2192208E+09  0.9118800E+02  0.7818608E-02  0.1180000E+00
       11   -1    0    0    0    0  0.00000000000E+00  0.00000000000E+00  0.10559998763E+01  0.10560000000E+01  0.51109989000E-03 0.  1.
     -623   -1    0    0    0    0  0.00000000000E+00  0.00000000000E+00  0.47855275298E-10  0.17124000000E+03  0.17124000000E+03 0.  1.
       11    1    1    2    0    0  0.64747362187E-02 -0.47462688204E-03  0.10047173784E+01  0.10047384829E+01  0.51109989000E-03 0.  1.
     -623    1    1    2    0    0 -0.75825477234E-02  0.13700878649E-02  0.40949811313E-04  0.17124000017E+03  0.17124000000E+03 0.  1.
       22    1    1    2    0    0  0.11078113188E-02 -0.89546094929E-03  0.51241522319E-01  0.51261317831E-01  0.00000000000E+00 0.  1.
</event>
<event>
 5   1  0.2192208E+09  0.9118800E+02  0.7818608E-02  0.1180000E+00
       11   -1    0    0    0    0  0.00000000000E+00  0.00000000000E+00  0.10559998763E+01  0.10560000000E+01  0.51109989000E-03 0.  1.
     -623   -1    0    0    0    0  0.00000000000E+00  0.00000000000E+00  0.47855275298E-10  0.17124000000E+03  0.17124000000E+03 0. -1.
       11    1    1    2    0    0 -0.33433348253E-02 -0.33215479447E-02  0.77737376761E+00  0.77738822113E+00  0.51109989000E-03 0.  1.
     -623    1    1    2    0    0  0.18297943668E-02  0.13765754893E-03  0.36643986512E-04  0.17124000001E+03  0.17124000000E+03 0. -1.
       22    1    1    2    0    0  0.15135404571E-02  0.31838903956E-02  0.27858946559E+00  0.27861176985E+00  0.00000000000E+00 0.  1.
</event>
<event>
 5   1  0.2192208E+09  0.9118800E+02  0.7818608E-02  0.1180000E+00
       11   -1    0    0    0    0  0.00000000000E+00  0.00000000000E+00  0.10559998763E+01  0.10560000000E+01  0.51109989000E-03 0. -1.
     -623   -1    0    0    0    0  0.00000000000E+00  0.00000000000E+00  0.47855275298E-10  0.17124000000E+03  0.17124000000E+03 0.  1.
       11    1    1    2    0    0  0.79092227038E-03  0.26439353786E-02  0.95875529720E+00  0.95875940522E+00  0.51109989000E-03 0. -1.
     -623    1    1    2    0    0 -0.28342461337E-03 -0.45336535234E-03  0.29986840103E-04  0.17124000000E+03  0.17124000000E+03 0.  1.
       22    1    1    2    0    0 -0.50749765805E-03 -0.21905700279E-02  0.97214588450E-01  0.97240590077E-01  0.00000000000E+00 0. -1.
</event>
<event>
 5   1  0.2192208E+09  0.9118800E+02  0.7818608E-02  0.1180000E+00
       11   -1    0    0    0    0  0.00000000000E+00  0.00000000000E+00  0.10559998763E+01  0.10560000000E+01  0.51109989000E-03 0. -1.
     -623   -1    0    0    0    0  0.00000000000E+00  0.00000000000E+00  0.47855275298E-10  0.17124000000E+03  0.17124000000E+03 0.  1.
       11    1    1    2    0    0  0.22932824347E-01 -0.39202333846E-01  0.99814611464E+00  0.99917899538E+00  0.51109989000E-03 0. -1.
     -623    1    1    2    0    0 -0.24331849179E-01  0.41605996302E-01  0.11076562248E-02  0.17124000679E+03  0.17124000000E+03 0.  1.
       22    1    1    2    0    0  0.13990270986E-02 -0.24036663309E-02  0.56746203763E-01  0.56814316243E-01  0.00000000000E+00 0.  1.
</event>
<event>
 5   1  0.2192208E+09  0.9118800E+02  0.7818608E-02  0.1180000E+00
       11   -1    0    0    0    0  0.00000000000E+00  0.00000000000E+00  0.10559998763E+01  0.10560000000E+01  0.51109989000E-03 0. -1.
     -623   -1    0    0    0    0  0.00000000000E+00  0.00000000000E+00  0.47855275298E-10  0.17124000000E+03  0.17124000000E+03 0.  1.
       11    1    1    2    0    0  0.31055063827E-02  0.26946133452E-02  0.96551023708E+00  0.96551912681E+00  0.51109989000E-03 0. -1.
     -623    1    1    2    0    0 -0.39135381221E-03  0.58832976408E-04  0.91407914348E-04  0.17124000000E+03  0.17124000000E+03 0.  1.
       22    1    1    2    0    0 -0.27141525709E-02 -0.27534463216E-02  0.90398230186E-01  0.90480871523E-01  0.00000000000E+00 0.  1.
</event>
<event>
 5   1  0.2192208E+09  0.9118800E+02  0.7818608E-02  0.1180000E+00
       11   -1    0    0    0    0  0.00000000000E+00  0.00000000000E+00  0.10559998763E+01  0.10560000000E+01  0.51109989000E-03 0. -1.
     -623   -1    0    0    0    0  0.00000000000E+00  0.00000000000E+00  0.47855275298E-10  0.17124000000E+03  0.17124000000E+03 0.  1.
       11    1    1    2    0    0 -0.28739092022E-02 -0.18093982438E-03  0.98931257093E+00  0.98931689378E+00  0.51109989000E-03 0. -1.
     -623    1    1    2    0    0  0.20702941398E-02  0.17107219601E-02  0.26613745037E-04  0.17124000002E+03  0.17124000000E+03 0.  1.
       22    1    1    2    0    0  0.80361503706E-03 -0.15297821566E-02  0.66660704570E-01  0.66683098041E-01  0.00000000000E+00 0.  1.
</event>
<event>
 5   1  0.2192208E+09  0.9118800E+02  0.7818608E-02  0.1180000E+00
       11   -1    0    0    0    0  0.00000000000E+00  0.00000000000E+00  0.10559998763E+01  0.10560000000E+01  0.51109989000E-03 0.  1.
     -623   -1    0    0    0    0  0.00000000000E+00  0.00000000000E+00  0.47855275298E-10  0.17124000000E+03  0.17124000000E+03 0.  1.
       11    1    1    2    0    0  0.12382994698E-01  0.99039563964E-02  0.52261545578E+00  0.52285619701E+00  0.51109989000E-03 0.  1.
     -623    1    1    2    0    0 -0.18611252132E-01  0.22719614933E-02  0.41709000762E-03  0.17124000103E+03  0.17124000000E+03 0.  1.
       22    1    1    2    0    0  0.62282574408E-02 -0.12175917891E-01  0.53296733100E+00  0.53314277645E+00  0.00000000000E+00 0.  1.
</event>
<event>
 5   1  0.2192208E+09  0.9118800E+02  0.7818608E-02  0.1180000E+00
       11   -1    0    0    0    0  0.00000000000E+00  0.00000000000E+00  0.10559998763E+01  0.10560000000E+01  0.51109989000E-03 0.  1.
     -623   -1    0    0    0    0  0.00000000000E+00  0.00000000000E+00  0.47855275298E-10  0.17124000000E+03  0.17124000000E+03 0.  1.
       11    1    1    2    0    0  0.27897413759E-02 -0.11660408454E-03  0.97809887721E+00  0.97810299615E+00  0.51109989000E-03 0.  1.
     -623    1    1    2    0    0 -0.29322100611E-02  0.94769131495E-03  0.85869014634E-05  0.17124000003E+03  0.17124000000E+03 0.  1.
       22    1    1    2    0    0  0.14246885885E-03 -0.83108728656E-03  0.77892474811E-01  0.77897038684E-01  0.00000000000E+00 0.  1.
</event>
<event>
 5   1  0.2192208E+09  0.9118800E+02  0.7818608E-02  0.1180000E+00
       11   -1    0    0    0    0  0.00000000000E+00  0.00000000000E+00  0.10559998763E+01  0.10560000000E+01  0.51109989000E-03 0. -1.
     -623   -1    0    0    0    0  0.00000000000E+00  0.00000000000E+00  0.47855275298E-10  0.17124000000E+03  0.17124000000E+03 0.  1.
       11    1    1    2    0    0 -0.22408730842E-01 -0.35892342509E-01  0.72090889260E+00  0.72214977956E+00  0.51109989000E-03 0. -1.
     -623    1    1    2    0    0  0.39758055210E-01  0.52589417006E-01  0.21229732174E-02  0.17124001270E+03  0.17124000000E+03 0.  1.
       22    1    1    2    0    0 -0.17349324344E-01 -0.16697074466E-01  0.33296800993E+00  0.33383751585E+00  0.00000000000E+00 0. -1.
</event>
<event>
 5   1  0.2192208E+09  0.9118800E+02  0.7818608E-02  0.1180000E+00
       11   -1    0    0    0    0  0.00000000000E+00  0.00000000000E+00  0.10559998763E+01  0.10560000000E+01  0.51109989000E-03 0. -1.
     -623   -1    0    0    0    0  0.00000000000E+00  0.00000000000E+00  0.47855275298E-10  0.17124000000E+03  0.17124000000E+03 0. -1.
       11    1    1    2    0    0  0.67168552852E-02 -0.17355507599E-01  0.63393617899E-01  0.66070733327E-01  0.51109989000E-03 0. -1.
     -623    1    1    2    0    0  0.44602322844E-02  0.54606552134E-02  0.28117317423E-02  0.17124000017E+03  0.17124000000E+03 0. -1.
       22    1    1    2    0    0 -0.11177087570E-01  0.11894852385E-01  0.98979452681E+00  0.98992909852E+00  0.00000000000E+00 0. -1.
</event>
<event>
 5   1  0.2192208E+09  0.9118800E+02  0.7818608E-02  0.1180000E+00
       11   -1    0    0    0    0  0.00000000000E+00  0.00000000000E+00  0.10559998763E+01  0.10560000000E+01  0.51109989000E-03 0.  1.
     -623   -1    0    0    0    0  0.00000000000E+00  0.00000000000E+00  0.47855275298E-10  0.17124000000E+03  0.17124000000E+03 0.  1.
       11    1    1    2    0    0  0.17870024911E-01 -0.21198498352E-02  0.66265151267E+00  0.66289600996E+00  0.51109989000E-03 0.  1.
     -623    1    1    2    0    0 -0.18734665678E-01 -0.44097477575E-02  0.30063993361E-03  0.17124000108E+03  0.17124000000E+03 0.  1.
       22    1    1    2    0    0  0.86464082163E-03  0.65295976056E-02  0.39304772685E+00  0.39310291124E+00  0.00000000000E+00 0.  1.
</event>
<event>
 5   1  0.2192208E+09  0.9118800E+02  0.7818608E-02  0.1180000E+00
       11   -1    0    0    0    0  0.00000000000E+00  0.00000000000E+00  0.10559998763E+01  0.10560000000E+01  0.51109989000E-03 0.  1.
     -623   -1    0    0    0    0  0.00000000000E+00  0.00000000000E+00  0.47855275298E-10  0.17124000000E+03  0.17124000000E+03 0. -1.
       11    1    1    2    0    0 -0.20556580251E-02  0.10858214770E-01  0.85720187054E+00  0.85727325553E+00  0.51109989000E-03 0.  1.
     -623    1    1    2    0    0  0.27463823497E-02 -0.13576572981E-01  0.91615072535E-04  0.17124000056E+03  0.17124000000E+03 0. -1.
       22    1    1    2    0    0 -0.69072324297E-03  0.27183528636E-02  0.19870597486E+00  0.19872576830E+00  0.00000000000E+00 0. -1.
</event>
<event>
 5   1  0.2192208E+09  0.9118800E+02  0.7818608E-02  0.1180000E+00
       11   -1    0    0    0    0  0.00000000000E+00  0.00000000000E+00  0.10559998763E+01  0.10560000000E+01  0.51109989000E-03 0. -1.
     -623   -1    0    0    0    0  0.00000000000E+00  0.00000000000E+00  0.47855275298E-10  0.17124000000E+03  0.17124000000E+03 0.  1.
       11    1    1    2    0    0 -0.80493793332E-02  0.58671117079E-02  0.76308272369E+00  0.76314790174E+00  0.51109989000E-03 0. -1.
     -623    1    1    2    0    0  0.42081488045E-02 -0.27643188568E-02  0.10676059336E-03  0.17124000007E+03  0.17124000000E+03 0.  1.
       22    1    1    2    0    0  0.38412305158E-02 -0.31027928426E-02  0.29281039531E+00  0.29285202745E+00  0.00000000000E+00 0. -1.
</event>
<event>
 5   1  0.2192208E+09  0.9118800E+02  0.7818608E-02  0.1180000E+00
       11   -1    0    0    0    0  0.00000000000E+00  0.00000000000E+00  0.10559998763E+01  0.10560000000E+01  0.51109989000E-03 0.  1.
     -623   -1    0    0    0    0  0.00000000000E+00  0.00000000000E+00  0.47855275298E-10  0.17124000000E+03  0.17124000000E+03 0.  1.
       11    1    1    2    0    0 -0.64049511603E-02  0.11218143926E-01  0.51498002426E+00  0.51514226847E+00  0.51109989000E-03 0.  1.
     -623    1    1    2    0    0  0.10568894938E-01 -0.21186294269E-01  0.27165510138E-03  0.17124000164E+03  0.17124000000E+03 0.  1.
       22    1    1    2    0    0 -0.41639442452E-02  0.99681512803E-02  0.54074824369E+00  0.54085614125E+00  0.00000000000E+00 0.  1.
</event>
<event>
 5   1  0.2192208E+09  0.9118800E+02  0.7818608E-02  0.1180000E+00
       11   -1    0    0    0    0  0.00000000000E+00  0.00000000000E+00  0.10559998763E+01  0.10560000000E+01  0.51109989000E-03 0. -1.
     -623   -1    0    0    0    0  0.00000000000E+00  0.00000000000E+00  0.47855275298E-10  0.17124000000E+03  0.17124000000E+03 0.  1.
       11    1    1    2    0    0  0.15281372263E-02 -0.14105818780E-01  0.81076032041E+00  0.81088462046E+00  0.51109989000E-03 0. -1.
     -623    1    1    2    0    0 -0.19927122653E-02  0.18319666827E-01  0.16183190779E-03  0.17124000099E+03  0.17124000000E+03 0.  1.
       22    1    1    2    0    0  0.46457684722E-03 -0.42138646695E-02  0.24507868211E+00  0.24511534614E+00  0.00000000000E+00 0. -1.
</event>
<event>
 5   1  0.2192208E+09  0.9118800E+02  0.7818608E-02  0.1180000E+00
       11   -1    0    0    0    0  0.00000000000E+00  0.00000000000E+00  0.10559998763E+01  0.10560000000E+01  0.51109989000E-03 0.  1.
     -623   -1    0    0    0    0  0.00000000000E+00  0.00000000000E+00  0.47855275298E-10  0.17124000000E+03  0.17124000000E+03 0. -1.
       11    1    1    2    0    0 -0.32591793934E-02  0.13346601004E-01  0.72189256906E+00  0.72202347364E+00  0.51109989000E-03 0.  1.
     -623    1    1    2    0    0  0.86300028677E-02 -0.22716961363E-01  0.30718922778E-03  0.17124000172E+03  0.17124000000E+03 0. -1.
       22    1    1    2    0    0 -0.53708235198E-02  0.93703604794E-02  0.33380012364E+00  0.33397480735E+00  0.00000000000E+00 0.  1.
</event>
<event>
 5   1  0.2192208E+09  0.9118800E+02  0.7818608E-02  0.1180000E+00
       11   -1    0    0    0    0  0.00000000000E+00  0.00000000000E+00  0.10559998763E+01  0.10560000000E+01  0.51109989000E-03 0.  1.
     -623   -1    0    0    0    0  0.00000000000E+00  0.00000000000E+00  0.47855275298E-10  0.17124000000E+03  0.17124000000E+03 0. -1.
       11    1    1    2    0    0  0.84839615760E-02 -0.34629916540E-02  0.85540405201E+00  0.85545328530E+00  0.51109989000E-03 0.  1.
     -623    1    1    2    0    0 -0.13750012593E-01  0.61616374238E-02  0.13708822663E-03  0.17124000066E+03  0.17124000000E+03 0. -1.
       22    1    1    2    0    0  0.52660510733E-02 -0.26986457951E-02  0.20045874046E+00  0.20054605608E+00  0.00000000000E+00 0.  1.
</event>
<event>
 5   1  0.2192208E+09  0.9118800E+02  0.7818608E-02  0.1180000E+00
       11   -1    0    0    0    0  0.00000000000E+00  0.00000000000E+00  0.10559998763E+01  0.10560000000E+01  0.51109989000E-03 0. -1.
     -623   -1    0    0    0    0  0.00000000000E+00  0.00000000000E+00  0.47855275298E-10  0.17124000000E+03  0.17124000000E+03 0.  1.
       11    1    1    2    0    0  0.14366675289E-02  0.95063142736E-02  0.64666953218E+00  0.64674119947E+00  0.51109989000E-03 0. -1.
     -623    1    1    2    0    0 -0.31234530033E-02 -0.16080029325E-01  0.12860236282E-03  0.17124000078E+03  0.17124000000E+03 0.  1.
       22    1    1    2    0    0  0.16867856002E-02  0.65737156988E-02  0.40920178435E+00  0.40925805954E+00  0.00000000000E+00 0. -1.
</event>
<event>
 5   1  0.2192208E+09  0.9118800E+02  0.7818608E-02  0.1180000E+00
       11   -1    0    0    0    0  0.00000000000E+00  0.00000000000E+00  0.10559998763E+01  0.10560000000E+01  0.51109989000E-03 0.  1.
     -623   -1    0    0    0    0  0.00000000000E+00  0.00000000000E+00  0.47855275298E-10  0.17124000000E+03  0.17124000000E+03 0. -1.
       11    1    1    2    0    0 -0.94670075007E-02 -0.24257570696E-01  0.90589815900E+00  0.90627246989E+00  0.51109989000E-03 0.  1.
     -623    1    1    2    0    0  0.11412271449E-01  0.28489477661E-01  0.44939878796E-03  0.17124000275E+03  0.17124000000E+03 0. -1.
       22    1    1    2    0    0 -0.19452692901E-02 -0.42319202994E-02  0.14965281264E+00  0.14972527360E+00  0.00000000000E+00 0. -1.
</event>
<event>
 5   1  0.2192208E+09  0.9118800E+02  0.7818608E-02  0.1180000E+00
       11   -1    0    0    0    0  0.00000000000E+00  0.00000000000E+00  0.10559998763E+01  0.10560000000E+01  0.51109989000E-03 0. -1.
     -623   -1    0    0    0    0  0.00000000000E+00  0.00000000000E+00  0.47855275298E-10  0.17124000000E+03  0.17124000000E+03 0.  1.
       11    1    1    2    0    0  0.88243263407E-03  0.53712150759E-02  0.74401182048E+00  0.74403190716E+00  0.51109989000E-03 0. -1.
     -623    1    1    2    0    0  0.10921597960E-03 -0.70987532995E-03  0.56366970334E-04  0.17124000000E+03  0.17124000000E+03 0.  1.
       22    1    1    2    0    0 -0.99164861374E-03 -0.46613397456E-02  0.31193168957E+00  0.31196809198E+00  0.00000000000E+00 0.  1.
</event>
<event>
 5   1  0.2192208E+09  0.9118800E+02  0.7818608E-02  0.1180000E+00
       11   -1    0    0    0    0  0.00000000000E+00  0.00000000000E+00  0.10559998763E+01  0.10560000000E+01  0.51109989000E-03 0. -1.
     -623   -1    0    0    0    0  0.00000000000E+00  0.00000000000E+00  0.47855275298E-10  0.17124000000E+03  0.17124000000E+03 0.  1.
       11    1    1    2    0    0  0.25252025310E-03  0.89251613456E-03  0.20382386217E-01  0.20409881002E-01  0.51109989000E-03 0.  1.
     -623    1    1    2    0    0 -0.38336941157E-02 -0.34204721437E-01  0.57294983893E-03  0.17124000346E+03  0.17124000000E+03 0.  1.
       22    1    1    2    0    0  0.35811738829E-02  0.33312205483E-01  0.10350445459E+01  0.10355866646E+01  0.00000000000E+00 0. -1.
</event>
<event>
 5   1  0.2192208E+09  0.9118800E+02  0.7818608E-02  0.1180000E+00
       11   -1    0    0    0    0  0.00000000000E+00  0.00000000000E+00  0.10559998763E+01  0.10560000000E+01  0.51109989000E-03 0. -1.
     -623   -1    0    0    0    0  0.00000000000E+00  0.00000000000E+00  0.47855275298E-10  0.17124000000E+03  0.17124000000E+03 0. -1.
       11    1    1    2    0    0 -0.10017134466E-02 -0.25775855886E-02  0.24876483399E+00  0.24878072921E+00  0.51109989000E-03 0.  1.
     -623    1    1    2    0    0  0.58680666315E-02  0.11082976953E-01  0.75710723262E-04  0.17124000046E+03  0.17124000000E+03 0. -1.
       22    1    1    2    0    0 -0.48663526534E-02 -0.85053903611E-02  0.80715923602E+00  0.80721871593E+00  0.00000000000E+00 0. -1.
</event>
<event>
 5   1  0.2192208E+09  0.9118800E+02  0.7818608E-02  0.1180000E+00
       11   -1    0    0    0    0  0.00000000000E+00  0.00000000000E+00  0.10559998763E+01  0.10560000000E+01  0.51109989000E-03 0.  1.
     -623   -1    0    0    0    0  0.00000000000E+00  0.00000000000E+00  0.47855275298E-10  0.17124000000E+03  0.17124000000E+03 0. -1.
       11    1    1    2    0    0  0.60997498477E-02  0.13800544946E-01  0.93782188639E+00  0.93794339584E+00  0.51109989000E-03 0.  1.
     -623    1    1    2    0    0 -0.69092225731E-02 -0.15446149461E-01  0.13646712332E-03  0.17124000084E+03  0.17124000000E+03 0. -1.
       22    1    1    2    0    0  0.80946025013E-03  0.16455766255E-02  0.11803961640E+00  0.11805386139E+00  0.00000000000E+00 0.  1.
</event>
<event>
 5   1  0.2192208E+09  0.9118800E+02  0.7818608E-02  0.1180000E+00
       11   -1    0    0    0    0  0.00000000000E+00  0.00000000000E+00  0.10559998763E+01  0.10560000000E+01  0.51109989000E-03 0.  1.
     -623   -1    0    0    0    0  0.00000000000E+00  0.00000000000E+00  0.47855275298E-10  0.17124000000E+03  0.17124000000E+03 0.  1.
       11    1    1    2    0    0 -0.21814477793E-02  0.20556602017E-02  0.17081862459E+00  0.17084568530E+00  0.51109989000E-03 0. -1.
     -623    1    1    2    0    0  0.90602835258E-02 -0.13275783782E-01  0.12553835541E-03  0.17124000075E+03  0.17124000000E+03 0.  1.
       22    1    1    2    0    0 -0.68788370664E-02  0.11220125514E-01  0.88505586722E+00  0.88515371417E+00  0.00000000000E+00 0.  1.
</event>
<event>
 5   1  0.2192208E+09  0.9118800E+02  0.7818608E-02  0.1180000E+00
       11   -1    0    0    0    0  0.00000000000E+00  0.00000000000E+00  0.10559998763E+01  0.10560000000E+01  0.51109989000E-03 0. -1.
     -623   -1    0    0    0    0  0.00000000000E+00  0.00000000000E+00  0.47855275298E-10  0.17124000000E+03  0.17124000000E+03 0. -1.
       11    1    1    2    0    0  0.56934996292E-03 -0.10928217174E-04  0.10058472508E+01  0.10058475418E+01  0.51109989000E-03 0. -1.
     -623    1    1    2    0    0 -0.15463249760E-02  0.63556714846E-03  0.13583030348E-04  0.17124000001E+03  0.17124000000E+03 0. -1.
       22    1    1    2    0    0  0.97697502271E-03 -0.62463893524E-03  0.50139049141E-01  0.50152456597E-01  0.00000000000E+00 0.  1.
</event>
<event>
 5   1  0.2192208E+09  0.9118800E+02  0.7818608E-02  0.1180000E+00
       11   -1    0    0    0    0  0.00000000000E+00  0.00000000000E+00  0.10559998763E+01  0.10560000000E+01  0.51109989000E-03 0. -1.
     -623   -1    0    0    0    0  0.00000000000E+00  0.00000000000E+00  0.47855275298E-10  0.17124000000E+03  0.17124000000E+03 0.  1.
       11    1    1    2    0    0  0.35007804072E-02  0.62102364029E-02  0.99895489332E-01  0.10015084878E+00  0.51109989000E-03 0. -1.
     -623    1    1    2    0    0  0.13133517065E-02  0.39654566522E-02  0.32157629011E-03  0.17124000005E+03  0.17124000000E+03 0.  1.
       22    1    1    2    0    0 -0.48141321138E-02 -0.10175693055E-01  0.95578281084E+00  0.95584910006E+00  0.00000000000E+00 0. -1.
</event>
<event>
 5   1  0.2192208E+09  0.9118800E+02  0.7818608E-02  0.1180000E+00
       11   -1    0    0    0    0  0.00000000000E+00  0.00000000000E+00  0.10559998763E+01  0.10560000000E+01  0.51109989000E-03 0.  1.
     -623   -1    0    0    0    0  0.00000000000E+00  0.00000000000E+00  0.47855275298E-10  0.17124000000E+03  0.17124000000E+03 0. -1.
       11    1    1    2    0    0 -0.14980640661E-01 -0.16088490673E-01  0.90151664579E+00  0.90178477642E+00  0.51109989000E-03 0.  1.
     -623    1    1    2    0    0  0.16902922482E-01  0.20376972111E-01  0.34168004541E-03  0.17124000205E+03  0.17124000000E+03 0. -1.
       22    1    1    2    0    0 -0.19222820190E-02 -0.42884816776E-02  0.15414156293E+00  0.15421318901E+00  0.00000000000E+00 0.  1.
</event>
<event>
 5   1  0.2192208E+09  0.9118800E+02  0.7818608E-02  0.1180000E+00
       11   -1    0    0    0    0  0.00000000000E+00  0.00000000000E+00  0.10559998763E+01  0.10560000000E+01  0.51109989000E-03 0. -1.
     -623   -1    0    0    0    0  0.00000000000E+00  0.00000000000E+00  0.47855275298E-10  0.17124000000E+03  0.17124000000E+03 0. -1.
       11    1    1    2    0    0 -0.80754547070E-04 -0.11116276269E-01  0.66519431962E+00  0.66528739819E+00  0.51109989000E-03 0. -1.
     -623    1    1    2    0    0  0.22838517308E-02 -0.14280098695E-03  0.26144316902E-03  0.17124000002E+03  0.17124000000E+03 0. -1.
       22    1    1    2    0    0 -0.22030971824E-02  0.11259077256E-01  0.39054411297E+00  0.39071258572E+00  0.00000000000E+00 0. -1.
</event>
<event>
 5   1  0.2192208E+09  0.9118800E+02  0.7818608E-02  0.1180000E+00
       11   -1    0    0    0    0  0.00000000000E+00  0.00000000000E+00  0.10559998763E+01  0.10560000000E+01  0.51109989000E-03 0.  1.
     -623   -1    0    0    0    0  0.00000000000E+00  0.00000000000E+00  0.47855275298E-10  0.17124000000E+03  0.17124000000E+03 0.  1.
       11    1    1    2    0    0 -0.13451372111E-01 -0.28410609988E-02  0.43599356008E+00  0.43621056463E+00  0.51109989000E-03 0.  1.
     -623    1    1    2    0    0  0.19296868460E-01 -0.47481557407E-02  0.29206883301E-03  0.17124000115E+03  0.17124000000E+03 0.  1.
       22    1    1    2    0    0 -0.58454963771E-02  0.75892167464E-02  0.61971424899E+00  0.61978828356E+00  0.00000000000E+00 0.  1.
</event>
<event>
 5   1  0.2192208E+09  0.9118800E+02  0.7818608E-02  0.1180000E+00
       11   -1    0    0    0    0  0.00000000000E+00  0.00000000000E+00  0.10559998763E+01  0.10560000000E+01  0.51109989000E-03 0.  1.
     -623   -1    0    0    0    0  0.00000000000E+00  0.00000000000E+00  0.47855275298E-10  0.17124000000E+03  0.17124000000E+03 0.  1.
       11    1    1    2    0    0 -0.29918048315E-02 -0.80802428249E-02  0.92825389192E+00  0.92829402147E+00  0.51109989000E-03 0.  1.
     -623    1    1    2    0    0  0.29153952378E-02  0.96152519662E-02  0.49549212213E-04  0.17124000029E+03  0.17124000000E+03 0.  1.
       22    1    1    2    0    0  0.76408886848E-04 -0.15350114726E-02  0.12769669125E+00  0.12770593978E+00  0.00000000000E+00 0.  1.
</event>
<event>
 5   1  0.2192208E+09  0.9118800E+02  0.7818608E-02  0.1180000E+00
       11   -1    0    0    0    0  0.00000000000E+00  0.00000000000E+00  0.10559998763E+01  0.10560000000E+01  0.51109989000E-03 0. -1.
     -623   -1    0    0    0    0  0.00000000000E+00  0.00000000000E+00  0.47855275298E-10  0.17124000000E+03  0.17124000000E+03 0.  1.
       11    1    1    2    0    0 -0.17978488139E-02  0.33225659948E-02  0.79721255893E+00  0.79722167372E+00  0.51109989000E-03 0. -1.
     -623    1    1    2    0    0  0.59272862547E-03 -0.61022297940E-03  0.26014414812E-04  0.17124000000E+03  0.17124000000E+03 0.  1.
       22    1    1    2    0    0  0.12051201903E-02 -0.27123430172E-02  0.25876129974E+00  0.25877832089E+00  0.00000000000E+00 0. -1.
</event>
<event>
 5   1  0.2192208E+09  0.9118800E+02  0.7818608E-02  0.1180000E+00
       11   -1    0    0    0    0  0.00000000000E+00  0.00000000000E+00  0.10559998763E+01  0.10560000000E+01  0.51109989000E-03 0. -1.
     -623   -1    0    0    0    0  0.00000000000E+00  0.00000000000E+00  0.47855275298E-10  0.17124000000E+03  0.17124000000E+03 0. -1.
       11    1    1    2    0    0 -0.42441249317E-03  0.11074345512E-02  0.98835477902E+00  0.98835562273E+00  0.51109989000E-03 0. -1.
     -623    1    1    2    0    0  0.22502970807E-04 -0.26066610032E-03  0.72144565275E-05  0.17124000000E+03  0.17124000000E+03 0. -1.
       22    1    1    2    0    0  0.40190952298E-03 -0.84676845801E-03  0.67637854130E-01  0.67644348318E-01  0.00000000000E+00 0. -1.
</event>
<event>
 5   1  0.2192208E+09  0.9118800E+02  0.7818608E-02  0.1180000E+00
       11   -1    0    0    0    0  0.00000000000E+00  0.00000000000E+00  0.10559998763E+01  0.10560000000E+01  0.51109989000E-03 0. -1.
     -623   -1    0    0    0    0  0.00000000000E+00  0.00000000000E+00  0.47855275298E-10  0.17124000000E+03  0.17124000000E+03 0.  1.
       11    1    1    2    0    0 -0.34640261106E-03 -0.13474737559E-02  0.92325053274E+00  0.92325172250E+00  0.51109989000E-03 0. -1.
     -623    1    1    2    0    0 -0.99643905484E-05  0.73444547978E-05  0.83091452987E-05  0.17124000000E+03  0.17124000000E+03 0.  1.
       22    1    1    2    0    0  0.35636700187E-03  0.13401293010E-02  0.13274106214E+00  0.13274830516E+00  0.00000000000E+00 0. -1.
</event>
<event>
 5   1  0.2192208E+09  0.9118800E+02  0.7818608E-02  0.1180000E+00
       11   -1    0    0    0    0  0.00000000000E+00  0.00000000000E+00  0.10559998763E+01  0.10560000000E+01  0.51109989000E-03 0. -1.
     -623   -1    0    0    0    0  0.00000000000E+00  0.00000000000E+00  0.47855275298E-10  0.17124000000E+03  0.17124000000E+03 0.  1.
       11    1    1    2    0    0 -0.15991658815E-01  0.13453248809E-01  0.96345089096E+00  0.96367764505E+00  0.51109989000E-03 0. -1.
     -623    1    1    2    0    0  0.17499602183E-01 -0.14647599498E-01  0.24819424718E-03  0.17124000152E+03  0.17124000000E+03 0.  1.
       22    1    1    2    0    0 -0.15079549944E-02  0.11943604194E-02  0.92301492540E-01  0.92321535679E-01  0.00000000000E+00 0.  1.
</event>
<event>
 5   1  0.2192208E+09  0.9118800E+02  0.7818608E-02  0.1180000E+00
       11   -1    0    0    0    0  0.00000000000E+00  0.00000000000E+00  0.10559998763E+01  0.10560000000E+01  0.51109989000E-03 0. -1.
     -623   -1    0    0    0    0  0.00000000000E+00  0.00000000000E+00  0.47855275298E-10  0.17124000000E+03  0.17124000000E+03 0.  1.
       11    1    1    2    0    0  0.15936231070E-02 -0.32010418042E-02  0.81784713152E+00  0.81785510823E+00  0.51109989000E-03 0. -1.
     -623    1    1    2    0    0  0.27627997607E-03  0.68754817642E-03  0.28461069453E-04  0.17124000000E+03  0.17124000000E+03 0.  1.
       22    1    1    2    0    0 -0.18699030839E-02  0.25134936258E-02  0.23812428695E+00  0.23814489334E+00  0.00000000000E+00 0. -1.
</event>
<event>
 5   1  0.2192208E+09  0.9118800E+02  0.7818608E-02  0.1180000E+00
       11   -1    0    0    0    0  0.00000000000E+00  0.00000000000E+00  0.10559998763E+01  0.10560000000E+01  0.51109989000E-03 0. -1.
     -623   -1    0    0    0    0  0.00000000000E+00  0.00000000000E+00  0.47855275298E-10  0.17124000000E+03  0.17124000000E+03 0.  1.
       11    1    1    2    0    0  0.23151124317E-02  0.42053181680E-02  0.85294974148E+00  0.85296340318E+00  0.51109989000E-03 0. -1.
     -623    1    1    2    0    0  0.71306395146E-03  0.38784361624E-04  0.80489915312E-04  0.17124000000E+03  0.17124000000E+03 0.  1.
       22    1    1    2    0    0 -0.30281763831E-02 -0.42441025297E-02  0.20296964484E+00  0.20303659518E+00  0.00000000000E+00 0. -1.
</event>
<event>
 5   1  0.2192208E+09  0.9118800E+02  0.7818608E-02  0.1180000E+00
       11   -1    0    0    0    0  0.00000000000E+00  0.00000000000E+00  0.10559998763E+01  0.10560000000E+01  0.51109989000E-03 0. -1.
     -623   -1    0    0    0    0  0.00000000000E+00  0.00000000000E+00  0.47855275298E-10  0.17124000000E+03  0.17124000000E+03 0.  1.
       11    1    1    2    0    0  0.96785912518E-03  0.17595057117E-02  0.90187502266E+00  0.90187740316E+00  0.51109989000E-03 0. -1.
     -623    1    1    2    0    0 -0.47925293574E-04  0.42822630049E-04  0.15541243080E-04  0.17124000000E+03  0.17124000000E+03 0.  1.
       22    1    1    2    0    0 -0.91993383132E-03 -0.18023283420E-02  0.15410931894E+00  0.15412260331E+00  0.00000000000E+00 0. -1.
</event>
<event>
 5   1  0.2192208E+09  0.9118800E+02  0.7818608E-02  0.1180000E+00
       11   -1    0    0    0    0  0.00000000000E+00  0.00000000000E+00  0.10559998763E+01  0.10560000000E+01  0.51109989000E-03 0.  1.
     -623   -1    0    0    0    0  0.00000000000E+00  0.00000000000E+00  0.47855275298E-10  0.17124000000E+03  0.17124000000E+03 0. -1.
       11    1    1    2    0    0 -0.54411133530E-02 -0.37008924138E-02  0.99658861253E+00  0.99661046863E+00  0.51109989000E-03 0.  1.
     -623    1    1    2    0    0  0.10295630028E-02  0.24918275502E-02  0.19817162465E-03  0.17124000002E+03  0.17124000000E+03 0. -1.
       22    1    1    2    0    0  0.44115503486E-02  0.12090648597E-02  0.59213093863E-01  0.59389511693E-01  0.00000000000E+00 0.  1.
</event>
<event>
 5   1  0.2192208E+09  0.9118800E+02  0.7818608E-02  0.1180000E+00
       11   -1    0    0    0    0  0.00000000000E+00  0.00000000000E+00  0.10559998763E+01  0.10560000000E+01  0.51109989000E-03 0. -1.
     -623   -1    0    0    0    0  0.00000000000E+00  0.00000000000E+00  0.47855275298E-10  0.17124000000E+03  0.17124000000E+03 0.  1.
       11    1    1    2    0    0 -0.66895519129E-02  0.12482226008E-01  0.96365212261E+00  0.96375631293E+00  0.51109989000E-03 0. -1.
     -623    1    1    2    0    0  0.72612903750E-02 -0.13502249471E-01  0.11216487120E-03  0.17124000069E+03  0.17124000000E+03 0.  1.
       22    1    1    2    0    0 -0.57174545343E-03  0.10200364626E-02  0.92236605505E-01  0.92244017488E-01  0.00000000000E+00 0. -1.
</event>
<event>
 5   1  0.2192208E+09  0.9118800E+02  0.7818608E-02  0.1180000E+00
       11   -1    0    0    0    0  0.00000000000E+00  0.00000000000E+00  0.10559998763E+01  0.10560000000E+01  0.51109989000E-03 0.  1.
     -623   -1    0    0    0    0  0.00000000000E+00  0.00000000000E+00  0.47855275298E-10  0.17124000000E+03  0.17124000000E+03 0. -1.
       11    1    1    2    0    0  0.58969820580E-02 -0.75321388036E-03  0.50592931106E+00  0.50596449553E+00  0.51109989000E-03 0.  1.
     -623    1    1    2    0    0 -0.11653371985E-02  0.25034697137E-01  0.59348783019E-03  0.17124000183E+03  0.17124000000E+03 0. -1.
       22    1    1    2    0    0 -0.47316448595E-02 -0.24281483259E-01  0.54947707757E+00  0.55003366957E+00  0.00000000000E+00 0. -1.
</event>
<event>
 5   1  0.2192208E+09  0.9118800E+02  0.7818608E-02  0.1180000E+00
       11   -1    0    0    0    0  0.00000000000E+00  0.00000000000E+00  0.10559998763E+01  0.10560000000E+01  0.51109989000E-03 0. -1.
     -623   -1    0    0    0    0  0.00000000000E+00  0.00000000000E+00  0.47855275298E-10  0.17124000000E+03  0.17124000000E+03 0.  1.
       11    1    1    2    0    0  0.29935318994E-02  0.26072867188E-01  0.94031274335E+00  0.94067904843E+00  0.51109989000E-03 0. -1.
     -623    1    1    2    0    0 -0.49785085701E-02 -0.29222492970E-01  0.42885915077E-03  0.17124000257E+03  0.17124000000E+03 0.  1.
       22    1    1    2    0    0  0.19849767366E-02  0.31496261688E-02  0.11525828784E+00  0.11531839920E+00  0.00000000000E+00 0. -1.
</event>
<event>
 5   1  0.2192208E+09  0.9118800E+02  0.7818608E-02  0.1180000E+00
       11   -1    0    0    0    0  0.00000000000E+00  0.00000000000E+00  0.10559998763E+01  0.10560000000E+01  0.51109989000E-03 0.  1.
     -623   -1    0    0    0    0  0.00000000000E+00  0.00000000000E+00  0.47855275298E-10  0.17124000000E+03  0.17124000000E+03 0. -1.
       11    1    1    2    0    0 -0.48356261296E-02 -0.21575615965E-01  0.94177115815E+00  0.94203082011E+00  0.51109989000E-03 0.  1.
     -623    1    1    2    0    0  0.59509172514E-02  0.20257701697E-01  0.27391817992E-03  0.17124000130E+03  0.17124000000E+03 0. -1.
       22    1    1    2    0    0 -0.11152911556E-02  0.13179141531E-02  0.11395480602E+00  0.11396788402E+00  0.00000000000E+00 0. -1.
</event>
<event>
 5   1  0.2192208E+09  0.9118800E+02  0.7818608E-02  0.1180000E+00
       11   -1    0    0    0    0  0.00000000000E+00  0.00000000000E+00  0.10559998763E+01  0.10560000000E+01  0.51109989000E-03 0. -1.
     -623   -1    0    0    0    0  0.00000000000E+00  0.00000000000E+00  0.47855275298E-10  0.17124000000E+03  0.17124000000E+03 0. -1.
       11    1    1    2    0    0  0.58374142165E-04 -0.84121241211E-03  0.99050678931E+00  0.99050728010E+00  0.51109989000E-03 0. -1.
     -623    1    1    2    0    0 -0.12174979268E-04 -0.10783519379E-04  0.59254934599E-05  0.17124000000E+03  0.17124000000E+03 0. -1.
       22    1    1    2    0    0 -0.46199161677E-04  0.85199593257E-03  0.65487267399E-01  0.65492825736E-01  0.00000000000E+00 0.  1.
</event>
<event>
 5   1  0.2192208E+09  0.9118800E+02  0.7818608E-02  0.1180000E+00
       11   -1    0    0    0    0  0.00000000000E+00  0.00000000000E+00  0.10559998763E+01  0.10560000000E+01  0.51109989000E-03 0.  1.
     -623   -1    0    0    0    0  0.00000000000E+00  0.00000000000E+00  0.47855275298E-10  0.17124000000E+03  0.17124000000E+03 0. -1.
       11    1    1    2    0    0 -0.10708870644E-02  0.42261608583E-02  0.87697925003E+00  0.87699023566E+00  0.51109989000E-03 0.  1.
     -623    1    1    2    0    0  0.77845131313E-03  0.21310031550E-03  0.66155907632E-04  0.17124000000E+03  0.17124000000E+03 0. -1.
       22    1    1    2    0    0  0.29243575261E-03 -0.44392611734E-02  0.17895446864E+00  0.17900976064E+00  0.00000000000E+00 0.  1.
</event>
<event>
 5   1  0.2192208E+09  0.9118800E+02  0.7818608E-02  0.1180000E+00
       11   -1    0    0    0    0  0.00000000000E+00  0.00000000000E+00  0.10559998763E+01  0.10560000000E+01  0.51109989000E-03 0. -1.
     -623   -1    0    0    0    0  0.00000000000E+00  0.00000000000E+00  0.47855275298E-10  0.17124000000E+03  0.17124000000E+03 0. -1.
       11    1    1    2    0    0  0.61854941730E-03 -0.12382202373E-01  0.91981189732E+00  0.91989558604E+00  0.51109989000E-03 0. -1.
     -623    1    1    2    0    0 -0.59273529819E-03  0.14542708126E-01  0.10133508022E-03  0.17124000062E+03  0.17124000000E+03 0. -1.
       22    1    1    2    0    0 -0.25814176918E-04 -0.21605043343E-02  0.13608654099E+00  0.13610369239E+00  0.00000000000E+00 0.  1.
</event>
<event>
 5   1  0.2192208E+09  0.9118800E+02  0.7818608E-02  0.1180000E+00
       11   -1    0    0    0    0  0.00000000000E+00  0.00000000000E+00  0.10559998763E+01  0.10560000000E+01  0.51109989000E-03 0. -1.
     -623   -1    0    0    0    0  0.00000000000E+00  0.00000000000E+00  0.47855275298E-10  0.17124000000E+03  0.17124000000E+03 0. -1.
       11    1    1    2    0    0  0.33221936614E-03  0.30042378371E-02  0.76696931954E+00  0.76697544560E+00  0.51109989000E-03 0. -1.
     -623    1    1    2    0    0 -0.31455882214E-03 -0.40597885171E-04  0.21198148515E-04  0.17124000000E+03  0.17124000000E+03 0. -1.
       22    1    1    2    0    0 -0.17660546496E-04 -0.29636399523E-02  0.28900935028E+00  0.28902454571E+00  0.00000000000E+00 0.  1.
</event>
<event>
 5   1  0.2192208E+09  0.9118800E+02  0.7818608E-02  0.1180000E+00
       11   -1    0    0    0    0  0.00000000000E+00  0.00000000000E+00  0.10559998763E+01  0.10560000000E+01  0.51109989000E-03 0. -1.
     -623   -1    0    0    0    0  0.00000000000E+00  0.00000000000E+00  0.47855275298E-10  0.17124000000E+03  0.17124000000E+03 0. -1.
       11    1    1    2    0    0  0.43427389799E-02  0.50779443722E-02  0.93782236715E+00  0.93784630855E+00  0.51109989000E-03 0. -1.
     -623    1    1    2    0    0 -0.30805476249E-02 -0.28731228355E-02  0.51186177110E-04  0.17124000005E+03  0.17124000000E+03 0. -1.
       22    1    1    2    0    0 -0.12621913585E-02 -0.22048215400E-02  0.11812632181E+00  0.11815363841E+00  0.00000000000E+00 0. -1.
</event>
<event>
 5   1  0.2192208E+09  0.9118800E+02  0.7818608E-02  0.1180000E+00
       11   -1    0    0    0    0  0.00000000000E+00  0.00000000000E+00  0.10559998763E+01  0.10560000000E+01  0.51109989000E-03 0. -1.
     -623   -1    0    0    0    0  0.00000000000E+00  0.00000000000E+00  0.47855275298E-10  0.17124000000E+03  0.17124000000E+03 0. -1.
       11    1    1    2    0    0  0.10083437888E-01 -0.18737988903E-01  0.10040443340E+01  0.10042699208E+01  0.51109989000E-03 0. -1.
     -623    1    1    2    0    0 -0.10568030064E-01  0.19834545465E-01  0.24083237287E-03  0.17124000147E+03  0.17124000000E+03 0. -1.
       22    1    1    2    0    0  0.48458365964E-03 -0.10965405773E-02  0.51713859155E-01  0.51727753201E-01  0.00000000000E+00 0. -1.
</event>
<event>
 5   1  0.2192208E+09  0.9118800E+02  0.7818608E-02  0.1180000E+00
       11   -1    0    0    0    0  0.00000000000E+00  0.00000000000E+00  0.10559998763E+01  0.10560000000E+01  0.51109989000E-03 0.  1.
     -623   -1    0    0    0    0  0.00000000000E+00  0.00000000000E+00  0.47855275298E-10  0.17124000000E+03  0.17124000000E+03 0.  1.
       11    1    1    2    0    0 -0.72068328168E-02  0.71963912160E-02  0.58819082059E+00  0.58827921019E+00  0.51109989000E-03 0.  1.
     -623    1    1    2    0    0  0.89764344171E-02  0.20099173220E-02  0.18247567990E-03  0.17124000025E+03  0.17124000000E+03 0.  1.
       22    1    1    2    0    0 -0.17696016025E-02 -0.92063085385E-02  0.46762658035E+00  0.46772054291E+00  0.00000000000E+00 0.  1.
</event>
<event>
 5   1  0.2192208E+09  0.9118800E+02  0.7818608E-02  0.1180000E+00
       11   -1    0    0    0    0  0.00000000000E+00  0.00000000000E+00  0.10559998763E+01  0.10560000000E+01  0.51109989000E-03 0.  1.
     -623   -1    0    0    0    0  0.00000000000E+00  0.00000000000E+00  0.47855275298E-10  0.17124000000E+03  0.17124000000E+03 0.  1.
       11    1    1    2    0    0  0.16121058602E-01 -0.21216560796E-01  0.99821624538E+00  0.99857196273E+00  0.51109989000E-03 0.  1.
     -623    1    1    2    0    0 -0.17026626076E-01  0.22449731578E-01  0.37829661464E-03  0.17124000232E+03  0.17124000000E+03 0.  1.
       22    1    1    2    0    0  0.90554817591E-03 -0.12331453378E-02  0.57404137944E-01  0.57424521922E-01  0.00000000000E+00 0.  1.
</event>
<event>
 5   1  0.2192208E+09  0.9118800E+02  0.7818608E-02  0.1180000E+00
       11   -1    0    0    0    0  0.00000000000E+00  0.00000000000E+00  0.10559998763E+01  0.10560000000E+01  0.51109989000E-03 0. -1.
     -623   -1    0    0    0    0  0.00000000000E+00  0.00000000000E+00  0.47855275298E-10  0.17124000000E+03  0.17124000000E+03 0.  1.
       11    1    1    2    0    0  0.30444670707E-02  0.98702654694E-02  0.63661107864E+00  0.63669507426E+00  0.51109989000E-03 0. -1.
     -623    1    1    2    0    0 -0.47019228520E-02 -0.16123732315E-01  0.13460635759E-03  0.17124000082E+03  0.17124000000E+03 0.  1.
       22    1    1    2    0    0  0.16574555569E-02  0.62534660762E-02  0.41925414098E+00  0.41930405164E+00  0.00000000000E+00 0. -1.
</event>
<event>
 5   1  0.2192208E+09  0.9118800E+02  0.7818608E-02  0.1180000E+00
       11   -1    0    0    0    0  0.00000000000E+00  0.00000000000E+00  0.10559998763E+01  0.10560000000E+01  0.51109989000E-03 0. -1.
     -623   -1    0    0    0    0  0.00000000000E+00  0.00000000000E+00  0.47855275298E-10  0.17124000000E+03  0.17124000000E+03 0. -1.
       11    1    1    2    0    0 -0.95151480606E-03 -0.99993064487E-02  0.92816861556E+00  0.92822310446E+00  0.51109989000E-03 0. -1.
     -623    1    1    2    0    0  0.94257980657E-03  0.11516004310E-01  0.63757268800E-04  0.17124000039E+03  0.17124000000E+03 0. -1.
       22    1    1    2    0    0  0.89342992031E-05 -0.15167064166E-02  0.12776828803E+00  0.12777729025E+00  0.00000000000E+00 0.  1.
</event>
<event>
 5   1  0.2192208E+09  0.9118800E+02  0.7818608E-02  0.1180000E+00
       11   -1    0    0    0    0  0.00000000000E+00  0.00000000000E+00  0.10559998763E+01  0.10560000000E+01  0.51109989000E-03 0. -1.
     -623   -1    0    0    0    0  0.00000000000E+00  0.00000000000E+00  0.47855275298E-10  0.17124000000E+03  0.17124000000E+03 0. -1.
       11    1    1    2    0    0  0.10386144360E-02 -0.19163695604E-02  0.87773545034E+00  0.87773830564E+00  0.51109989000E-03 0. -1.
     -623    1    1    2    0    0  0.67304532190E-04  0.99806287775E-04  0.15418452606E-04  0.17124000000E+03  0.17124000000E+03 0. -1.
       22    1    1    2    0    0 -0.11059189687E-02  0.18165632719E-02  0.17824901592E+00  0.17826170266E+00  0.00000000000E+00 0.  1.
</event>
<event>
 5   1  0.2192208E+09  0.9118800E+02  0.7818608E-02  0.1180000E+00
       11   -1    0    0    0    0  0.00000000000E+00  0.00000000000E+00  0.10559998763E+01  0.10560000000E+01  0.51109989000E-03 0.  1.
     -623   -1    0    0    0    0  0.00000000000E+00  0.00000000000E+00  0.47855275298E-10  0.17124000000E+03  0.17124000000E+03 0. -1.
       11    1    1    2    0    0 -0.89872154527E-02  0.10509100507E-01  0.98411082959E+00  0.98420810674E+00  0.51109989000E-03 0.  1.
     -623    1    1    2    0    0  0.96423704417E-02 -0.11312970528E-01  0.10528912500E-03  0.17124000065E+03  0.17124000000E+03 0. -1.
       22    1    1    2    0    0 -0.65514013125E-03  0.80385258973E-03  0.71782130646E-01  0.71789620891E-01  0.00000000000E+00 0.  1.
</event>
<event>
 5   1  0.2192208E+09  0.9118800E+02  0.7818608E-02  0.1180000E+00
       11   -1    0    0    0    0  0.00000000000E+00  0.00000000000E+00  0.10559998763E+01  0.10560000000E+01  0.51109989000E-03 0. -1.
     -623   -1    0    0    0    0  0.00000000000E+00  0.00000000000E+00  0.47855275298E-10  0.17124000000E+03  0.17124000000E+03 0. -1.
       11    1    1    2    0    0 -0.77800613994E-02  0.10621822958E-01  0.90472516039E+00  0.90482110361E+00  0.51109989000E-03 0. -1.
     -623    1    1    2    0    0  0.88207241002E-02 -0.12701447537E-01  0.11440448945E-03  0.17124000070E+03  0.17124000000E+03 0. -1.
       22    1    1    2    0    0 -0.10406683938E-02  0.20796327764E-02  0.15116099297E+00  0.15117887967E+00  0.00000000000E+00 0. -1.
</event>
<event>
 5   1  0.2192208E+09  0.9118800E+02  0.7818608E-02  0.1180000E+00
       11   -1    0    0    0    0  0.00000000000E+00  0.00000000000E+00  0.10559998763E+01  0.10560000000E+01  0.51109989000E-03 0.  1.
     -623   -1    0    0    0    0  0.00000000000E+00  0.00000000000E+00  0.47855275298E-10  0.17124000000E+03  0.17124000000E+03 0.  1.
       11    1    1    2    0    0 -0.13610503984E-02  0.19861846296E-02  0.91204588525E+00  0.91204920669E+00  0.51109989000E-03 0.  1.
     -623    1    1    2    0    0  0.18347249930E-02 -0.65973441980E-05  0.17599140516E-04  0.17124000001E+03  0.17124000000E+03 0.  1.
       22    1    1    2    0    0 -0.47367465824E-03 -0.19795872852E-02  0.14393642855E+00  0.14395082007E+00  0.00000000000E+00 0.  1.
</event>
<event>
 5   1  0.2192208E+09  0.9118800E+02  0.7818608E-02  0.1180000E+00
       11   -1    0    0    0    0  0.00000000000E+00  0.00000000000E+00  0.10559998763E+01  0.10560000000E+01  0.51109989000E-03 0. -1.
     -623   -1    0    0    0    0  0.00000000000E+00  0.00000000000E+00  0.47855275298E-10  0.17124000000E+03  0.17124000000E+03 0. -1.
       11    1    1    2    0    0 -0.87508050775E-02  0.13575429390E-01  0.89111228645E+00  0.89125879359E+00  0.51109989000E-03 0. -1.
     -623    1    1    2    0    0  0.98718585455E-02 -0.15541908184E-01  0.16292531969E-03  0.17124000099E+03  0.17124000000E+03 0. -1.
       22    1    1    2    0    0 -0.11210543744E-02  0.19664802207E-02  0.16472476153E+00  0.16474031343E+00  0.00000000000E+00 0. -1.
</event>
<event>
 5   1  0.2192208E+09  0.9118800E+02  0.7818608E-02  0.1180000E+00
       11   -1    0    0    0    0  0.00000000000E+00  0.00000000000E+00  0.10559998763E+01  0.10560000000E+01  0.51109989000E-03 0. -1.
     -623   -1    0    0    0    0  0.00000000000E+00  0.00000000000E+00  0.47855275298E-10  0.17124000000E+03  0.17124000000E+03 0. -1.
       11    1    1    2    0    0  0.19759145426E-01  0.19937185281E-01  0.73558541494E+00  0.73612096769E+00  0.51109989000E-03 0. -1.
     -623    1    1    2    0    0 -0.28091143319E-01 -0.28837458111E-01  0.77258422926E-03  0.17124000473E+03  0.17124000000E+03 0. -1.
       22    1    1    2    0    0  0.83320004885E-02  0.89002754939E-02  0.31964197467E+00  0.31987439583E+00  0.00000000000E+00 0.  1.
</event>
<event>
 5   1  0.2192208E+09  0.9118800E+02  0.7818608E-02  0.1180000E+00
       11   -1    0    0    0    0  0.00000000000E+00  0.00000000000E+00  0.10559998763E+01  0.10560000000E+01  0.51109989000E-03 0. -1.
     -623   -1    0    0    0    0  0.00000000000E+00  0.00000000000E+00  0.47855275298E-10  0.17124000000E+03  0.17124000000E+03 0. -1.
       11    1    1    2    0    0 -0.22003950699E-02  0.94345819843E-02  0.69620489183E+00  0.69627247950E+00  0.51109989000E-03 0.  1.
     -623    1    1    2    0    0  0.33751750181E-02 -0.14462505534E-01  0.10516603115E-03  0.17124000064E+03  0.17124000000E+03 0. -1.
       22    1    1    2    0    0 -0.11747821823E-02  0.50279331223E-02  0.35969051742E+00  0.35972757546E+00  0.00000000000E+00 0. -1.
</event>
<event>
 5   1  0.2192208E+09  0.9118800E+02  0.7818608E-02  0.1180000E+00
       11   -1    0    0    0    0  0.00000000000E+00  0.00000000000E+00  0.10559998763E+01  0.10560000000E+01  0.51109989000E-03 0. -1.
     -623   -1    0    0    0    0  0.00000000000E+00  0.00000000000E+00  0.47855275298E-10  0.17124000000E+03  0.17124000000E+03 0.  1.
       11    1    1    2    0    0  0.68807437933E-03 -0.10845639060E-01  0.98381185428E+00  0.98387200752E+00  0.51109989000E-03 0. -1.
     -623    1    1    2    0    0 -0.44924693164E-03  0.11640264079E-01  0.65198555695E-04  0.17124000040E+03  0.17124000000E+03 0.  1.
       22    1    1    2    0    0 -0.23882729695E-03 -0.79462892540E-03  0.72123177839E-01  0.72127950582E-01  0.00000000000E+00 0.  1.
</event>
<event>
 5   1  0.2192208E+09  0.9118800E+02  0.7818608E-02  0.1180000E+00
       11   -1    0    0    0    0  0.00000000000E+00  0.00000000000E+00  0.10559998763E+01  0.10560000000E+01  0.51109989000E-03 0. -1.
     -623   -1    0    0    0    0  0.00000000000E+00  0.00000000000E+00  0.47855275298E-10  0.17124000000E+03  0.17124000000E+03 0.  1.
       11    1    1    2    0    0  0.60501232680E-03 -0.13501865366E-03  0.95568904797E+00  0.95568938568E+00  0.51109989000E-03 0. -1.
     -623    1    1    2    0    0 -0.51131774075E-03  0.11597646032E-02  0.54969240999E-05  0.17124000000E+03  0.17124000000E+03 0.  1.
       22    1    1    2    0    0 -0.93694584413E-04 -0.10247459532E-02  0.10030533484E+00  0.10031061300E+00  0.00000000000E+00 0.  1.
</event>
<event>
 5   1  0.2192208E+09  0.9118800E+02  0.7818608E-02  0.1180000E+00
       11   -1    0    0    0    0  0.00000000000E+00  0.00000000000E+00  0.10559998763E+01  0.10560000000E+01  0.51109989000E-03 0.  1.
     -623   -1    0    0    0    0  0.00000000000E+00  0.00000000000E+00  0.47855275298E-10  0.17124000000E+03  0.17124000000E+03 0. -1.
       11    1    1    2    0    0 -0.16359120885E-01 -0.42365255886E-02  0.76400131862E+00  0.76418835705E+00  0.51109989000E-03 0.  1.
     -623    1    1    2    0    0  0.16439891182E-01 -0.36155013187E-03  0.22394394637E-03  0.17124000079E+03  0.17124000000E+03 0. -1.
       22    1    1    2    0    0 -0.80770338036E-04  0.45980757214E-02  0.29177461641E+00  0.29181085587E+00  0.00000000000E+00 0. -1.
</event>
<event>
 5   1  0.2192208E+09  0.9118800E+02  0.7818608E-02  0.1180000E+00
       11   -1    0    0    0    0  0.00000000000E+00  0.00000000000E+00  0.10559998763E+01  0.10560000000E+01  0.51109989000E-03 0.  1.
     -623   -1    0    0    0    0  0.00000000000E+00  0.00000000000E+00  0.47855275298E-10  0.17124000000E+03  0.17124000000E+03 0. -1.
       11    1    1    2    0    0  0.16000378235E-01  0.12083807061E-01  0.92560787561E+00  0.92582516228E+00  0.51109989000E-03 0.  1.
     -623    1    1    2    0    0 -0.17203187455E-01 -0.13717876379E-01  0.23439101202E-03  0.17124000141E+03  0.17124000000E+03 0. -1.
       22    1    1    2    0    0  0.12028109720E-02  0.16340707142E-02  0.13015771726E+00  0.13017353150E+00  0.00000000000E+00 0.  1.
</event>
<event>
 5   1  0.2192208E+09  0.9118800E+02  0.7818608E-02  0.1180000E+00
       11   -1    0    0    0    0  0.00000000000E+00  0.00000000000E+00  0.10559998763E+01  0.10560000000E+01  0.51109989000E-03 0.  1.
     -623   -1    0    0    0    0  0.00000000000E+00  0.00000000000E+00  0.47855275298E-10  0.17124000000E+03  0.17124000000E+03 0.  1.
       11    1    1    2    0    0 -0.27309451628E-01 -0.11257150066E-02  0.91951794627E+00  0.91992422955E+00  0.51109989000E-03 0.  1.
     -623    1    1    2    0    0 -0.43956541927E-02 -0.29931103109E-02  0.42155312958E-02  0.17124000013E+03  0.17124000000E+03 0.  1.
       22    1    1    2    0    0  0.31705105821E-01  0.41188253174E-02  0.13226639876E+00  0.13607563594E+00  0.00000000000E+00 0. -1.
</event>
<event>
 5   1  0.2192208E+09  0.9118800E+02  0.7818608E-02  0.1180000E+00
       11   -1    0    0    0    0  0.00000000000E+00  0.00000000000E+00  0.10559998763E+01  0.10560000000E+01  0.51109989000E-03 0.  1.
     -623   -1    0    0    0    0  0.00000000000E+00  0.00000000000E+00  0.47855275298E-10  0.17124000000E+03  0.17124000000E+03 0. -1.
       11    1    1    2    0    0 -0.13388053877E-01 -0.18709376606E-01  0.66787344603E+00  0.66826976731E+00  0.51109989000E-03 0.  1.
     -623    1    1    2    0    0  0.12414103469E-02  0.23960402836E-03  0.10268903043E-02  0.17124000001E+03  0.17124000000E+03 0. -1.
       22    1    1    2    0    0  0.12146643530E-01  0.18469772578E-01  0.38709954026E+00  0.38773022518E+00  0.00000000000E+00 0.  1.
</event>
<event>
 5   1  0.2192208E+09  0.9118800E+02  0.7818608E-02  0.1180000E+00
       11   -1    0    0    0    0  0.00000000000E+00  0.00000000000E+00  0.10559998763E+01  0.10560000000E+01  0.51109989000E-03 0.  1.
     -623   -1    0    0    0    0  0.00000000000E+00  0.00000000000E+00  0.47855275298E-10  0.17124000000E+03  0.17124000000E+03 0.  1.
       11    1    1    2    0    0  0.13785916905E-02 -0.29345899250E-02  0.97199043850E+00  0.97199598049E+00  0.51109989000E-03 0.  1.
     -623    1    1    2    0    0 -0.85336878277E-03  0.16654850698E-03  0.52681078885E-04  0.17124000000E+03  0.17124000000E+03 0.  1.
       22    1    1    2    0    0 -0.52522290194E-03  0.27680414169E-02  0.83956763970E-01  0.84004024479E-01  0.00000000000E+00 0.  1.
</event>
<event>
 5   1  0.2192208E+09  0.9118800E+02  0.7818608E-02  0.1180000E+00
       11   -1    0    0    0    0  0.00000000000E+00  0.00000000000E+00  0.10559998763E+01  0.10560000000E+01  0.51109989000E-03 0. -1.
     -623   -1    0    0    0    0  0.00000000000E+00  0.00000000000E+00  0.47855275298E-10  0.17124000000E+03  0.17124000000E+03 0.  1.
       11    1    1    2    0    0  0.11851921800E-02  0.13243757764E-01  0.99886744475E+00  0.99895607272E+00  0.51109989000E-03 0. -1.
     -623    1    1    2    0    0 -0.12294660045E-02 -0.13864442688E-01  0.92464128450E-04  0.17124000057E+03  0.17124000000E+03 0.  1.
       22    1    1    2    0    0  0.44273107545E-04  0.62067683949E-03  0.57039351784E-01  0.57042745830E-01  0.00000000000E+00 0. -1.
</event>
<event>
 5   1  0.2192208E+09  0.9118800E+02  0.7818608E-02  0.1180000E+00
       11   -1    0    0    0    0  0.00000000000E+00  0.00000000000E+00  0.10559998763E+01  0.10560000000E+01  0.51109989000E-03 0.  1.
     -623   -1    0    0    0    0  0.00000000000E+00  0.00000000000E+00  0.47855275298E-10  0.17124000000E+03  0.17124000000E+03 0. -1.
       11    1    1    2    0    0 -0.56528344744E-02 -0.12049336499E-03  0.25872582561E+00  0.25878810467E+00  0.51109989000E-03 0.  1.
     -623    1    1    2    0    0 -0.13790312996E-02 -0.11951891454E-01  0.18500779334E-03  0.17124000042E+03  0.17124000000E+03 0. -1.
       22    1    1    2    0    0  0.70318657771E-02  0.12072384846E-01  0.79708904533E+00  0.79721147495E+00  0.00000000000E+00 0.  1.
</event>
<event>
 5   1  0.2192208E+09  0.9118800E+02  0.7818608E-02  0.1180000E+00
       11   -1    0    0    0    0  0.00000000000E+00  0.00000000000E+00  0.10559998763E+01  0.10560000000E+01  0.51109989000E-03 0. -1.
     -623   -1    0    0    0    0  0.00000000000E+00  0.00000000000E+00  0.47855275298E-10  0.17124000000E+03  0.17124000000E+03 0.  1.
       11    1    1    2    0    0  0.34552021593E-03 -0.43063472838E-03  0.95832724994E+00  0.95832754527E+00  0.51109989000E-03 0. -1.
     -623    1    1    2    0    0 -0.22334187901E-02  0.22872161665E-02  0.36098799512E-04  0.17124000003E+03  0.17124000000E+03 0.  1.
       22    1    1    2    0    0  0.18878985630E-02 -0.18565814267E-02  0.97636522333E-01  0.97672419592E-01  0.00000000000E+00 0. -1.
</event>
<event>
 5   1  0.2192208E+09  0.9118800E+02  0.7818608E-02  0.1180000E+00
       11   -1    0    0    0    0  0.00000000000E+00  0.00000000000E+00  0.10559998763E+01  0.10560000000E+01  0.51109989000E-03 0. -1.
     -623   -1    0    0    0    0  0.00000000000E+00  0.00000000000E+00  0.47855275298E-10  0.17124000000E+03  0.17124000000E+03 0.  1.
       11    1    1    2    0    0  0.67378282050E-03 -0.23386051249E-02  0.87115702267E+00  0.87116057212E+00  0.51109989000E-03 0. -1.
     -623    1    1    2    0    0 -0.48560913256E-03  0.45462607548E-02  0.16766848337E-04  0.17124000006E+03  0.17124000000E+03 0.  1.
       22    1    1    2    0    0 -0.18817371501E-03 -0.22076553764E-02  0.18482602797E+00  0.18483930796E+00  0.00000000000E+00 0.  1.
</event>
<event>
 5   1  0.2192208E+09  0.9118800E+02  0.7818608E-02  0.1180000E+00
       11   -1    0    0    0    0  0.00000000000E+00  0.00000000000E+00  0.10559998763E+01  0.10560000000E+01  0.51109989000E-03 0.  1.
     -623   -1    0    0    0    0  0.00000000000E+00  0.00000000000E+00  0.47855275298E-10  0.17124000000E+03  0.17124000000E+03 0. -1.
       11    1    1    2    0    0  0.24430025601E-03 -0.60719849710E-02  0.73819461679E+00  0.73821980613E+00  0.51109989000E-03 0.  1.
     -623    1    1    2    0    0  0.43192303726E-04  0.15211002337E-03  0.80340837437E-04  0.17124000000E+03  0.17124000000E+03 0. -1.
       22    1    1    2    0    0 -0.28749255981E-03  0.59198749474E-02  0.31772492055E+00  0.31778019559E+00  0.00000000000E+00 0. -1.
</event>
<event>
 5   1  0.2192208E+09  0.9118800E+02  0.7818608E-02  0.1180000E+00
       11   -1    0    0    0    0  0.00000000000E+00  0.00000000000E+00  0.10559998763E+01  0.10560000000E+01  0.51109989000E-03 0. -1.
     -623   -1    0    0    0    0  0.00000000000E+00  0.00000000000E+00  0.47855275298E-10  0.17124000000E+03  0.17124000000E+03 0.  1.
       11    1    1    2    0    0 -0.82188671605E-03  0.39815273910E-02  0.91954693452E+00  0.91955606358E+00  0.51109989000E-03 0. -1.
     -623    1    1    2    0    0 -0.54125837762E-03 -0.20663487988E-02  0.29270599424E-04  0.17124000001E+03  0.17124000000E+03 0.  1.
       22    1    1    2    0    0  0.13631450903E-02 -0.19151786051E-02  0.13642366463E+00  0.13644391648E+00  0.00000000000E+00 0.  1.
</event>
<event>
 5   1  0.2192208E+09  0.9118800E+02  0.7818608E-02  0.1180000E+00
       11   -1    0    0    0    0  0.00000000000E+00  0.00000000000E+00  0.10559998763E+01  0.10560000000E+01  0.51109989000E-03 0. -1.
     -623   -1    0    0    0    0  0.00000000000E+00  0.00000000000E+00  0.47855275298E-10  0.17124000000E+03  0.17124000000E+03 0.  1.
       11    1    1    2    0    0  0.19541534854E-02  0.80354484356E-04  0.92273131003E+00  0.92273352432E+00  0.51109989000E-03 0. -1.
     -623    1    1    2    0    0  0.84839384440E-03 -0.19956894369E-02  0.45343510143E-04  0.17124000001E+03  0.17124000000E+03 0.  1.
       22    1    1    2    0    0 -0.28025473320E-02  0.19153349576E-02  0.13322322550E+00  0.13326646462E+00  0.00000000000E+00 0. -1.
</event>
<event>
 5   1  0.2192208E+09  0.9118800E+02  0.7818608E-02  0.1180000E+00
       11   -1    0    0    0    0  0.00000000000E+00  0.00000000000E+00  0.10559998763E+01  0.10560000000E+01  0.51109989000E-03 0.  1.
     -623   -1    0    0    0    0  0.00000000000E+00  0.00000000000E+00  0.47855275298E-10  0.17124000000E+03  0.17124000000E+03 0.  1.
       11    1    1    2    0    0 -0.42373510899E-03 -0.18313589471E-02  0.10037390227E+01  0.10037409129E+01  0.51109989000E-03 0.  1.
     -623    1    1    2    0    0 -0.46699120638E-06  0.24979190201E-02  0.77578260766E-05  0.17124000002E+03  0.17124000000E+03 0.  1.
       22    1    1    2    0    0  0.42420210019E-03 -0.66656002670E-03  0.52253076294E-01  0.52259049282E-01  0.00000000000E+00 0. -1.
</event>
<event>
 5   1  0.2192208E+09  0.9118800E+02  0.7818608E-02  0.1180000E+00
       11   -1    0    0    0    0  0.00000000000E+00  0.00000000000E+00  0.10559998763E+01  0.10560000000E+01  0.51109989000E-03 0. -1.
     -623   -1    0    0    0    0  0.00000000000E+00  0.00000000000E+00  0.47855275298E-10  0.17124000000E+03  0.17124000000E+03 0.  1.
       11    1    1    2    0    0 -0.13861483063E-02  0.11214133645E-01  0.98968684378E+00  0.98975147799E+00  0.51109989000E-03 0. -1.
     -623    1    1    2    0    0  0.14353565489E-02 -0.11976572980E-01  0.69341242467E-04  0.17124000042E+03  0.17124000000E+03 0.  1.
       22    1    1    2    0    0 -0.49208761849E-04  0.76244366715E-03  0.66244073309E-01  0.66248479155E-01  0.00000000000E+00 0.  1.
</event>
<event>
 5   1  0.2192208E+09  0.9118800E+02  0.7818608E-02  0.1180000E+00
       11   -1    0    0    0    0  0.00000000000E+00  0.00000000000E+00  0.10559998763E+01  0.10560000000E+01  0.51109989000E-03 0.  1.
     -623   -1    0    0    0    0  0.00000000000E+00  0.00000000000E+00  0.47855275298E-10  0.17124000000E+03  0.17124000000E+03 0.  1.
       11    1    1    2    0    0  0.45092681055E-02 -0.57207007169E-02  0.48050812470E+00  0.48056360561E+00  0.51109989000E-03 0.  1.
     -623    1    1    2    0    0  0.31192176106E-02 -0.21536666647E-02  0.15985079273E-03  0.17124000004E+03  0.17124000000E+03 0.  1.
       22    1    1    2    0    0 -0.76284857107E-02  0.78743673779E-02  0.57533189906E+00  0.57543635055E+00  0.00000000000E+00 0.  1.
</event>
<event>
 5   1  0.2192208E+09  0.9118800E+02  0.7818608E-02  0.1180000E+00
       11   -1    0    0    0    0  0.00000000000E+00  0.00000000000E+00  0.10559998763E+01  0.10560000000E+01  0.51109989000E-03 0.  1.
     -623   -1    0    0    0    0  0.00000000000E+00  0.00000000000E+00  0.47855275298E-10  0.17124000000E+03  0.17124000000E+03 0. -1.
       11    1    1    2    0    0 -0.10150580445E-01  0.49641093843E-02  0.87155112788E+00  0.87162452146E+00  0.51109989000E-03 0.  1.
     -623    1    1    2    0    0  0.12453505111E-01 -0.75121733269E-02  0.10587978921E-03  0.17124000062E+03  0.17124000000E+03 0. -1.
       22    1    1    2    0    0 -0.23029249724E-02  0.25480641276E-02  0.18434289469E+00  0.18437488689E+00  0.00000000000E+00 0. -1.
</event>
<event>
 5   1  0.2192208E+09  0.9118800E+02  0.7818608E-02  0.1180000E+00
       11   -1    0    0    0    0  0.00000000000E+00  0.00000000000E+00  0.10559998763E+01  0.10560000000E+01  0.51109989000E-03 0. -1.
     -623   -1    0    0    0    0  0.00000000000E+00  0.00000000000E+00  0.47855275298E-10  0.17124000000E+03  0.17124000000E+03 0.  1.
       11    1    1    2    0    0 -0.22967545717E-02  0.86491249351E-02  0.56756274089E+00  0.56763351602E+00  0.51109989000E-03 0. -1.
     -623    1    1    2    0    0  0.40159241589E-02 -0.15817243934E-01  0.12706426481E-03  0.17124000078E+03  0.17124000000E+03 0.  1.
       22    1    1    2    0    0 -0.17191721991E-02  0.71681292859E-02  0.48831075793E+00  0.48836639313E+00  0.00000000000E+00 0. -1.
</event>
<event>
 5   1  0.2192208E+09  0.9118800E+02  0.7818608E-02  0.1180000E+00
       11   -1    0    0    0    0  0.00000000000E+00  0.00000000000E+00  0.10559998763E+01  0.10560000000E+01  0.51109989000E-03 0. -1.
     -623   -1    0    0    0    0  0.00000000000E+00  0.00000000000E+00  0.47855275298E-10  0.17124000000E+03  0.17124000000E+03 0.  1.
       11    1    1    2    0    0 -0.15069012729E-03  0.63728590142E-03  0.97607716037E+00  0.97607751386E+00  0.51109989000E-03 0. -1.
     -623    1    1    2    0    0 -0.77802778874E-04  0.19271345453E-03  0.48665281080E-05  0.17124000000E+03  0.17124000000E+03 0.  1.
       22    1    1    2    0    0  0.22849290739E-03 -0.82999935897E-03  0.79917866075E-01  0.79922502625E-01  0.00000000000E+00 0.  1.
</event>
<event>
 5   1  0.2192208E+09  0.9118800E+02  0.7818608E-02  0.1180000E+00
       11   -1    0    0    0    0  0.00000000000E+00  0.00000000000E+00  0.10559998763E+01  0.10560000000E+01  0.51109989000E-03 0.  1.
     -623   -1    0    0    0    0  0.00000000000E+00  0.00000000000E+00  0.47855275298E-10  0.17124000000E+03  0.17124000000E+03 0. -1.
       11    1    1    2    0    0  0.47483492456E-02 -0.19068191554E-01  0.99334200664E+00  0.99353648455E+00  0.51109989000E-03 0.  1.
     -623    1    1    2    0    0 -0.48740782351E-02  0.20143970180E-01  0.20499982611E-03  0.17124000125E+03  0.17124000000E+03 0. -1.
       22    1    1    2    0    0  0.12572649828E-03 -0.10757683302E-02  0.62452330252E-01  0.62461721386E-01  0.00000000000E+00 0.  1.
</event>
<event>
 5   1  0.2192208E+09  0.9118800E+02  0.7818608E-02  0.1180000E+00
       11   -1    0    0    0    0  0.00000000000E+00  0.00000000000E+00  0.10559998763E+01  0.10560000000E+01  0.51109989000E-03 0.  1.
     -623   -1    0    0    0    0  0.00000000000E+00  0.00000000000E+00  0.47855275298E-10  0.17124000000E+03  0.17124000000E+03 0. -1.
       11    1    1    2    0    0  0.55556296431E-04  0.75159754990E-02  0.70411945419E+00  0.70415975457E+00  0.51109989000E-03 0.  1.
     -623    1    1    2    0    0 -0.19502432736E-03 -0.34891784548E-03  0.11320969185E-03  0.17124000000E+03  0.17124000000E+03 0. -1.
       22    1    1    2    0    0  0.13946803009E-03 -0.71670576550E-02  0.35176720799E+00  0.35184024043E+00  0.00000000000E+00 0. -1.
</event>
<event>
 5   1  0.2192208E+09  0.9118800E+02  0.7818608E-02  0.1180000E+00
       11   -1    0    0    0    0  0.00000000000E+00  0.00000000000E+00  0.10559998763E+01  0.10560000000E+01  0.51109989000E-03 0. -1.
     -623   -1    0    0    0    0  0.00000000000E+00  0.00000000000E+00  0.47855275298E-10  0.17124000000E+03  0.17124000000E+03 0.  1.
       11    1    1    2    0    0 -0.26900948750E-02 -0.12991456987E-01  0.89697271730E+00  0.89707097343E+00  0.51109989000E-03 0. -1.
     -623    1    1    2    0    0  0.31135827670E-02  0.15489178342E-01  0.11905399566E-03  0.17124000073E+03  0.17124000000E+03 0.  1.
       22    1    1    2    0    0 -0.42348531766E-03 -0.24977085492E-02  0.15890723206E+00  0.15892742459E+00  0.00000000000E+00 0.  1.
</event>
<event>
 5   1  0.2192208E+09  0.9118800E+02  0.7818608E-02  0.1180000E+00
       11   -1    0    0    0    0  0.00000000000E+00  0.00000000000E+00  0.10559998763E+01  0.10560000000E+01  0.51109989000E-03 0.  1.
     -623   -1    0    0    0    0  0.00000000000E+00  0.00000000000E+00  0.47855275298E-10  0.17124000000E+03  0.17124000000E+03 0. -1.
       11    1    1    2    0    0  0.97664242222E-03  0.86945534178E-02  0.78831034204E+00  0.78835905886E+00  0.51109989000E-03 0.  1.
     -623    1    1    2    0    0 -0.20292899944E-02 -0.11583833701E-01  0.66663103815E-04  0.17124000040E+03  0.17124000000E+03 0. -1.
       22    1    1    2    0    0  0.10526468972E-02  0.28892764299E-02  0.26762251995E+00  0.26764018601E+00  0.00000000000E+00 0. -1.
</event>
<event>
 5   1  0.2192208E+09  0.9118800E+02  0.7818608E-02  0.1180000E+00
       11   -1    0    0    0    0  0.00000000000E+00  0.00000000000E+00  0.10559998763E+01  0.10560000000E+01  0.51109989000E-03 0.  1.
     -623   -1    0    0    0    0  0.00000000000E+00  0.00000000000E+00  0.47855275298E-10  0.17124000000E+03  0.17124000000E+03 0. -1.
       11    1    1    2    0    0  0.29450851034E-02 -0.71939925626E-02  0.91805385622E+00  0.91808690830E+00  0.51109989000E-03 0.  1.
     -623    1    1    2    0    0 -0.33250820021E-02  0.86097536601E-02  0.40967743269E-04  0.17124000025E+03  0.17124000000E+03 0. -1.
       22    1    1    2    0    0  0.37999704914E-03 -0.14157614871E-02  0.13790510019E+00  0.13791289075E+00  0.00000000000E+00 0.  1.
</event>
<event>
 5   1  0.2192208E+09  0.9118800E+02  0.7818608E-02  0.1180000E+00
       11   -1    0    0    0    0  0.00000000000E+00  0.00000000000E+00  0.10559998763E+01  0.10560000000E+01  0.51109989000E-03 0.  1.
     -623   -1    0    0    0    0  0.00000000000E+00  0.00000000000E+00  0.47855275298E-10  0.17124000000E+03  0.17124000000E+03 0.  1.
       11    1    1    2    0    0  0.42054334064E-01  0.15611942225E-01  0.97779145276E+00  0.97882004785E+00  0.51109989000E-03 0.  1.
     -623    1    1    2    0    0 -0.42246893655E-01 -0.14248996733E-01  0.10465553443E-02  0.17124000581E+03  0.17124000000E+03 0.  1.
       22    1    1    2    0    0  0.19255945326E-03 -0.13629455390E-02  0.77161864829E-01  0.77174141288E-01  0.00000000000E+00 0.  1.
</event>
<event>
 5   1  0.2192208E+09  0.9118800E+02  0.7818608E-02  0.1180000E+00
       11   -1    0    0    0    0  0.00000000000E+00  0.00000000000E+00  0.10559998763E+01  0.10560000000E+01  0.51109989000E-03 0. -1.
     -623   -1    0    0    0    0  0.00000000000E+00  0.00000000000E+00  0.47855275298E-10  0.17124000000E+03  0.17124000000E+03 0.  1.
       11    1    1    2    0    0 -0.17803538518E-03 -0.18922250989E-02  0.79330067859E+00  0.79330311992E+00  0.51109989000E-03 0. -1.
     -623    1    1    2    0    0  0.77623756867E-03  0.75229114575E-02  0.63517458307E-04  0.17124000017E+03  0.17124000000E+03 0.  1.
       22    1    1    2    0    0 -0.59820218612E-03 -0.56306863841E-02  0.26263568391E+00  0.26269671664E+00  0.00000000000E+00 0. -1.
</event>
<event>
 5   1  0.2192208E+09  0.9118800E+02  0.7818608E-02  0.1180000E+00
       11   -1    0    0    0    0  0.00000000000E+00  0.00000000000E+00  0.10559998763E+01  0.10560000000E+01  0.51109989000E-03 0. -1.
     -623   -1    0    0    0    0  0.00000000000E+00  0.00000000000E+00  0.47855275298E-10  0.17124000000E+03  0.17124000000E+03 0.  1.
       11    1    1    2    0    0  0.62245302020E-02 -0.13091705574E-01  0.98995870477E+00  0.99006496549E+00  0.51109989000E-03 0. -1.
     -623    1    1    2    0    0 -0.66144075732E-02  0.13843114015E-01  0.11225897507E-03  0.17124000069E+03  0.17124000000E+03 0.  1.
       22    1    1    2    0    0  0.38987955016E-03 -0.75141300112E-03  0.65929260457E-01  0.65934695054E-01  0.00000000000E+00 0. -1.
</event>
<event>
 5   1  0.2192208E+09  0.9118800E+02  0.7818608E-02  0.1180000E+00
       11   -1    0    0    0    0  0.00000000000E+00  0.00000000000E+00  0.10559998763E+01  0.10560000000E+01  0.51109989000E-03 0.  1.
     -623   -1    0    0    0    0  0.00000000000E+00  0.00000000000E+00  0.47855275298E-10  0.17124000000E+03  0.17124000000E+03 0. -1.
       11    1    1    2    0    0  0.12212354298E-01 -0.31116480173E-01  0.33703268265E+00  0.33868668018E+00  0.51109989000E-03 0.  1.
     -623    1    1    2    0    0 -0.11632608285E-02  0.82355731454E-02  0.21042555687E-02  0.17124000021E+03  0.17124000000E+03 0. -1.
       22    1    1    2    0    0 -0.11049093470E-01  0.22880907027E-01  0.71686293820E+00  0.71731310495E+00  0.00000000000E+00 0. -1.
</event>
<event>
 5   1  0.2192208E+09  0.9118800E+02  0.7818608E-02  0.1180000E+00
       11   -1    0    0    0    0  0.00000000000E+00  0.00000000000E+00  0.10559998763E+01  0.10560000000E+01  0.51109989000E-03 0. -1.
     -623   -1    0    0    0    0  0.00000000000E+00  0.00000000000E+00  0.47855275298E-10  0.17124000000E+03  0.17124000000E+03 0.  1.
       11    1    1    2    0    0  0.34502023934E-01 -0.31309644141E-01  0.69271266046E+00  0.69427788000E+00  0.51109989000E-03 0. -1.
     -623    1    1    2    0    0 -0.41305705719E-01  0.35458948254E-01  0.16615537499E-02  0.17124000866E+03  0.17124000000E+03 0.  1.
       22    1    1    2    0    0  0.68036817819E-02 -0.41493041103E-02  0.36162566208E+00  0.36171345881E+00  0.00000000000E+00 0.  1.
</event>
<event>
 5   1  0.2192208E+09  0.9118800E+02  0.7818608E-02  0.1180000E+00
       11   -1    0    0    0    0  0.00000000000E+00  0.00000000000E+00  0.10559998763E+01  0.10560000000E+01  0.51109989000E-03 0.  1.
     -623   -1    0    0    0    0  0.00000000000E+00  0.00000000000E+00  0.47855275298E-10  0.17124000000E+03  0.17124000000E+03 0.  1.
       11    1    1    2    0    0  0.42338496539E-02 -0.96145853711E-02  0.69878092799E+00  0.69886008062E+00  0.51109989000E-03 0.  1.
     -623    1    1    2    0    0 -0.60369875717E-02  0.14427043140E-01  0.11672095884E-03  0.17124000071E+03  0.17124000000E+03 0.  1.
       22    1    1    2    0    0  0.18031404903E-02 -0.48124639165E-02  0.35710267735E+00  0.35713965517E+00  0.00000000000E+00 0.  1.
</event>
<event>
 5   1  0.2192208E+09  0.9118800E+02  0.7818608E-02  0.1180000E+00
       11   -1    0    0    0    0  0.00000000000E+00  0.00000000000E+00  0.10559998763E+01  0.10560000000E+01  0.51109989000E-03 0.  1.
     -623   -1    0    0    0    0  0.00000000000E+00  0.00000000000E+00  0.47855275298E-10  0.17124000000E+03  0.17124000000E+03 0.  1.
       11    1    1    2    0    0  0.15109071205E-01  0.24033158768E-01  0.90952665698E+00  0.90996971254E+00  0.51109989000E-03 0.  1.
     -623    1    1    2    0    0 -0.25693098925E-01 -0.19700713058E-01  0.89451721900E-03  0.17124000306E+03  0.17124000000E+03 0.  1.
       22    1    1    2    0    0  0.10584027711E-01 -0.43324457173E-02  0.14557870175E+00  0.14602722394E+00  0.00000000000E+00 0.  1.
</event>
<event>
 5   1  0.2192208E+09  0.9118800E+02  0.7818608E-02  0.1180000E+00
       11   -1    0    0    0    0  0.00000000000E+00  0.00000000000E+00  0.10559998763E+01  0.10560000000E+01  0.51109989000E-03 0.  1.
     -623   -1    0    0    0    0  0.00000000000E+00  0.00000000000E+00  0.47855275298E-10  0.17124000000E+03  0.17124000000E+03 0. -1.
       11    1    1    2    0    0  0.98396754872E-04 -0.12555904910E-02  0.98076354533E+00  0.98076448715E+00  0.51109989000E-03 0.  1.
     -623    1    1    2    0    0  0.54003766815E-05  0.40286753920E-04  0.10706039795E-04  0.17124000000E+03  0.17124000000E+03 0. -1.
       22    1    1    2    0    0 -0.10379713158E-03  0.12153037368E-02  0.75225629760E-01  0.75235517608E-01  0.00000000000E+00 0. -1.
</event>
<event>
 5   1  0.2192208E+09  0.9118800E+02  0.7818608E-02  0.1180000E+00
       11   -1    0    0    0    0  0.00000000000E+00  0.00000000000E+00  0.10559998763E+01  0.10560000000E+01  0.51109989000E-03 0. -1.
     -623   -1    0    0    0    0  0.00000000000E+00  0.00000000000E+00  0.47855275298E-10  0.17124000000E+03  0.17124000000E+03 0.  1.
       11    1    1    2    0    0  0.50932272188E-02  0.20428266029E-01  0.90338336927E+00  0.90362881102E+00  0.51109989000E-03 0. -1.
     -623    1    1    2    0    0 -0.13682167660E-01 -0.29942339044E-01  0.78855553463E-03  0.17124000317E+03  0.17124000000E+03 0.  1.
       22    1    1    2    0    0  0.85889404254E-02  0.95140729807E-02  0.15182795035E+00  0.15236802155E+00  0.00000000000E+00 0. -1.
</event>
<event>
 5   1  0.2192208E+09  0.9118800E+02  0.7818608E-02  0.1180000E+00
       11   -1    0    0    0    0  0.00000000000E+00  0.00000000000E+00  0.10559998763E+01  0.10560000000E+01  0.51109989000E-03 0.  1.
     -623   -1    0    0    0    0  0.00000000000E+00  0.00000000000E+00  0.47855275298E-10  0.17124000000E+03  0.17124000000E+03 0.  1.
       11    1    1    2    0    0 -0.16301074948E-01 -0.60826223245E-02  0.76818152801E+00  0.76837871166E+00  0.51109989000E-03 0.  1.
     -623    1    1    2    0    0  0.24187296073E-01  0.11014758950E-01  0.34956668130E-03  0.17124000206E+03  0.17124000000E+03 0.  1.
       22    1    1    2    0    0 -0.78862218456E-02 -0.49321369538E-02  0.28746881313E+00  0.28761925699E+00  0.00000000000E+00 0.  1.
</event>
<event>
 5   1  0.2192208E+09  0.9118800E+02  0.7818608E-02  0.1180000E+00
       11   -1    0    0    0    0  0.00000000000E+00  0.00000000000E+00  0.10559998763E+01  0.10560000000E+01  0.51109989000E-03 0. -1.
     -623   -1    0    0    0    0  0.00000000000E+00  0.00000000000E+00  0.47855275298E-10  0.17124000000E+03  0.17124000000E+03 0. -1.
       11    1    1    2    0    0 -0.89677887466E-02 -0.85218881132E-02  0.39334168876E+00  0.39353651565E+00  0.51109989000E-03 0. -1.
     -623    1    1    2    0    0  0.25194004575E-01  0.19757108677E-01  0.49175742818E-03  0.17124000299E+03  0.17124000000E+03 0. -1.
       22    1    1    2    0    0 -0.16226215117E-01 -0.11235220006E-01  0.66216640038E+00  0.66246046072E+00  0.00000000000E+00 0. -1.
</event>
<event>
 5   1  0.2192208E+09  0.9118800E+02  0.7818608E-02  0.1180000E+00
       11   -1    0    0    0    0  0.00000000000E+00  0.00000000000E+00  0.10559998763E+01  0.10560000000E+01  0.51109989000E-03 0.  1.
     -623   -1    0    0    0    0  0.00000000000E+00  0.00000000000E+00  0.47855275298E-10  0.17124000000E+03  0.17124000000E+03 0.  1.
       11    1    1    2    0    0  0.19310669800E-01  0.13125455315E-02  0.92270897496E+00  0.92291209681E+00  0.51109989000E-03 0.  1.
     -623    1    1    2    0    0 -0.22065389844E-01 -0.29119621412E-02  0.24257063016E-03  0.17124000145E+03  0.17124000000E+03 0.  1.
       22    1    1    2    0    0  0.27547211978E-02  0.15994167618E-02  0.13304838595E+00  0.13308651181E+00  0.00000000000E+00 0. -1.
</event>
<event>
 5   1  0.2192208E+09  0.9118800E+02  0.7818608E-02  0.1180000E+00
       11   -1    0    0    0    0  0.00000000000E+00  0.00000000000E+00  0.10559998763E+01  0.10560000000E+01  0.51109989000E-03 0.  1.
     -623   -1    0    0    0    0  0.00000000000E+00  0.00000000000E+00  0.47855275298E-10  0.17124000000E+03  0.17124000000E+03 0.  1.
       11    1    1    2    0    0  0.17340857294E-02  0.15788386786E-02  0.99656308573E+00  0.99656597616E+00  0.51109989000E-03 0.  1.
     -623    1    1    2    0    0 -0.13057290564E-02  0.50757334509E-03  0.40949841758E-04  0.17124000001E+03  0.17124000000E+03 0.  1.
       22    1    1    2    0    0 -0.42835666838E-03 -0.20864120255E-02  0.59395844466E-01  0.59434021775E-01  0.00000000000E+00 0. -1.
</event>
<event>
 5   1  0.2192208E+09  0.9118800E+02  0.7818608E-02  0.1180000E+00
       11   -1    0    0    0    0  0.00000000000E+00  0.00000000000E+00  0.10559998763E+01  0.10560000000E+01  0.51109989000E-03 0.  1.
     -623   -1    0    0    0    0  0.00000000000E+00  0.00000000000E+00  0.47855275298E-10  0.17124000000E+03  0.17124000000E+03 0.  1.
       11    1    1    2    0    0 -0.12133122037E-02 -0.23014538141E-01  0.93542366434E+00  0.93570766488E+00  0.51109989000E-03 0.  1.
     -623    1    1    2    0    0  0.13525325047E-02  0.25703873529E-01  0.31595878002E-03  0.17124000193E+03  0.17124000000E+03 0.  1.
       22    1    1    2    0    0 -0.13922164597E-03 -0.26893609480E-02  0.12026130303E+00  0.12029145045E+00  0.00000000000E+00 0. -1.
</event>
<event>
 5   1  0.2192208E+09  0.9118800E+02  0.7818608E-02  0.1180000E+00
       11   -1    0    0    0    0  0.00000000000E+00  0.00000000000E+00  0.10559998763E+01  0.10560000000E+01  0.51109989000E-03 0. -1.
     -623   -1    0    0    0    0  0.00000000000E+00  0.00000000000E+00  0.47855275298E-10  0.17124000000E+03  0.17124000000E+03 0.  1.
       11    1    1    2    0    0  0.22338526999E-03 -0.12631089493E-02  0.93871011340E+00  0.93871112892E+00  0.51109989000E-03 0. -1.
     -623    1    1    2    0    0 -0.77086817395E-04 -0.53668859395E-04  0.83749907480E-05  0.17124000000E+03  0.17124000000E+03 0.  1.
       22    1    1    2    0    0 -0.14629845340E-03  0.13167778082E-02  0.11728137699E+00  0.11728886007E+00  0.00000000000E+00 0.  1.
</event>
<event>
 5   1  0.2192208E+09  0.9118800E+02  0.7818608E-02  0.1180000E+00
       11   -1    0    0    0    0  0.00000000000E+00  0.00000000000E+00  0.10559998763E+01  0.10560000000E+01  0.51109989000E-03 0. -1.
     -623   -1    0    0    0    0  0.00000000000E+00  0.00000000000E+00  0.47855275298E-10  0.17124000000E+03  0.17124000000E+03 0. -1.
       11    1    1    2    0    0  0.12804583831E-03  0.84756468436E-02  0.69649418821E+00  0.69654595572E+00  0.51109989000E-03 0. -1.
     -623    1    1    2    0    0 -0.25437661344E-03 -0.12153961160E-01  0.70918308287E-04  0.17124000043E+03  0.17124000000E+03 0. -1.
       22    1    1    2    0    0  0.12633083565E-03  0.36783172079E-02  0.35943502107E+00  0.35945386401E+00  0.00000000000E+00 0. -1.
</event>
<event>
 5   1  0.2192208E+09  0.9118800E+02  0.7818608E-02  0.1180000E+00
       11   -1    0    0    0    0  0.00000000000E+00  0.00000000000E+00  0.10559998763E+01  0.10560000000E+01  0.51109989000E-03 0.  1.
     -623   -1    0    0    0    0  0.00000000000E+00  0.00000000000E+00  0.47855275298E-10  0.17124000000E+03  0.17124000000E+03 0.  1.
       11    1    1    2    0    0  0.21920231969E-01  0.13797778169E-01  0.46431144777E+00  0.46503360847E+00  0.51109989000E-03 0.  1.
     -623    1    1    2    0    0 -0.45406552639E-02 -0.73934328086E-02  0.10125891894E-02  0.17124000022E+03  0.17124000000E+03 0.  1.
       22    1    1    2    0    0 -0.17379576704E-01 -0.64043453592E-02  0.59067583956E+00  0.59096616889E+00  0.00000000000E+00 0.  1.
</event>
<event>
 5   1  0.2192208E+09  0.9118800E+02  0.7818608E-02  0.1180000E+00
       11   -1    0    0    0    0  0.00000000000E+00  0.00000000000E+00  0.10559998763E+01  0.10560000000E+01  0.51109989000E-03 0. -1.
     -623   -1    0    0    0    0  0.00000000000E+00  0.00000000000E+00  0.47855275298E-10  0.17124000000E+03  0.17124000000E+03 0. -1.
       11    1    1    2    0    0  0.10796580384E-02  0.35005168062E-03  0.97282567701E+00  0.97282647336E+00  0.51109989000E-03 0. -1.
     -623    1    1    2    0    0 -0.56066913021E-03  0.62986003704E-03  0.80667491056E-05  0.17124000000E+03  0.17124000000E+03 0. -1.
       22    1    1    2    0    0 -0.51898889092E-03 -0.97991173707E-03  0.83166165160E-01  0.83173557119E-01  0.00000000000E+00 0. -1.
</event>
<event>
 5   1  0.2192208E+09  0.9118800E+02  0.7818608E-02  0.1180000E+00
       11   -1    0    0    0    0  0.00000000000E+00  0.00000000000E+00  0.10559998763E+01  0.10560000000E+01  0.51109989000E-03 0. -1.
     -623   -1    0    0    0    0  0.00000000000E+00  0.00000000000E+00  0.47855275298E-10  0.17124000000E+03  0.17124000000E+03 0. -1.
       11    1    1    2    0    0 -0.67953113103E-02  0.80538448144E-02  0.98800042494E+00  0.98805675018E+00  0.51109989000E-03 0. -1.
     -623    1    1    2    0    0  0.69772311721E-02 -0.90836167067E-02  0.64632549938E-04  0.17124000038E+03  0.17124000000E+03 0. -1.
       22    1    1    2    0    0 -0.18191958253E-03  0.10297715288E-02  0.67934776613E-01  0.67942824475E-01  0.00000000000E+00 0. -1.
</event>
<event>
 5   1  0.2192208E+09  0.9118800E+02  0.7818608E-02  0.1180000E+00
       11   -1    0    0    0    0  0.00000000000E+00  0.00000000000E+00  0.10559998763E+01  0.10560000000E+01  0.51109989000E-03 0. -1.
     -623   -1    0    0    0    0  0.00000000000E+00  0.00000000000E+00  0.47855275298E-10  0.17124000000E+03  0.17124000000E+03 0.  1.
       11    1    1    2    0    0 -0.16830396756E-02 -0.53247460439E-03  0.98651760833E+00  0.98651932009E+00  0.51109989000E-03 0. -1.
     -623    1    1    2    0    0  0.77288108172E-03  0.14802586381E-02  0.14023014797E-04  0.17124000001E+03  0.17124000000E+03 0.  1.
       22    1    1    2    0    0  0.91015857723E-03 -0.94778406549E-03  0.69468267720E-01  0.69480694464E-01  0.00000000000E+00 0. -1.
</event>
<event>
 5   1  0.2192208E+09  0.9118800E+02  0.7818608E-02  0.1180000E+00
       11   -1    0    0    0    0  0.00000000000E+00  0.00000000000E+00  0.10559998763E+01  0.10560000000E+01  0.51109989000E-03 0. -1.
     -623   -1    0    0    0    0  0.00000000000E+00  0.00000000000E+00  0.47855275298E-10  0.17124000000E+03  0.17124000000E+03 0.  1.
       11    1    1    2    0    0  0.28431032844E-02 -0.90476203200E-02  0.59024291497E+00  0.59031932254E+00  0.51109989000E-03 0. -1.
     -623    1    1    2    0    0 -0.49348206763E-02  0.14418246240E-01  0.11263053848E-03  0.17124000068E+03  0.17124000000E+03 0.  1.
       22    1    1    2    0    0  0.20917173131E-02 -0.53706256895E-02  0.46564431398E+00  0.46567998244E+00  0.00000000000E+00 0. -1.
</event>
<event>
 5   1  0.2192208E+09  0.9118800E+02  0.7818608E-02  0.1180000E+00
       11   -1    0    0    0    0  0.00000000000E+00  0.00000000000E+00  0.10559998763E+01  0.10560000000E+01  0.51109989000E-03 0.  1.
     -623   -1    0    0    0    0  0.00000000000E+00  0.00000000000E+00  0.47855275298E-10  0.17124000000E+03  0.17124000000E+03 0. -1.
       11    1    1    2    0    0 -0.28346435699E-02 -0.18856120652E-02  0.62561520054E+00  0.62562467272E+00  0.51109989000E-03 0.  1.
     -623    1    1    2    0    0  0.37155069174E-03  0.61970064705E-02  0.38105578136E-04  0.17124000011E+03  0.17124000000E+03 0. -1.
       22    1    1    2    0    0  0.24630928757E-02 -0.43113944477E-02  0.43034657746E+00  0.43037522196E+00  0.00000000000E+00 0.  1.
</event>
<event>
 5   1  0.2192208E+09  0.9118800E+02  0.7818608E-02  0.1180000E+00
       11   -1    0    0    0    0  0.00000000000E+00  0.00000000000E+00  0.10559998763E+01  0.10560000000E+01  0.51109989000E-03 0. -1.
     -623   -1    0    0    0    0  0.00000000000E+00  0.00000000000E+00  0.47855275298E-10  0.17124000000E+03  0.17124000000E+03 0. -1.
       11    1    1    2    0    0  0.13248873551E-02  0.18404068772E-02  0.87064851974E+00  0.87065162297E+00  0.51109989000E-03 0. -1.
     -623    1    1    2    0    0  0.36053945149E-04  0.40953177618E-04  0.17524880080E-04  0.17124000000E+03  0.17124000000E+03 0. -1.
       22    1    1    2    0    0 -0.13609412999E-02 -0.18813600545E-02  0.18533382273E+00  0.18534836802E+00  0.00000000000E+00 0.  1.
</event>
<event>
 5   1  0.2192208E+09  0.9118800E+02  0.7818608E-02  0.1180000E+00
       11   -1    0    0    0    0  0.00000000000E+00  0.00000000000E+00  0.10559998763E+01  0.10560000000E+01  0.51109989000E-03 0. -1.
     -623   -1    0    0    0    0  0.00000000000E+00  0.00000000000E+00  0.47855275298E-10  0.17124000000E+03  0.17124000000E+03 0. -1.
       11    1    1    2    0    0 -0.39359384543E-02 -0.31564146980E-02  0.82223069467E+00  0.82224633234E+00  0.51109989000E-03 0. -1.
     -623    1    1    2    0    0 -0.26938919329E-02 -0.32794542150E-02  0.19825575208E-03  0.17124000005E+03  0.17124000000E+03 0. -1.
       22    1    1    2    0    0  0.66298303934E-02  0.64358689205E-02  0.23357092835E+00  0.23375361736E+00  0.00000000000E+00 0. -1.
</event>
<event>
 5   1  0.2192208E+09  0.9118800E+02  0.7818608E-02  0.1180000E+00
       11   -1    0    0    0    0  0.00000000000E+00  0.00000000000E+00  0.10559998763E+01  0.10560000000E+01  0.51109989000E-03 0.  1.
     -623   -1    0    0    0    0  0.00000000000E+00  0.00000000000E+00  0.47855275298E-10  0.17124000000E+03  0.17124000000E+03 0. -1.
       11    1    1    2    0    0 -0.23773885737E-02 -0.45538498170E-02  0.94489896126E+00  0.94491306359E+00  0.51109989000E-03 0.  1.
     -623    1    1    2    0    0  0.58822730456E-02  0.15926648068E-02  0.10888606554E-03  0.17124000011E+03  0.17124000000E+03 0. -1.
       22    1    1    2    0    0 -0.35048844667E-02  0.29611850115E-02  0.11099202811E+00  0.11108682701E+00  0.00000000000E+00 0.  1.
</event>
<event>
 5   1  0.2192208E+09  0.9118800E+02  0.7818608E-02  0.1180000E+00
       11   -1    0    0    0    0  0.00000000000E+00  0.00000000000E+00  0.10559998763E+01  0.10560000000E+01  0.51109989000E-03 0. -1.
     -623   -1    0    0    0    0  0.00000000000E+00  0.00000000000E+00  0.47855275298E-10  0.17124000000E+03  0.17124000000E+03 0. -1.
       11    1    1    2    0    0 -0.45040211739E-02  0.10211751241E-01  0.95997264313E+00  0.96003765699E+00  0.51109989000E-03 0. -1.
     -623    1    1    2    0    0  0.52385141911E-02 -0.11275694264E-01  0.74050956909E-04  0.17124000045E+03  0.17124000000E+03 0. -1.
       22    1    1    2    0    0 -0.73449183928E-03  0.10639404873E-02  0.95952944849E-01  0.95961654179E-01  0.00000000000E+00 0. -1.
</event>
<event>
 5   1  0.2192208E+09  0.9118800E+02  0.7818608E-02  0.1180000E+00
       11   -1    0    0    0    0  0.00000000000E+00  0.00000000000E+00  0.10559998763E+01  0.10560000000E+01  0.51109989000E-03 0. -1.
     -623   -1    0    0    0    0  0.00000000000E+00  0.00000000000E+00  0.47855275298E-10  0.17124000000E+03  0.17124000000E+03 0.  1.
       11    1    1    2    0    0  0.22568631642E-03  0.73255174989E-02  0.46047317510E+00  0.46053177996E+00  0.51109989000E-03 0. -1.
     -623    1    1    2    0    0  0.25171722161E-03  0.23321977549E-03  0.10664935970E-03  0.17124000000E+03  0.17124000000E+03 0.  1.
       22    1    1    2    0    0 -0.47740353836E-03 -0.75587372747E-02  0.59542005331E+00  0.59546822108E+00  0.00000000000E+00 0. -1.
</event>
<event>
 5   1  0.2192208E+09  0.9118800E+02  0.7818608E-02  0.1180000E+00
       11   -1    0    0    0    0  0.00000000000E+00  0.00000000000E+00  0.10559998763E+01  0.10560000000E+01  0.51109989000E-03 0.  1.
     -623   -1    0    0    0    0  0.00000000000E+00  0.00000000000E+00  0.47855275298E-10  0.17124000000E+03  0.17124000000E+03 0.  1.
       11    1    1    2    0    0 -0.37504168123E-02  0.26695151255E-02  0.73747443643E+00  0.73748898130E+00  0.51109989000E-03 0.  1.
     -623    1    1    2    0    0  0.94624387217E-05  0.53833384579E-03  0.52547130740E-04  0.17124000000E+03  0.17124000000E+03 0.  1.
       22    1    1    2    0    0  0.37409543736E-02 -0.32078489692E-02  0.31847288874E+00  0.31851101378E+00  0.00000000000E+00 0.  1.
</event>
<event>
 5   1  0.2192208E+09  0.9118800E+02  0.7818608E-02  0.1180000E+00
       11   -1    0    0    0    0  0.00000000000E+00  0.00000000000E+00  0.10559998763E+01  0.10560000000E+01  0.51109989000E-03 0. -1.
     -623   -1    0    0    0    0  0.00000000000E+00  0.00000000000E+00  0.47855275298E-10  0.17124000000E+03  0.17124000000E+03 0.  1.
       11    1    1    2    0    0 -0.19038115731E-01 -0.24616061880E-01  0.73663498725E+00  0.73729218497E+00  0.51109989000E-03 0. -1.
     -623    1    1    2    0    0  0.19537090061E-02  0.11378297750E-01  0.13911412271E-02  0.17124000039E+03  0.17124000000E+03 0.  1.
       22    1    1    2    0    0  0.17084406725E-01  0.13237764131E-01  0.31797374776E+00  0.31870742008E+00  0.00000000000E+00 0.  1.
</event>
<event>
 5   1  0.2192208E+09  0.9118800E+02  0.7818608E-02  0.1180000E+00
       11   -1    0    0    0    0  0.00000000000E+00  0.00000000000E+00  0.10559998763E+01  0.10560000000E+01  0.51109989000E-03 0.  1.
     -623   -1    0    0    0    0  0.00000000000E+00  0.00000000000E+00  0.47855275298E-10  0.17124000000E+03  0.17124000000E+03 0. -1.
       11    1    1    2    0    0  0.31988801045E-02  0.12209672235E-01  0.81731794173E+00  0.81741555406E+00  0.51109989000E-03 0. -1.
     -623    1    1    2    0    0 -0.40652390368E-02 -0.15563194299E-01  0.12338702080E-03  0.17124000076E+03  0.17124000000E+03 0. -1.
       22    1    1    2    0    0  0.86636235581E-03  0.33535351706E-02  0.23855943681E+00  0.23858457971E+00  0.00000000000E+00 0.  1.
</event>
<event>
 5   1  0.2192208E+09  0.9118800E+02  0.7818608E-02  0.1180000E+00
       11   -1    0    0    0    0  0.00000000000E+00  0.00000000000E+00  0.10559998763E+01  0.10560000000E+01  0.51109989000E-03 0.  1.
     -623   -1    0    0    0    0  0.00000000000E+00  0.00000000000E+00  0.47855275298E-10  0.17124000000E+03  0.17124000000E+03 0. -1.
       11    1    1    2    0    0 -0.41347726551E-02  0.18383281706E-02  0.94488671151E+00  0.94489768473E+00  0.51109989000E-03 0.  1.
     -623    1    1    2    0    0 -0.93207603154E-03  0.42571170460E-03  0.14954499965E-03  0.17124000000E+03  0.17124000000E+03 0. -1.
       22    1    1    2    0    0  0.50668486878E-02 -0.22640398757E-02  0.11096362116E+00  0.11110231345E+00  0.00000000000E+00 0.  1.
</event>
<event>
 5   1  0.2192208E+09  0.9118800E+02  0.7818608E-02  0.1180000E+00
       11   -1    0    0    0    0  0.00000000000E+00  0.00000000000E+00  0.10559998763E+01  0.10560000000E+01  0.51109989000E-03 0. -1.
     -623   -1    0    0    0    0  0.00000000000E+00  0.00000000000E+00  0.47855275298E-10  0.17124000000E+03  0.17124000000E+03 0. -1.
       11    1    1    2    0    0  0.29499647366E-03 -0.35922107975E-03  0.99281552131E+00  0.99281576168E+00  0.51109989000E-03 0. -1.
     -623    1    1    2    0    0  0.70754083257E-04 -0.27782836357E-03  0.43872121356E-05  0.17124000000E+03  0.17124000000E+03 0. -1.
       22    1    1    2    0    0 -0.36575055758E-03  0.63704944590E-03  0.63179977632E-01  0.63184247871E-01  0.00000000000E+00 0. -1.
</event>
<event>
 5   1  0.2192208E+09  0.9118800E+02  0.7818608E-02  0.1180000E+00
       11   -1    0    0    0    0  0.00000000000E+00  0.00000000000E+00  0.10559998763E+01  0.10560000000E+01  0.51109989000E-03 0.  1.
     -623   -1    0    0    0    0  0.00000000000E+00  0.00000000000E+00  0.47855275298E-10  0.17124000000E+03  0.17124000000E+03 0. -1.
       11    1    1    2    0    0  0.30434579402E-03 -0.19772415697E-02  0.99538239736E+00  0.99538453892E+00  0.51109989000E-03 0.  1.
     -623    1    1    2    0    0 -0.91211626348E-03  0.89773407615E-03  0.14683513651E-04  0.17124000000E+03  0.17124000000E+03 0. -1.
       22    1    1    2    0    0  0.60777045774E-03  0.10795075051E-02  0.60602781917E-01  0.60615442731E-01  0.00000000000E+00 0. -1.
</event>
<event>
 5   1  0.2192208E+09  0.9118800E+02  0.7818608E-02  0.1180000E+00
       11   -1    0    0    0    0  0.00000000000E+00  0.00000000000E+00  0.10559998763E+01  0.10560000000E+01  0.51109989000E-03 0.  1.
     -623   -1    0    0    0    0  0.00000000000E+00  0.00000000000E+00  0.47855275298E-10  0.17124000000E+03  0.17124000000E+03 0.  1.
       11    1    1    2    0    0  0.55822150302E-02 -0.52329875309E-04  0.37551300338E+00  0.37555484393E+00  0.51109989000E-03 0.  1.
     -623    1    1    2    0    0 -0.54061472194E-03 -0.67990619480E-02  0.95025414881E-04  0.17124000014E+03  0.17124000000E+03 0.  1.
       22    1    1    2    0    0 -0.50416003121E-02  0.68513917752E-02  0.68039184009E+00  0.68044501274E+00  0.00000000000E+00 0.  1.
</event>
<event>
 5   1  0.2192208E+09  0.9118800E+02  0.7818608E-02  0.1180000E+00
       11   -1    0    0    0    0  0.00000000000E+00  0.00000000000E+00  0.10559998763E+01  0.10560000000E+01  0.51109989000E-03 0. -1.
     -623   -1    0    0    0    0  0.00000000000E+00  0.00000000000E+00  0.47855275298E-10  0.17124000000E+03  0.17124000000E+03 0.  1.
       11    1    1    2    0    0  0.25225337228E-02  0.38121904162E-02  0.69942919979E+00  0.69944432425E+00  0.51109989000E-03 0. -1.
     -623    1    1    2    0    0 -0.23122782195E-03  0.89954578999E-04  0.43716911668E-04  0.17124000000E+03  0.17124000000E+03 0.  1.
       22    1    1    2    0    0 -0.22913058995E-02 -0.39021449957E-02  0.35652696584E+00  0.35655568176E+00  0.00000000000E+00 0. -1.
</event>
<event>
 5   1  0.2192208E+09  0.9118800E+02  0.7818608E-02  0.1180000E+00
       11   -1    0    0    0    0  0.00000000000E+00  0.00000000000E+00  0.10559998763E+01  0.10560000000E+01  0.51109989000E-03 0.  1.
     -623   -1    0    0    0    0  0.00000000000E+00  0.00000000000E+00  0.47855275298E-10  0.17124000000E+03  0.17124000000E+03 0. -1.
       11    1    1    2    0    0 -0.14852905054E-02 -0.73182600914E-02  0.93999983119E+00  0.94002963085E+00  0.51109989000E-03 0.  1.
     -623    1    1    2    0    0  0.19989760073E-02  0.89265134887E-02  0.42210175030E-04  0.17124000024E+03  0.17124000000E+03 0. -1.
       22    1    1    2    0    0 -0.51368563069E-03 -0.16082539727E-02  0.11595790307E+00  0.11597019288E+00  0.00000000000E+00 0.  1.
</event>
<event>
 5   1  0.2192208E+09  0.9118800E+02  0.7818608E-02  0.1180000E+00
       11   -1    0    0    0    0  0.00000000000E+00  0.00000000000E+00  0.10559998763E+01  0.10560000000E+01  0.51109989000E-03 0. -1.
     -623   -1    0    0    0    0  0.00000000000E+00  0.00000000000E+00  0.47855275298E-10  0.17124000000E+03  0.17124000000E+03 0.  1.
       11    1    1    2    0    0 -0.38012963984E-03 -0.10310122000E-01  0.98260752608E+00  0.98266182110E+00  0.51109989000E-03 0. -1.
     -623    1    1    2    0    0  0.43823987815E-03  0.11299756293E-01  0.61245261964E-04  0.17124000037E+03  0.17124000000E+03 0.  1.
       22    1    1    2    0    0 -0.58110283544E-04 -0.98963545901E-03  0.73331214005E-01  0.73337914496E-01  0.00000000000E+00 0. -1.
</event>
<event>
 5   1  0.2192208E+09  0.9118800E+02  0.7818608E-02  0.1180000E+00
       11   -1    0    0    0    0  0.00000000000E+00  0.00000000000E+00  0.10559998763E+01  0.10560000000E+01  0.51109989000E-03 0.  1.
     -623   -1    0    0    0    0  0.00000000000E+00  0.00000000000E+00  0.47855275298E-10  0.17124000000E+03  0.17124000000E+03 0.  1.
       11    1    1    2    0    0 -0.48686376996E-02  0.99126823592E-03  0.98274642846E+00  0.98275912111E+00  0.51109989000E-03 0.  1.
     -623    1    1    2    0    0  0.55965344611E-02 -0.12751195953E-03  0.21371397738E-04  0.17124000009E+03  0.17124000000E+03 0.  1.
       22    1    1    2    0    0 -0.72789693729E-03 -0.86375627238E-03  0.73232109662E-01  0.73240820547E-01  0.00000000000E+00 0.  1.
</event>
<event>
 5   1  0.2192208E+09  0.9118800E+02  0.7818608E-02  0.1180000E+00
       11   -1    0    0    0    0  0.00000000000E+00  0.00000000000E+00  0.10559998763E+01  0.10560000000E+01  0.51109989000E-03 0.  1.
     -623   -1    0    0    0    0  0.00000000000E+00  0.00000000000E+00  0.47855275298E-10  0.17124000000E+03  0.17124000000E+03 0. -1.
       11    1    1    2    0    0 -0.57425957832E-02 -0.82480399960E-02  0.74301680161E+00  0.74308494552E+00  0.51109989000E-03 0.  1.
     -623    1    1    2    0    0  0.77767748340E-02  0.12559786083E-02  0.15294342045E-03  0.17124000018E+03  0.17124000000E+03 0. -1.
       22    1    1    2    0    0 -0.20341790611E-02  0.69920613861E-02  0.31283013272E+00  0.31291487460E+00  0.00000000000E+00 0.  1.
</event>
<event>
 5   1  0.2192208E+09  0.9118800E+02  0.7818608E-02  0.1180000E+00
       11   -1    0    0    0    0  0.00000000000E+00  0.00000000000E+00  0.10559998763E+01  0.10560000000E+01  0.51109989000E-03 0. -1.
     -623   -1    0    0    0    0  0.00000000000E+00  0.00000000000E+00  0.47855275298E-10  0.17124000000E+03  0.17124000000E+03 0. -1.
       11    1    1    2    0    0  0.58684546165E-02  0.11021841694E-01  0.76832917303E+00  0.76843080307E+00  0.51109989000E-03 0. -1.
     -623    1    1    2    0    0 -0.73437858715E-02 -0.14545870350E-01  0.12766006714E-03  0.17124000078E+03  0.17124000000E+03 0. -1.
       22    1    1    2    0    0  0.14753324950E-02  0.35240311119E-02  0.28754322155E+00  0.28756859992E+00  0.00000000000E+00 0. -1.
</event>
<event>
 5   1  0.2192208E+09  0.9118800E+02  0.7818608E-02  0.1180000E+00
       11   -1    0    0    0    0  0.00000000000E+00  0.00000000000E+00  0.10559998763E+01  0.10560000000E+01  0.51109989000E-03 0. -1.
     -623   -1    0    0    0    0  0.00000000000E+00  0.00000000000E+00  0.47855275298E-10  0.17124000000E+03  0.17124000000E+03 0.  1.
       11    1    1    2    0    0 -0.20802064425E-02 -0.10684572608E-01  0.97950594556E+00  0.97956656025E+00  0.51109989000E-03 0. -1.
     -623    1    1    2    0    0  0.22087055394E-02  0.11498689535E-01  0.65335254540E-04  0.17124000040E+03  0.17124000000E+03 0.  1.
       22    1    1    2    0    0 -0.12849392126E-03 -0.81408998176E-03  0.76426121171E-01  0.76430564896E-01  0.00000000000E+00 0. -1.
</event>
<event>
 5   1  0.2192208E+09  0.9118800E+02  0.7818608E-02  0.1180000E+00
       11   -1    0    0    0    0  0.00000000000E+00  0.00000000000E+00  0.10559998763E+01  0.10560000000E+01  0.51109989000E-03 0.  1.
     -623   -1    0    0    0    0  0.00000000000E+00  0.00000000000E+00  0.47855275298E-10  0.17124000000E+03  0.17124000000E+03 0. -1.
       11    1    1    2    0    0 -0.14746671789E-02 -0.14418728263E-02  0.85300968672E+00  0.85301233315E+00  0.51109989000E-03 0.  1.
     -623    1    1    2    0    0  0.69016890883E-03 -0.64100147577E-03  0.14727975892E-04  0.17124000000E+03  0.17124000000E+03 0. -1.
       22    1    1    2    0    0  0.78449827757E-03  0.20828742951E-02  0.20297545023E+00  0.20298765282E+00  0.00000000000E+00 0.  1.
</event>
<event>
 5   1  0.2192208E+09  0.9118800E+02  0.7818608E-02  0.1180000E+00
       11   -1    0    0    0    0  0.00000000000E+00  0.00000000000E+00  0.10559998763E+01  0.10560000000E+01  0.51109989000E-03 0. -1.
     -623   -1    0    0    0    0  0.00000000000E+00  0.00000000000E+00  0.47855275298E-10  0.17124000000E+03  0.17124000000E+03 0. -1.
       11    1    1    2    0    0  0.28318383130E-02  0.62512995887E-02  0.69333432993E+00  0.69336848237E+00  0.51109989000E-03 0. -1.
     -623    1    1    2    0    0 -0.34984175557E-02 -0.10401304396E-01  0.58740535324E-04  0.17124000035E+03  0.17124000000E+03 0. -1.
       22    1    1    2    0    0  0.66657934195E-03  0.41500051019E-02  0.36260683584E+00  0.36263119594E+00  0.00000000000E+00 0. -1.
</event>
<event>
 5   1  0.2192208E+09  0.9118800E+02  0.7818608E-02  0.1180000E+00
       11   -1    0    0    0    0  0.00000000000E+00  0.00000000000E+00  0.10559998763E+01  0.10560000000E+01  0.51109989000E-03 0.  1.
     -623   -1    0    0    0    0  0.00000000000E+00  0.00000000000E+00  0.47855275298E-10  0.17124000000E+03  0.17124000000E+03 0.  1.
       11    1    1    2    0    0  0.52371278788E-02 -0.25350429999E-01  0.98728923320E+00  0.98762865645E+00  0.51109989000E-03 0.  1.
     -623    1    1    2    0    0 -0.52801727919E-02  0.27197691505E-01  0.36651492561E-03  0.17124000224E+03  0.17124000000E+03 0.  1.
       22    1    1    2    0    0  0.43045673031E-04 -0.18472654194E-02  0.68344280161E-01  0.68369253859E-01  0.00000000000E+00 0.  1.
</event>
<event>
 5   1  0.2192208E+09  0.9118800E+02  0.7818608E-02  0.1180000E+00
       11   -1    0    0    0    0  0.00000000000E+00  0.00000000000E+00  0.10559998763E+01  0.10560000000E+01  0.51109989000E-03 0. -1.
     -623   -1    0    0    0    0  0.00000000000E+00  0.00000000000E+00  0.47855275298E-10  0.17124000000E+03  0.17124000000E+03 0.  1.
       11    1    1    2    0    0  0.98851913167E-03 -0.11945583210E-02  0.10023901247E+01  0.10023914542E+01  0.51109989000E-03 0. -1.
     -623    1    1    2    0    0 -0.76737099715E-04  0.74594247257E-04  0.20662164286E-04  0.17124000000E+03  0.17124000000E+03 0.  1.
       22    1    1    2    0    0 -0.91178203099E-03  0.11199640728E-02  0.53589102716E-01  0.53608558980E-01  0.00000000000E+00 0. -1.
</event>
<event>
 5   1  0.2192208E+09  0.9118800E+02  0.7818608E-02  0.1180000E+00
       11   -1    0    0    0    0  0.00000000000E+00  0.00000000000E+00  0.10559998763E+01  0.10560000000E+01  0.51109989000E-03 0. -1.
     -623   -1    0    0    0    0  0.00000000000E+00  0.00000000000E+00  0.47855275298E-10  0.17124000000E+03  0.17124000000E+03 0. -1.
       11    1    1    2    0    0 -0.35627155757E-03  0.24439399686E-01  0.38052970053E+00  0.38131420822E+00  0.51109989000E-03 0. -1.
     -623    1    1    2    0    0  0.15980789461E-02  0.18116465484E-02  0.12964382159E-02  0.17124000002E+03  0.17124000000E+03 0. -1.
       22    1    1    2    0    0 -0.12418073890E-02 -0.26251046235E-01  0.67417373790E+00  0.67468577011E+00  0.00000000000E+00 0. -1.
</event>
<event>
 5   1  0.2192208E+09  0.9118800E+02  0.7818608E-02  0.1180000E+00
       11   -1    0    0    0    0  0.00000000000E+00  0.00000000000E+00  0.10559998763E+01  0.10560000000E+01  0.51109989000E-03 0. -1.
     -623   -1    0    0    0    0  0.00000000000E+00  0.00000000000E+00  0.47855275298E-10  0.17124000000E+03  0.17124000000E+03 0. -1.
       11    1    1    2    0    0  0.13659175949E-01 -0.14182168026E-01  0.69143714382E+00  0.69171763896E+00  0.51109989000E-03 0. -1.
     -623    1    1    2    0    0 -0.21359675193E-01  0.22095981344E-01  0.45052068883E-03  0.17124000276E+03  0.17124000000E+03 0. -1.
       22    1    1    2    0    0  0.77005029922E-02 -0.79138171957E-02  0.36411239709E+00  0.36427978803E+00  0.00000000000E+00 0. -1.
</event>
<event>
 5   1  0.2192208E+09  0.9118800E+02  0.7818608E-02  0.1180000E+00
       11   -1    0    0    0    0  0.00000000000E+00  0.00000000000E+00  0.10559998763E+01  0.10560000000E+01  0.51109989000E-03 0. -1.
     -623   -1    0    0    0    0  0.00000000000E+00  0.00000000000E+00  0.47855275298E-10  0.17124000000E+03  0.17124000000E+03 0.  1.
       11    1    1    2    0    0  0.17351843351E-01  0.51948908578E-02  0.83740416524E+00  0.83760018538E+00  0.51109989000E-03 0. -1.
     -623    1    1    2    0    0 -0.18956978878E-01 -0.10488942327E-01  0.26734182013E-03  0.17124000137E+03  0.17124000000E+03 0.  1.
       22    1    1    2    0    0  0.16051354769E-02  0.52940514417E-02  0.21832836656E+00  0.21839844113E+00  0.00000000000E+00 0.  1.
</event>
<event>
 5   1  0.2192208E+09  0.9118800E+02  0.7818608E-02  0.1180000E+00
       11   -1    0    0    0    0  0.00000000000E+00  0.00000000000E+00  0.10559998763E+01  0.10560000000E+01  0.51109989000E-03 0. -1.
     -623   -1    0    0    0    0  0.00000000000E+00  0.00000000000E+00  0.47855275298E-10  0.17124000000E+03  0.17124000000E+03 0. -1.
       11    1    1    2    0    0 -0.28383206617E-01 -0.29124342649E-01  0.10029708715E+01  0.10037951305E+01  0.51109989000E-03 0. -1.
     -623    1    1    2    0    0  0.29747516877E-01  0.31264049900E-01  0.89129556674E-03  0.17124000544E+03  0.17124000000E+03 0. -1.
       22    1    1    2    0    0 -0.13643103588E-02 -0.21397073545E-02  0.52137712749E-01  0.52199432766E-01  0.00000000000E+00 0.  1.
</event>
<event>
 5   1  0.2192208E+09  0.9118800E+02  0.7818608E-02  0.1180000E+00
       11   -1    0    0    0    0  0.00000000000E+00  0.00000000000E+00  0.10559998763E+01  0.10560000000E+01  0.51109989000E-03 0. -1.
     -623   -1    0    0    0    0  0.00000000000E+00  0.00000000000E+00  0.47855275298E-10  0.17124000000E+03  0.17124000000E+03 0. -1.
       11    1    1    2    0    0 -0.14937147885E-02  0.49415482237E-03  0.96959137211E+00  0.96959278331E+00  0.51109989000E-03 0. -1.
     -623    1    1    2    0    0  0.66876378611E-03 -0.15778135701E-02  0.12030064718E-04  0.17124000001E+03  0.17124000000E+03 0. -1.
       22    1    1    2    0    0  0.82495099717E-03  0.10836587601E-02  0.86396482486E-01  0.86407216403E-01  0.00000000000E+00 0. -1.
</event>
<event>
 5   1  0.2192208E+09  0.9118800E+02  0.7818608E-02  0.1180000E+00
       11   -1    0    0    0    0  0.00000000000E+00  0.00000000000E+00  0.10559998763E+01  0.10560000000E+01  0.51109989000E-03 0.  1.
     -623   -1    0    0    0    0  0.00000000000E+00  0.00000000000E+00  0.47855275298E-10  0.17124000000E+03  0.17124000000E+03 0. -1.
       11    1    1    2    0    0 -0.85789554974E-03  0.17139394487E-02  0.96500750624E+00  0.96500954497E+00  0.51109989000E-03 0.  1.
     -623    1    1    2    0    0  0.32580103330E-05 -0.34018479477E-04  0.21438691843E-04  0.17124000000E+03  0.17124000000E+03 0. -1.
       22    1    1    2    0    0  0.85463753935E-03 -0.16799209686E-02  0.90970948995E-01  0.90990472582E-01  0.00000000000E+00 0.  1.
</event>
<event>
 5   1  0.2192208E+09  0.9118800E+02  0.7818608E-02  0.1180000E+00
       11   -1    0    0    0    0  0.00000000000E+00  0.00000000000E+00  0.10559998763E+01  0.10560000000E+01  0.51109989000E-03 0.  1.
     -623   -1    0    0    0    0  0.00000000000E+00  0.00000000000E+00  0.47855275298E-10  0.17124000000E+03  0.17124000000E+03 0. -1.
       11    1    1    2    0    0 -0.93941704941E-03  0.15495535587E-02  0.93887236150E+00  0.93887424931E+00  0.51109989000E-03 0.  1.
     -623    1    1    2    0    0 -0.46776977279E-04 -0.16424155889E-03  0.14109202916E-04  0.17124000000E+03  0.17124000000E+03 0. -1.
       22    1    1    2    0    0  0.98619402760E-03 -0.13853119967E-02  0.11711342607E+00  0.11712577101E+00  0.00000000000E+00 0. -1.
</event>
<event>
 5   1  0.2192208E+09  0.9118800E+02  0.7818608E-02  0.1180000E+00
       11   -1    0    0    0    0  0.00000000000E+00  0.00000000000E+00  0.10559998763E+01  0.10560000000E+01  0.51109989000E-03 0. -1.
     -623   -1    0    0    0    0  0.00000000000E+00  0.00000000000E+00  0.47855275298E-10  0.17124000000E+03  0.17124000000E+03 0.  1.
       11    1    1    2    0    0  0.17932854975E-02 -0.62410078668E-02  0.49108609524E+00  0.49112929073E+00  0.51109989000E-03 0. -1.
     -623    1    1    2    0    0 -0.74750038397E-03  0.13097871911E-01  0.86161255970E-04  0.17124000050E+03  0.17124000000E+03 0.  1.
       22    1    1    2    0    0 -0.10457851393E-02 -0.68568635928E-02  0.56482758347E+00  0.56487017030E+00  0.00000000000E+00 0. -1.
</event>
<event>
 5   1  0.2192208E+09  0.9118800E+02  0.7818608E-02  0.1180000E+00
       11   -1    0    0    0    0  0.00000000000E+00  0.00000000000E+00  0.10559998763E+01  0.10560000000E+01  0.51109989000E-03 0.  1.
     -623   -1    0    0    0    0  0.00000000000E+00  0.00000000000E+00  0.47855275298E-10  0.17124000000E+03  0.17124000000E+03 0. -1.
       11    1    1    2    0    0  0.37015571039E-02  0.22105364296E-02  0.96991086576E+00  0.96992058269E+00  0.51109989000E-03 0.  1.
     -623    1    1    2    0    0 -0.39917782284E-03 -0.22063394481E-03  0.95984417282E-04  0.17124000000E+03  0.17124000000E+03 0. -1.
       22    1    1    2    0    0 -0.33023792823E-02 -0.19899024855E-02  0.85993022740E-01  0.86079413223E-01  0.00000000000E+00 0. -1.
</event>
<event>
 5   1  0.2192208E+09  0.9118800E+02  0.7818608E-02  0.1180000E+00
       11   -1    0    0    0    0  0.00000000000E+00  0.00000000000E+00  0.10559998763E+01  0.10560000000E+01  0.51109989000E-03 0.  1.
     -623   -1    0    0    0    0  0.00000000000E+00  0.00000000000E+00  0.47855275298E-10  0.17124000000E+03  0.17124000000E+03 0.  1.
       11    1    1    2    0    0 -0.31571859155E-02 -0.23261194246E-02  0.98727076675E+00  0.98727868748E+00  0.51109989000E-03 0.  1.
     -623    1    1    2    0    0  0.29565042005E-03  0.15161960109E-02  0.72183719802E-04  0.17124000001E+03  0.17124000000E+03 0.  1.
       22    1    1    2    0    0  0.28615354954E-02  0.80992341340E-03  0.68656926071E-01  0.68721305713E-01  0.00000000000E+00 0. -1.
</event>
<event>
 5   1  0.2192208E+09  0.9118800E+02  0.7818608E-02  0.1180000E+00
       11   -1    0    0    0    0  0.00000000000E+00  0.00000000000E+00  0.10559998763E+01  0.10560000000E+01  0.51109989000E-03 0.  1.
     -623   -1    0    0    0    0  0.00000000000E+00  0.00000000000E+00  0.47855275298E-10  0.17124000000E+03  0.17124000000E+03 0. -1.
       11    1    1    2    0    0  0.14228729908E-02  0.17598626213E-02  0.87735066495E+00  0.87735373265E+00  0.51109989000E-03 0.  1.
     -623    1    1    2    0    0 -0.10515562906E-03  0.76915471013E-04  0.17247064511E-04  0.17124000000E+03  0.17124000000E+03 0. -1.
       22    1    1    2    0    0 -0.13177173622E-02 -0.18367780920E-02  0.17863196041E+00  0.17864626336E+00  0.00000000000E+00 0.  1.
</event>
<event>
 5   1  0.2192208E+09  0.9118800E+02  0.7818608E-02  0.1180000E+00
       11   -1    0    0    0    0  0.00000000000E+00  0.00000000000E+00  0.10559998763E+01  0.10560000000E+01  0.51109989000E-03 0.  1.
     -623   -1    0    0    0    0  0.00000000000E+00  0.00000000000E+00  0.47855275298E-10  0.17124000000E+03  0.17124000000E+03 0. -1.
       11    1    1    2    0    0 -0.50155573201E-02  0.57479764195E-03  0.80998042091E+00  0.80999631461E+00  0.51109989000E-03 0.  1.
     -623    1    1    2    0    0  0.86611852827E-02  0.26604039018E-02  0.64300698935E-04  0.17124000024E+03  0.17124000000E+03 0. -1.
       22    1    1    2    0    0 -0.36456281271E-02 -0.32352015943E-02  0.24595517481E+00  0.24600346573E+00  0.00000000000E+00 0. -1.
</event>
<event>
 5   1  0.2192208E+09  0.9118800E+02  0.7818608E-02  0.1180000E+00
       11   -1    0    0    0    0  0.00000000000E+00  0.00000000000E+00  0.10559998763E+01  0.10560000000E+01  0.51109989000E-03 0.  1.
     -623   -1    0    0    0    0  0.00000000000E+00  0.00000000000E+00  0.47855275298E-10  0.17124000000E+03  0.17124000000E+03 0. -1.
       11    1    1    2    0    0 -0.46376951933E-02  0.72784648184E-02  0.97132444799E+00  0.97136292329E+00  0.51109989000E-03 0.  1.
     -623    1    1    2    0    0  0.49128250760E-02 -0.83825385336E-02  0.46276079982E-04  0.17124000028E+03  0.17124000000E+03 0. -1.
       22    1    1    2    0    0 -0.27513075425E-03  0.11040752023E-02  0.84629339639E-01  0.84636988408E-01  0.00000000000E+00 0.  1.
</event>
<event>
 5   1  0.2192208E+09  0.9118800E+02  0.7818608E-02  0.1180000E+00
       11   -1    0    0    0    0  0.00000000000E+00  0.00000000000E+00  0.10559998763E+01  0.10560000000E+01  0.51109989000E-03 0. -1.
     -623   -1    0    0    0    0  0.00000000000E+00  0.00000000000E+00  0.47855275298E-10  0.17124000000E+03  0.17124000000E+03 0. -1.
       11    1    1    2    0    0 -0.26481897673E-03 -0.40616869078E-04  0.96561269648E+00  0.96561286891E+00  0.51109989000E-03 0. -1.
     -623    1    1    2    0    0 -0.80171254432E-04  0.23227374581E-02  0.29537577280E-04  0.17124000002E+03  0.17124000000E+03 0. -1.
       22    1    1    2    0    0  0.34499023215E-03 -0.22821206175E-02  0.90357655281E-01  0.90387128291E-01  0.00000000000E+00 0. -1.
</event>
<event>
 5   1  0.2192208E+09  0.9118800E+02  0.7818608E-02  0.1180000E+00
       11   -1    0    0    0    0  0.00000000000E+00  0.00000000000E+00  0.10559998763E+01  0.10560000000E+01  0.51109989000E-03 0.  1.
     -623   -1    0    0    0    0  0.00000000000E+00  0.00000000000E+00  0.47855275298E-10  0.17124000000E+03  0.17124000000E+03 0. -1.
       11    1    1    2    0    0  0.15575261692E-01  0.83716153252E-02  0.47741643560E+00  0.47774406006E+00  0.51109989000E-03 0.  1.
     -623    1    1    2    0    0 -0.16010109469E-02  0.15247584181E-02  0.58110812897E-03  0.17124000002E+03  0.17124000000E+03 0. -1.
       22    1    1    2    0    0 -0.13974250744E-01 -0.98963737437E-02  0.57800233297E+00  0.57825592501E+00  0.00000000000E+00 0.  1.
</event>
<event>
 5   1  0.2192208E+09  0.9118800E+02  0.7818608E-02  0.1180000E+00
       11   -1    0    0    0    0  0.00000000000E+00  0.00000000000E+00  0.10559998763E+01  0.10560000000E+01  0.51109989000E-03 0.  1.
     -623   -1    0    0    0    0  0.00000000000E+00  0.00000000000E+00  0.47855275298E-10  0.17124000000E+03  0.17124000000E+03 0. -1.
       11    1    1    2    0    0 -0.28602127653E-01  0.32069410303E-01  0.88384596392E+00  0.88489009371E+00  0.51109989000E-03 0.  1.
     -623    1    1    2    0    0  0.10155096965E-01 -0.41597089851E-01  0.23137139000E-02  0.17124000537E+03  0.17124000000E+03 0. -1.
       22    1    1    2    0    0  0.18447030687E-01  0.95276795532E-02  0.16984019866E+00  0.17110453735E+00  0.00000000000E+00 0. -1.
</event>
<event>
 5   1  0.2192208E+09  0.9118800E+02  0.7818608E-02  0.1180000E+00
       11   -1    0    0    0    0  0.00000000000E+00  0.00000000000E+00  0.10559998763E+01  0.10560000000E+01  0.51109989000E-03 0. -1.
     -623   -1    0    0    0    0  0.00000000000E+00  0.00000000000E+00  0.47855275298E-10  0.17124000000E+03  0.17124000000E+03 0.  1.
       11    1    1    2    0    0  0.30298272375E-01 -0.23899652586E-01  0.58727803564E+00  0.58854475707E+00  0.51109989000E-03 0. -1.
     -623    1    1    2    0    0 -0.54333131597E-01  0.41967843960E-01  0.22484869185E-02  0.17124001378E+03  0.17124000000E+03 0.  1.
       22    1    1    2    0    0  0.24034856035E-01 -0.18068188912E-01  0.46647329200E+00  0.46744140371E+00  0.00000000000E+00 0. -1.
</event>
<event>
 5   1  0.2192208E+09  0.9118800E+02  0.7818608E-02  0.1180000E+00
       11   -1    0    0    0    0  0.00000000000E+00  0.00000000000E+00  0.10559998763E+01  0.10560000000E+01  0.51109989000E-03 0. -1.
     -623   -1    0    0    0    0  0.00000000000E+00  0.00000000000E+00  0.47855275298E-10  0.17124000000E+03  0.17124000000E+03 0. -1.
       11    1    1    2    0    0 -0.10056847753E-01  0.12465917489E-01  0.91097600554E+00  0.91111694265E+00  0.51109989000E-03 0. -1.
     -623    1    1    2    0    0  0.11528596713E-01 -0.14413741539E-01  0.16237837961E-03  0.17124000099E+03  0.17124000000E+03 0. -1.
       22    1    1    2    0    0 -0.14717399023E-02  0.19478127265E-02  0.14486066294E+00  0.14488123294E+00  0.00000000000E+00 0. -1.
</event>
<event>
 5   1  0.2192208E+09  0.9118800E+02  0.7818608E-02  0.1180000E+00
       11   -1    0    0    0    0  0.00000000000E+00  0.00000000000E+00  0.10559998763E+01  0.10560000000E+01  0.51109989000E-03 0. -1.
     -623   -1    0    0    0    0  0.00000000000E+00  0.00000000000E+00  0.47855275298E-10  0.17124000000E+03  0.17124000000E+03 0.  1.
       11    1    1    2    0    0  0.82858275223E-03  0.10489598626E-01  0.41410483304E+00  0.41423881059E+00  0.51109989000E-03 0. -1.
     -623    1    1    2    0    0  0.82280856462E-03 -0.43941400252E-03  0.21468091908E-03  0.17124000000E+03  0.17124000000E+03 0.  1.
       22    1    1    2    0    0 -0.16513913163E-02 -0.10050184623E-01  0.64168036171E+00  0.64176118604E+00  0.00000000000E+00 0. -1.
</event>
<event>
 5   1  0.2192208E+09  0.9118800E+02  0.7818608E-02  0.1180000E+00
       11   -1    0    0    0    0  0.00000000000E+00  0.00000000000E+00  0.10559998763E+01  0.10560000000E+01  0.51109989000E-03 0. -1.
     -623   -1    0    0    0    0  0.00000000000E+00  0.00000000000E+00  0.47855275298E-10  0.17124000000E+03  0.17124000000E+03 0.  1.
       11    1    1    2    0    0  0.15225394962E-02  0.36667947630E-02  0.77657956626E+00  0.77658988370E+00  0.51109989000E-03 0. -1.
     -623    1    1    2    0    0 -0.24259773785E-02  0.17062731099E-02  0.63347290269E-04  0.17124000003E+03  0.17124000000E+03 0.  1.
       22    1    1    2    0    0  0.90343788209E-03 -0.53730678727E-02  0.27935696270E+00  0.27941009049E+00  0.00000000000E+00 0. -1.
</event>
<event>
 5   1  0.2192208E+09  0.9118800E+02  0.7818608E-02  0.1180000E+00
       11   -1    0    0    0    0  0.00000000000E+00  0.00000000000E+00  0.10559998763E+01  0.10560000000E+01  0.51109989000E-03 0.  1.
     -623   -1    0    0    0    0  0.00000000000E+00  0.00000000000E+00  0.47855275298E-10  0.17124000000E+03  0.17124000000E+03 0.  1.
       11    1    1    2    0    0  0.32022791536E-02 -0.32940304738E-02  0.99767664822E+00  0.99768735627E+00  0.51109989000E-03 0.  1.
     -623    1    1    2    0    0 -0.27346184314E-02  0.26518471616E-02  0.16038441341E-04  0.17124000004E+03  0.17124000000E+03 0.  1.
       22    1    1    2    0    0 -0.46766085012E-03  0.64218343619E-03  0.58307140316E-01  0.58312551977E-01  0.00000000000E+00 0. -1.
</event>
<event>
 5   1  0.2192208E+09  0.9118800E+02  0.7818608E-02  0.1180000E+00
       11   -1    0    0    0    0  0.00000000000E+00  0.00000000000E+00  0.10559998763E+01  0.10560000000E+01  0.51109989000E-03 0.  1.
     -623   -1    0    0    0    0  0.00000000000E+00  0.00000000000E+00  0.47855275298E-10  0.17124000000E+03  0.17124000000E+03 0.  1.
       11    1    1    2    0    0 -0.66336273815E-04  0.12747057929E-02  0.95580583868E+00  0.95580682764E+00  0.51109989000E-03 0.  1.
     -623    1    1    2    0    0  0.10677317682E-03 -0.36388314096E-04  0.85261756519E-05  0.17124000000E+03  0.17124000000E+03 0.  1.
       22    1    1    2    0    0 -0.40436904278E-04 -0.12383174783E-02  0.10018552411E+00  0.10019318493E+00  0.00000000000E+00 0.  1.
</event>
<event>
 5   1  0.2192208E+09  0.9118800E+02  0.7818608E-02  0.1180000E+00
       11   -1    0    0    0    0  0.00000000000E+00  0.00000000000E+00  0.10559998763E+01  0.10560000000E+01  0.51109989000E-03 0. -1.
     -623   -1    0    0    0    0  0.00000000000E+00  0.00000000000E+00  0.47855275298E-10  0.17124000000E+03  0.17124000000E+03 0.  1.
       11    1    1    2    0    0 -0.13010195414E-01  0.13893042885E-01  0.97963154084E+00  0.97981656388E+00  0.51109989000E-03 0. -1.
     -623    1    1    2    0    0  0.13800288461E-01 -0.15060093464E-01  0.19915517170E-03  0.17124000122E+03  0.17124000000E+03 0.  1.
       22    1    1    2    0    0 -0.79009871195E-03  0.11670567608E-02  0.76169613755E-01  0.76182651155E-01  0.00000000000E+00 0.  1.
</event>
<event>
 5   1  0.2192208E+09  0.9118800E+02  0.7818608E-02  0.1180000E+00
       11   -1    0    0    0    0  0.00000000000E+00  0.00000000000E+00  0.10559998763E+01  0.10560000000E+01  0.51109989000E-03 0.  1.
     -623   -1    0    0    0    0  0.00000000000E+00  0.00000000000E+00  0.47855275298E-10  0.17124000000E+03  0.17124000000E+03 0.  1.
       11    1    1    2    0    0  0.17318380070E-03 -0.22329111885E-02  0.99876086659E+00  0.99876350842E+00  0.51109989000E-03 0.  1.
     -623    1    1    2    0    0 -0.95765089734E-04  0.33235923977E-04  0.44854483755E-04  0.17124000000E+03  0.17124000000E+03 0.  1.
       22    1    1    2    0    0 -0.77418711731E-04  0.21996752648E-02  0.57194146813E-01  0.57236483073E-01  0.00000000000E+00 0. -1.
</event>
<event>
 5   1  0.2192208E+09  0.9118800E+02  0.7818608E-02  0.1180000E+00
       11   -1    0    0    0    0  0.00000000000E+00  0.00000000000E+00  0.10559998763E+01  0.10560000000E+01  0.51109989000E-03 0.  1.
     -623   -1    0    0    0    0  0.00000000000E+00  0.00000000000E+00  0.47855275298E-10  0.17124000000E+03  0.17124000000E+03 0. -1.
       11    1    1    2    0    0 -0.17170825693E-03  0.85581335864E-03  0.96425189447E+00  0.96425242499E+00  0.51109989000E-03 0.  1.
     -623    1    1    2    0    0 -0.14645706966E-03  0.32115832937E-03  0.85085940014E-05  0.17124000000E+03  0.17124000000E+03 0. -1.
       22    1    1    2    0    0  0.31816533124E-03 -0.11769716982E-02  0.91739506885E-01  0.91747608225E-01  0.00000000000E+00 0.  1.
</event>
<event>
 5   1  0.2192208E+09  0.9118800E+02  0.7818608E-02  0.1180000E+00
       11   -1    0    0    0    0  0.00000000000E+00  0.00000000000E+00  0.10559998763E+01  0.10560000000E+01  0.51109989000E-03 0. -1.
     -623   -1    0    0    0    0  0.00000000000E+00  0.00000000000E+00  0.47855275298E-10  0.17124000000E+03  0.17124000000E+03 0. -1.
       11    1    1    2    0    0  0.13241366245E-02 -0.34457824148E-02  0.78196027029E+00  0.78196915047E+00  0.51109989000E-03 0. -1.
     -623    1    1    2    0    0  0.29315632119E-04  0.13991956381E-03  0.32040673123E-04  0.17124000000E+03  0.17124000000E+03 0. -1.
       22    1    1    2    0    0 -0.13534522565E-02  0.33058628514E-02  0.27400756165E+00  0.27403084571E+00  0.00000000000E+00 0. -1.
</event>
<event>
 5   1  0.2192208E+09  0.9118800E+02  0.7818608E-02  0.1180000E+00
       11   -1    0    0    0    0  0.00000000000E+00  0.00000000000E+00  0.10559998763E+01  0.10560000000E+01  0.51109989000E-03 0. -1.
     -623   -1    0    0    0    0  0.00000000000E+00  0.00000000000E+00  0.47855275298E-10  0.17124000000E+03  0.17124000000E+03 0.  1.
       11    1    1    2    0    0 -0.30831357370E-01 -0.94774571920E-02  0.78179106222E+00  0.78245633807E+00  0.51109989000E-03 0. -1.
     -623    1    1    2    0    0  0.41671184269E-01  0.12980953740E-01  0.90803794246E-03  0.17124000556E+03  0.17124000000E+03 0.  1.
       22    1    1    2    0    0 -0.10839766646E-01 -0.35034777786E-02  0.27329925064E+00  0.27353657031E+00  0.00000000000E+00 0. -1.
</event>
<event>
 5   1  0.2192208E+09  0.9118800E+02  0.7818608E-02  0.1180000E+00
       11   -1    0    0    0    0  0.00000000000E+00  0.00000000000E+00  0.10559998763E+01  0.10560000000E+01  0.51109989000E-03 0. -1.
     -623   -1    0    0    0    0  0.00000000000E+00  0.00000000000E+00  0.47855275298E-10  0.17124000000E+03  0.17124000000E+03 0. -1.
       11    1    1    2    0    0 -0.20368400532E-02  0.34867115419E-02  0.22938873646E+00  0.22942484502E+00  0.51109989000E-03 0. -1.
     -623    1    1    2    0    0  0.10822479762E-01 -0.12771933444E-01  0.13565256442E-03  0.17124000082E+03  0.17124000000E+03 0. -1.
       22    1    1    2    0    0 -0.87856381354E-02  0.92852200459E-02  0.82647533385E+00  0.82657418313E+00  0.00000000000E+00 0. -1.
</event>
<event>
 5   1  0.2192208E+09  0.9118800E+02  0.7818608E-02  0.1180000E+00
       11   -1    0    0    0    0  0.00000000000E+00  0.00000000000E+00  0.10559998763E+01  0.10560000000E+01  0.51109989000E-03 0. -1.
     -623   -1    0    0    0    0  0.00000000000E+00  0.00000000000E+00  0.47855275298E-10  0.17124000000E+03  0.17124000000E+03 0.  1.
       11    1    1    2    0    0 -0.16010025154E-01  0.11962324495E-01  0.91890747238E+00  0.91912492194E+00  0.51109989000E-03 0. -1.
     -623    1    1    2    0    0  0.18532077201E-01 -0.13723324258E-01  0.25344744050E-03  0.17124000155E+03  0.17124000000E+03 0.  1.
       22    1    1    2    0    0 -0.25220917838E-02  0.17610291885E-02  0.13684122024E+00  0.13687578941E+00  0.00000000000E+00 0.  1.
</event>
<event>
 5   1  0.2192208E+09  0.9118800E+02  0.7818608E-02  0.1180000E+00
       11   -1    0    0    0    0  0.00000000000E+00  0.00000000000E+00  0.10559998763E+01  0.10560000000E+01  0.51109989000E-03 0.  1.
     -623   -1    0    0    0    0  0.00000000000E+00  0.00000000000E+00  0.47855275298E-10  0.17124000000E+03  0.17124000000E+03 0.  1.
       11    1    1    2    0    0 -0.17838723347E-02 -0.10838562039E-01  0.77500432370E+00  0.77508233085E+00  0.51109989000E-03 0.  1.
     -623    1    1    2    0    0  0.20189530282E-02  0.15234410012E-01  0.11306718091E-03  0.17124000069E+03  0.17124000000E+03 0.  1.
       22    1    1    2    0    0 -0.23508045740E-03 -0.43958461911E-02  0.28088236201E+00  0.28091685606E+00  0.00000000000E+00 0.  1.
</event>
<event>
 5   1  0.2192208E+09  0.9118800E+02  0.7818608E-02  0.1180000E+00
       11   -1    0    0    0    0  0.00000000000E+00  0.00000000000E+00  0.10559998763E+01  0.10560000000E+01  0.51109989000E-03 0.  1.
     -623   -1    0    0    0    0  0.00000000000E+00  0.00000000000E+00  0.47855275298E-10  0.17124000000E+03  0.17124000000E+03 0. -1.
       11    1    1    2    0    0 -0.14270845951E-01  0.87134681589E-02  0.48900824020E+00  0.48929428955E+00  0.51109989000E-03 0.  1.
     -623    1    1    2    0    0  0.31178912250E-01 -0.17293159208E-01  0.60690791680E-03  0.17124000371E+03  0.17124000000E+03 0. -1.
       22    1    1    2    0    0 -0.16908073694E-01  0.85796951506E-02  0.56638497857E+00  0.56670224816E+00  0.00000000000E+00 0.  1.
</event>
<event>
 5   1  0.2192208E+09  0.9118800E+02  0.7818608E-02  0.1180000E+00
       11   -1    0    0    0    0  0.00000000000E+00  0.00000000000E+00  0.10559998763E+01  0.10560000000E+01  0.51109989000E-03 0.  1.
     -623   -1    0    0    0    0  0.00000000000E+00  0.00000000000E+00  0.47855275298E-10  0.17124000000E+03  0.17124000000E+03 0.  1.
       11    1    1    2    0    0 -0.26483420017E-02 -0.15507102607E-01  0.26616429845E+00  0.26662929122E+00  0.51109989000E-03 0.  1.
     -623    1    1    2    0    0  0.34270614474E-03  0.80209568315E-03  0.60522022845E-03  0.17124000000E+03  0.17124000000E+03 0.  1.
       22    1    1    2    0    0  0.23056358570E-02  0.14705006924E-01  0.78923035765E+00  0.78937070545E+00  0.00000000000E+00 0.  1.
</event>
<event>
 5   1  0.2192208E+09  0.9118800E+02  0.7818608E-02  0.1180000E+00
       11   -1    0    0    0    0  0.00000000000E+00  0.00000000000E+00  0.10559998763E+01  0.10560000000E+01  0.51109989000E-03 0. -1.
     -623   -1    0    0    0    0  0.00000000000E+00  0.00000000000E+00  0.47855275298E-10  0.17124000000E+03  0.17124000000E+03 0.  1.
       11    1    1    2    0    0  0.16256692190E-01 -0.14888460046E-01  0.10005341418E+01  0.10007770862E+01  0.51109989000E-03 0. -1.
     -623    1    1    2    0    0 -0.17120436088E-01  0.15706024847E-01  0.25720587274E-03  0.17124000158E+03  0.17124000000E+03 0.  1.
       22    1    1    2    0    0  0.86377020484E-03 -0.81758893427E-03  0.55210150930E-01  0.55222960047E-01  0.00000000000E+00 0.  1.
</event>
<event>
 5   1  0.2192208E+09  0.9118800E+02  0.7818608E-02  0.1180000E+00
       11   -1    0    0    0    0  0.00000000000E+00  0.00000000000E+00  0.10559998763E+01  0.10560000000E+01  0.51109989000E-03 0.  1.
     -623   -1    0    0    0    0  0.00000000000E+00  0.00000000000E+00  0.47855275298E-10  0.17124000000E+03  0.17124000000E+03 0.  1.
       11    1    1    2    0    0 -0.23920988179E-01 -0.89820694943E-02  0.67370226459E+00  0.67418683892E+00  0.51109989000E-03 0.  1.
     -623    1    1    2    0    0  0.25142556463E-01  0.13016249943E-01  0.51005920872E-03  0.17124000234E+03  0.17124000000E+03 0.  1.
       22    1    1    2    0    0 -0.12215683713E-02 -0.40341804944E-02  0.38178755625E+00  0.38181082351E+00  0.00000000000E+00 0. -1.
</event>
<event>
 5   1  0.2192208E+09  0.9118800E+02  0.7818608E-02  0.1180000E+00
       11   -1    0    0    0    0  0.00000000000E+00  0.00000000000E+00  0.10559998763E+01  0.10560000000E+01  0.51109989000E-03 0.  1.
     -623   -1    0    0    0    0  0.00000000000E+00  0.00000000000E+00  0.47855275298E-10  0.17124000000E+03  0.17124000000E+03 0. -1.
       11    1    1    2    0    0 -0.58305750573E-02  0.24623785375E-02  0.93167857134E+00  0.93170020952E+00  0.51109989000E-03 0.  1.
     -623    1    1    2    0    0  0.54367761289E-02 -0.44365242776E-02  0.37960043408E-04  0.17124000014E+03  0.17124000000E+03 0. -1.
       22    1    1    2    0    0  0.39379878916E-03  0.19741458537E-02  0.12428337203E+00  0.12429967375E+00  0.00000000000E+00 0. -1.
</event>
<event>
 5   1  0.2192208E+09  0.9118800E+02  0.7818608E-02  0.1180000E+00
       11   -1    0    0    0    0  0.00000000000E+00  0.00000000000E+00  0.10559998763E+01  0.10560000000E+01  0.51109989000E-03 0. -1.
     -623   -1    0    0    0    0  0.00000000000E+00  0.00000000000E+00  0.47855275298E-10  0.17124000000E+03  0.17124000000E+03 0. -1.
       11    1    1    2    0    0  0.61601168733E-02  0.82172968511E-02  0.87097852177E+00  0.87103921704E+00  0.51109989000E-03 0. -1.
     -623    1    1    2    0    0 -0.53575732529E-02 -0.25095306995E-02  0.15050579901E-03  0.17124000010E+03  0.17124000000E+03 0. -1.
       22    1    1    2    0    0 -0.80254361418E-03 -0.57077661487E-02  0.18487085000E+00  0.18496068190E+00  0.00000000000E+00 0. -1.
</event>
<event>
 5   1  0.2192208E+09  0.9118800E+02  0.7818608E-02  0.1180000E+00
       11   -1    0    0    0    0  0.00000000000E+00  0.00000000000E+00  0.10559998763E+01  0.10560000000E+01  0.51109989000E-03 0.  1.
     -623   -1    0    0    0    0  0.00000000000E+00  0.00000000000E+00  0.47855275298E-10  0.17124000000E+03  0.17124000000E+03 0. -1.
       11    1    1    2    0    0 -0.71133071418E-03  0.48762629023E-02  0.64691408243E+00  0.64693305310E+00  0.51109989000E-03 0.  1.
     -623    1    1    2    0    0  0.22763938788E-04 -0.78296371023E-04  0.47565385185E-04  0.17124000000E+03  0.17124000000E+03 0. -1.
       22    1    1    2    0    0  0.68856677528E-03 -0.47979665309E-02  0.40903823401E+00  0.40906695233E+00  0.00000000000E+00 0.  1.
</event>
<event>
 5   1  0.2192208E+09  0.9118800E+02  0.7818608E-02  0.1180000E+00
       11   -1    0    0    0    0  0.00000000000E+00  0.00000000000E+00  0.10559998763E+01  0.10560000000E+01  0.51109989000E-03 0. -1.
     -623   -1    0    0    0    0  0.00000000000E+00  0.00000000000E+00  0.47855275298E-10  0.17124000000E+03  0.17124000000E+03 0.  1.
       11    1    1    2    0    0  0.12095674156E-01 -0.32374034135E-01  0.96434005519E+00  0.96495926686E+00  0.51109989000E-03 0. -1.
     -623    1    1    2    0    0 -0.12358116203E-01  0.34945915323E-01  0.65981587404E-03  0.17124000401E+03  0.17124000000E+03 0.  1.
       22    1    1    2    0    0  0.26244174409E-03 -0.25718803296E-02  0.90999979389E-01  0.91036694211E-01  0.00000000000E+00 0.  1.
</event>
<event>
 5   1  0.2192208E+09  0.9118800E+02  0.7818608E-02  0.1180000E+00
       11   -1    0    0    0    0  0.00000000000E+00  0.00000000000E+00  0.10559998763E+01  0.10560000000E+01  0.51109989000E-03 0. -1.
     -623   -1    0    0    0    0  0.00000000000E+00  0.00000000000E+00  0.47855275298E-10  0.17124000000E+03  0.17124000000E+03 0.  1.
       11    1    1    2    0    0  0.26631828957E-02 -0.26642118918E-01  0.88236137576E+00  0.88276766688E+00  0.51109989000E-03 0. -1.
     -623    1    1    2    0    0 -0.32482545734E-02  0.31769406732E-01  0.48603049494E-03  0.17124000298E+03  0.17124000000E+03 0.  1.
       22    1    1    2    0    0  0.58506711115E-03 -0.51272431508E-02  0.17315098622E+00  0.17322787003E+00  0.00000000000E+00 0.  1.
</event>
<event>
 5   1  0.2192208E+09  0.9118800E+02  0.7818608E-02  0.1180000E+00
       11   -1    0    0    0    0  0.00000000000E+00  0.00000000000E+00  0.10559998763E+01  0.10560000000E+01  0.51109989000E-03 0.  1.
     -623   -1    0    0    0    0  0.00000000000E+00  0.00000000000E+00  0.47855275298E-10  0.17124000000E+03  0.17124000000E+03 0. -1.
       11    1    1    2    0    0 -0.20059851256E-01 -0.10746401441E-01  0.77189929242E+00  0.77223484876E+00  0.51109989000E-03 0.  1.
     -623    1    1    2    0    0  0.25528916238E-01 -0.62748962538E-02  0.90122088786E-03  0.17124000202E+03  0.17124000000E+03 0. -1.
       22    1    1    2    0    0 -0.54690649845E-02  0.17021297696E-01  0.28319936314E+00  0.28376313102E+00  0.00000000000E+00 0.  1.
</event>
<event>
 5   1  0.2192208E+09  0.9118800E+02  0.7818608E-02  0.1180000E+00
       11   -1    0    0    0    0  0.00000000000E+00  0.00000000000E+00  0.10559998763E+01  0.10560000000E+01  0.51109989000E-03 0.  1.
     -623   -1    0    0    0    0  0.00000000000E+00  0.00000000000E+00  0.47855275298E-10  0.17124000000E+03  0.17124000000E+03 0.  1.
       11    1    1    2    0    0  0.95816676920E-02  0.35589791768E-02  0.34419055984E+00  0.34434267437E+00  0.51109989000E-03 0.  1.
     -623    1    1    2    0    0 -0.13147664988E-01 -0.16517255789E-01  0.28021429516E-03  0.17124000130E+03  0.17124000000E+03 0.  1.
       22    1    1    2    0    0  0.35659973875E-02  0.12958276727E-01  0.71152910957E+00  0.71165603141E+00  0.00000000000E+00 0.  1.
</event>
<event>
 5   1  0.2192208E+09  0.9118800E+02  0.7818608E-02  0.1180000E+00
       11   -1    0    0    0    0  0.00000000000E+00  0.00000000000E+00  0.10559998763E+01  0.10560000000E+01  0.51109989000E-03 0.  1.
     -623   -1    0    0    0    0  0.00000000000E+00  0.00000000000E+00  0.47855275298E-10  0.17124000000E+03  0.17124000000E+03 0.  1.
       11    1    1    2    0    0 -0.23931613015E-02  0.13081935779E-03  0.98126158455E+00  0.98126464466E+00  0.51109989000E-03 0.  1.
     -623    1    1    2    0    0  0.21928470404E-02 -0.11053182942E-02  0.95762446815E-05  0.17124000002E+03  0.17124000000E+03 0.  1.
       22    1    1    2    0    0  0.20031434340E-03  0.97449889496E-03  0.74728675923E-01  0.74735298081E-01  0.00000000000E+00 0.  1.
</event>
<event>
 5   1  0.2192208E+09  0.9118800E+02  0.7818608E-02  0.1180000E+00
       11   -1    0    0    0    0  0.00000000000E+00  0.00000000000E+00  0.10559998763E+01  0.10560000000E+01  0.51109989000E-03 0. -1.
     -623   -1    0    0    0    0  0.00000000000E+00  0.00000000000E+00  0.47855275298E-10  0.17124000000E+03  0.17124000000E+03 0. -1.
       11    1    1    2    0    0 -0.49474601659E-02  0.29098632878E-01  0.73858915387E+00  0.73917887364E+00  0.51109989000E-03 0. -1.
     -623    1    1    2    0    0  0.50914613026E-02 -0.43183974518E-01  0.90841794164E-03  0.17124000552E+03  0.17124000000E+03 0. -1.
       22    1    1    2    0    0 -0.14400104614E-03  0.14085340872E-01  0.31650228578E+00  0.31681558432E+00  0.00000000000E+00 0. -1.
</event>
<event>
 5   1  0.2192208E+09  0.9118800E+02  0.7818608E-02  0.1180000E+00
       11   -1    0    0    0    0  0.00000000000E+00  0.00000000000E+00  0.10559998763E+01  0.10560000000E+01  0.51109989000E-03 0. -1.
     -623   -1    0    0    0    0  0.00000000000E+00  0.00000000000E+00  0.47855275298E-10  0.17124000000E+03  0.17124000000E+03 0. -1.
       11    1    1    2    0    0  0.67998574334E-03  0.37876352334E-02  0.93997663662E+00  0.93998465263E+00  0.51109989000E-03 0. -1.
     -623    1    1    2    0    0 -0.86717453539E-03 -0.22483174204E-02  0.18272810463E-04  0.17124000002E+03  0.17124000000E+03 0. -1.
       22    1    1    2    0    0  0.18718880677E-03 -0.15393177749E-02  0.11600498485E+00  0.11601534834E+00  0.00000000000E+00 0. -1.
</event>
<event>
 5   1  0.2192208E+09  0.9118800E+02  0.7818608E-02  0.1180000E+00
       11   -1    0    0    0    0  0.00000000000E+00  0.00000000000E+00  0.10559998763E+01  0.10560000000E+01  0.51109989000E-03 0.  1.
     -623   -1    0    0    0    0  0.00000000000E+00  0.00000000000E+00  0.47855275298E-10  0.17124000000E+03  0.17124000000E+03 0.  1.
       11    1    1    2    0    0  0.41052935685E-04  0.18565124222E-02  0.90736829976E+00  0.90737034388E+00  0.51109989000E-03 0.  1.
     -623    1    1    2    0    0 -0.14094132460E-03 -0.15432243254E-03  0.11701713472E-04  0.17124000000E+03  0.17124000000E+03 0.  1.
       22    1    1    2    0    0  0.99888393969E-04 -0.17021899841E-02  0.14861991272E+00  0.14862969382E+00  0.00000000000E+00 0. -1.
</event>
<event>
 5   1  0.2192208E+09  0.9118800E+02  0.7818608E-02  0.1180000E+00
       11   -1    0    0    0    0  0.00000000000E+00  0.00000000000E+00  0.10559998763E+01  0.10560000000E+01  0.51109989000E-03 0. -1.
     -623   -1    0    0    0    0  0.00000000000E+00  0.00000000000E+00  0.47855275298E-10  0.17124000000E+03  0.17124000000E+03 0. -1.
       11    1    1    2    0    0 -0.95974728237E-03  0.89446406338E-03  0.99047634950E+00  0.99047735023E+00  0.51109989000E-03 0. -1.
     -623    1    1    2    0    0 -0.97948469809E-05 -0.96655027789E-05  0.14025630485E-04  0.17124000000E+03  0.17124000000E+03 0. -1.
       22    1    1    2    0    0  0.96954212926E-03 -0.88479856069E-03  0.65509491255E-01  0.65522639789E-01  0.00000000000E+00 0.  1.
</event>
<event>
 5   1  0.2192208E+09  0.9118800E+02  0.7818608E-02  0.1180000E+00
       11   -1    0    0    0    0  0.00000000000E+00  0.00000000000E+00  0.10559998763E+01  0.10560000000E+01  0.51109989000E-03 0. -1.
     -623   -1    0    0    0    0  0.00000000000E+00  0.00000000000E+00  0.47855275298E-10  0.17124000000E+03  0.17124000000E+03 0. -1.
       11    1    1    2    0    0  0.31909194196E-02 -0.67191659191E-04  0.96285074168E+00  0.96285616707E+00  0.51109989000E-03 0. -1.
     -623    1    1    2    0    0 -0.32417167045E-02 -0.98882616608E-03  0.11335633826E-04  0.17124000003E+03  0.17124000000E+03 0. -1.
       22    1    1    2    0    0  0.50797350967E-04  0.10560178454E-02  0.93137820552E-01  0.93143820897E-01  0.00000000000E+00 0. -1.
</event>
<event>
 5   1  0.2192208E+09  0.9118800E+02  0.7818608E-02  0.1180000E+00
       11   -1    0    0    0    0  0.00000000000E+00  0.00000000000E+00  0.10559998763E+01  0.10560000000E+01  0.51109989000E-03 0.  1.
     -623   -1    0    0    0    0  0.00000000000E+00  0.00000000000E+00  0.47855275298E-10  0.17124000000E+03  0.17124000000E+03 0. -1.
       11    1    1    2    0    0  0.46835555820E-03 -0.37554391439E-02  0.10016594696E+01  0.10016667494E+01  0.51109989000E-03 0.  1.
     -623    1    1    2    0    0  0.10607877653E-02  0.40265158088E-03  0.13226864398E-03  0.17124000000E+03  0.17124000000E+03 0. -1.
       22    1    1    2    0    0 -0.15291433242E-02  0.33527875627E-02  0.54208138839E-01  0.54333247466E-01  0.00000000000E+00 0.  1.
</event>
<event>
 5   1  0.2192208E+09  0.9118800E+02  0.7818608E-02  0.1180000E+00
       11   -1    0    0    0    0  0.00000000000E+00  0.00000000000E+00  0.10559998763E+01  0.10560000000E+01  0.51109989000E-03 0.  1.
     -623   -1    0    0    0    0  0.00000000000E+00  0.00000000000E+00  0.47855275298E-10  0.17124000000E+03  0.17124000000E+03 0. -1.
       11    1    1    2    0    0 -0.15467197948E-01 -0.96344336365E-02  0.70691340013E+00  0.70714840948E+00  0.51109989000E-03 0.  1.
     -623    1    1    2    0    0  0.20923923424E-01  0.17836893815E-01  0.37623024041E-03  0.17124000221E+03  0.17124000000E+03 0. -1.
       22    1    1    2    0    0 -0.54567258027E-02 -0.82024604573E-02  0.34871026249E+00  0.34884939929E+00  0.00000000000E+00 0. -1.
</event>
<event>
 5   1  0.2192208E+09  0.9118800E+02  0.7818608E-02  0.1180000E+00
       11   -1    0    0    0    0  0.00000000000E+00  0.00000000000E+00  0.10559998763E+01  0.10560000000E+01  0.51109989000E-03 0. -1.
     -623   -1    0    0    0    0  0.00000000000E+00  0.00000000000E+00  0.47855275298E-10  0.17124000000E+03  0.17124000000E+03 0.  1.
       11    1    1    2    0    0  0.48693693927E-04 -0.83125177023E-03  0.94658635008E+00  0.94658685430E+00  0.51109989000E-03 0. -1.
     -623    1    1    2    0    0  0.64240187711E-03 -0.42636924882E-03  0.97930352356E-05  0.17124000000E+03  0.17124000000E+03 0.  1.
       22    1    1    2    0    0 -0.69109557019E-03  0.12576210185E-02  0.10940373186E+00  0.10941314258E+00  0.00000000000E+00 0. -1.
</event>
<event>
 5   1  0.2192208E+09  0.9118800E+02  0.7818608E-02  0.1180000E+00
       11   -1    0    0    0    0  0.00000000000E+00  0.00000000000E+00  0.10559998763E+01  0.10560000000E+01  0.51109989000E-03 0. -1.
     -623   -1    0    0    0    0  0.00000000000E+00  0.00000000000E+00  0.47855275298E-10  0.17124000000E+03  0.17124000000E+03 0.  1.
       11    1    1    2    0    0 -0.19501529486E-02  0.71496136863E-02  0.59969601293E+00  0.59974201889E+00  0.51109989000E-03 0. -1.
     -623    1    1    2    0    0  0.52005194489E-02 -0.11798090592E-01  0.81626847960E-04  0.17124000049E+03  0.17124000000E+03 0.  1.
       22    1    1    2    0    0 -0.32503668654E-02  0.46484777337E-02  0.45622231072E+00  0.45625756983E+00  0.00000000000E+00 0. -1.
</event>
<event>
 5   1  0.2192208E+09  0.9118800E+02  0.7818608E-02  0.1180000E+00
       11   -1    0    0    0    0  0.00000000000E+00  0.00000000000E+00  0.10559998763E+01  0.10560000000E+01  0.51109989000E-03 0.  1.
     -623   -1    0    0    0    0  0.00000000000E+00  0.00000000000E+00  0.47855275298E-10  0.17124000000E+03  0.17124000000E+03 0. -1.
       11    1    1    2    0    0  0.31918788683E-02 -0.89408557398E-03  0.89882572874E+00  0.89883198616E+00  0.51109989000E-03 0.  1.
     -623    1    1    2    0    0 -0.12430496298E-03 -0.69248838762E-03  0.44084009398E-04  0.17124000000E+03  0.17124000000E+03 0. -1.
       22    1    1    2    0    0 -0.30675739051E-02  0.15865739627E-02  0.15713006536E+00  0.15716801413E+00  0.00000000000E+00 0.  1.
</event>
<event>
 5   1  0.2192208E+09  0.9118800E+02  0.7818608E-02  0.1180000E+00
       11   -1    0    0    0    0  0.00000000000E+00  0.00000000000E+00  0.10559998763E+01  0.10560000000E+01  0.51109989000E-03 0. -1.
     -623   -1    0    0    0    0  0.00000000000E+00  0.00000000000E+00  0.47855275298E-10  0.17124000000E+03  0.17124000000E+03 0. -1.
       11    1    1    2    0    0 -0.26588130346E-02  0.31063483390E-02  0.90390866542E+00  0.90391805786E+00  0.51109989000E-03 0. -1.
     -623    1    1    2    0    0  0.22906486668E-04 -0.31345974384E-03  0.57764610782E-04  0.17124000000E+03  0.17124000000E+03 0. -1.
       22    1    1    2    0    0  0.26359065479E-02 -0.27928885944E-02  0.15203344914E+00  0.15208194465E+00  0.00000000000E+00 0. -1.
</event>
<event>
 5   1  0.2192208E+09  0.9118800E+02  0.7818608E-02  0.1180000E+00
       11   -1    0    0    0    0  0.00000000000E+00  0.00000000000E+00  0.10559998763E+01  0.10560000000E+01  0.51109989000E-03 0. -1.
     -623   -1    0    0    0    0  0.00000000000E+00  0.00000000000E+00  0.47855275298E-10  0.17124000000E+03  0.17124000000E+03 0.  1.
       11    1    1    2    0    0 -0.84672179452E-04 -0.34673002331E-02  0.76205972156E+00  0.76206778556E+00  0.51109989000E-03 0. -1.
     -623    1    1    2    0    0 -0.17285690928E-03  0.27023673975E-03  0.25441030441E-04  0.17124000000E+03  0.17124000000E+03 0.  1.
       22    1    1    2    0    0  0.25752908913E-03  0.31970634927E-02  0.29391471618E+00  0.29393221655E+00  0.00000000000E+00 0. -1.
</event>
<event>
 5   1  0.2192208E+09  0.9118800E+02  0.7818608E-02  0.1180000E+00
       11   -1    0    0    0    0  0.00000000000E+00  0.00000000000E+00  0.10559998763E+01  0.10560000000E+01  0.51109989000E-03 0.  1.
     -623   -1    0    0    0    0  0.00000000000E+00  0.00000000000E+00  0.47855275298E-10  0.17124000000E+03  0.17124000000E+03 0. -1.
       11    1    1    2    0    0 -0.79997542518E-02 -0.44482558281E-01  0.71910940670E+00  0.72052848250E+00  0.51109989000E-03 0.  1.
     -623    1    1    2    0    0  0.16661050372E-01  0.62104297825E-01  0.20061796279E-02  0.17124001208E+03  0.17124000000E+03 0. -1.
       22    1    1    2    0    0 -0.86612961705E-02 -0.17621739732E-01  0.33488429322E+00  0.33545943660E+00  0.00000000000E+00 0.  1.
</event>
<event>
 5   1  0.2192208E+09  0.9118800E+02  0.7818608E-02  0.1180000E+00
       11   -1    0    0    0    0  0.00000000000E+00  0.00000000000E+00  0.10559998763E+01  0.10560000000E+01  0.51109989000E-03 0. -1.
     -623   -1    0    0    0    0  0.00000000000E+00  0.00000000000E+00  0.47855275298E-10  0.17124000000E+03  0.17124000000E+03 0.  1.
       11    1    1    2    0    0 -0.18040439427E-02  0.63000968935E-02  0.66481223591E+00  0.66484473078E+00  0.51109989000E-03 0. -1.
     -623    1    1    2    0    0  0.26035655726E-02 -0.10817422194E-01  0.59635324341E-04  0.17124000036E+03  0.17124000000E+03 0.  1.
       22    1    1    2    0    0 -0.79952272630E-03  0.45173298560E-02  0.39112844979E+00  0.39115535244E+00  0.00000000000E+00 0. -1.
</event>
<event>
 5   1  0.2192208E+09  0.9118800E+02  0.7818608E-02  0.1180000E+00
       11   -1    0    0    0    0  0.00000000000E+00  0.00000000000E+00  0.10559998763E+01  0.10560000000E+01  0.51109989000E-03 0. -1.
     -623   -1    0    0    0    0  0.00000000000E+00  0.00000000000E+00  0.47855275298E-10  0.17124000000E+03  0.17124000000E+03 0.  1.
       11    1    1    2    0    0  0.15264185632E-01 -0.63204386820E-02  0.76474325532E+00  0.76492185947E+00  0.51109989000E-03 0. -1.
     -623    1    1    2    0    0 -0.29168040125E-02  0.30740262285E-02  0.45865683260E-03  0.17124000005E+03  0.17124000000E+03 0.  1.
       22    1    1    2    0    0 -0.12347381617E-01  0.32464124507E-02  0.29079796516E+00  0.29107808844E+00  0.00000000000E+00 0.  1.
</event>
<event>
 5   1  0.2192208E+09  0.9118800E+02  0.7818608E-02  0.1180000E+00
       11   -1    0    0    0    0  0.00000000000E+00  0.00000000000E+00  0.10559998763E+01  0.10560000000E+01  0.51109989000E-03 0. -1.
     -623   -1    0    0    0    0  0.00000000000E+00  0.00000000000E+00  0.47855275298E-10  0.17124000000E+03  0.17124000000E+03 0.  1.
       11    1    1    2    0    0  0.95520750254E-02 -0.46097871000E-01  0.99424160264E+00  0.99535565578E+00  0.51109989000E-03 0. -1.
     -623    1    1    2    0    0 -0.84289817525E-02  0.47910300104E-01  0.11583417982E-02  0.17124000691E+03  0.17124000000E+03 0.  1.
       22    1    1    2    0    0 -0.11230931910E-02 -0.18124295687E-02  0.60599942170E-01  0.60637440829E-01  0.00000000000E+00 0. -1.
</event>
<event>
 5   1  0.2192208E+09  0.9118800E+02  0.7818608E-02  0.1180000E+00
       11   -1    0    0    0    0  0.00000000000E+00  0.00000000000E+00  0.10559998763E+01  0.10560000000E+01  0.51109989000E-03 0. -1.
     -623   -1    0    0    0    0  0.00000000000E+00  0.00000000000E+00  0.47855275298E-10  0.17124000000E+03  0.17124000000E+03 0.  1.
       11    1    1    2    0    0  0.63361022757E-02  0.75756263219E-02  0.89959601525E+00  0.89965036997E+00  0.51109989000E-03 0. -1.
     -623    1    1    2    0    0 -0.72651617827E-02 -0.91453695036E-02  0.65270213762E-04  0.17124000040E+03  0.17124000000E+03 0.  1.
       22    1    1    2    0    0  0.92905808207E-03  0.15697413881E-02  0.15633838381E+00  0.15634902458E+00  0.00000000000E+00 0. -1.
</event>
<event>
 5   1  0.2192208E+09  0.9118800E+02  0.7818608E-02  0.1180000E+00
       11   -1    0    0    0    0  0.00000000000E+00  0.00000000000E+00  0.10559998763E+01  0.10560000000E+01  0.51109989000E-03 0.  1.
     -623   -1    0    0    0    0  0.00000000000E+00  0.00000000000E+00  0.47855275298E-10  0.17124000000E+03  0.17124000000E+03 0.  1.
       11    1    1    2    0    0  0.12080478781E-03  0.14363665590E-02  0.96152131914E+00  0.96152253542E+00  0.51109989000E-03 0.  1.
     -623    1    1    2    0    0 -0.33222919266E-03 -0.84928700709E-04  0.10995788152E-04  0.17124000000E+03  0.17124000000E+03 0.  1.
       22    1    1    2    0    0  0.21142440636E-03 -0.13514378579E-02  0.94467566227E-01  0.94477469026E-01  0.00000000000E+00 0. -1.
</event>
<event>
 5   1  0.2192208E+09  0.9118800E+02  0.7818608E-02  0.1180000E+00
       11   -1    0    0    0    0  0.00000000000E+00  0.00000000000E+00  0.10559998763E+01  0.10560000000E+01  0.51109989000E-03 0. -1.
     -623   -1    0    0    0    0  0.00000000000E+00  0.00000000000E+00  0.47855275298E-10  0.17124000000E+03  0.17124000000E+03 0.  1.
       11    1    1    2    0    0  0.30544342895E-02  0.86661868191E-02  0.88066050434E+00  0.88070858829E+00  0.51109989000E-03 0. -1.
     -623    1    1    2    0    0 -0.46485351492E-02 -0.66609163008E-02  0.66872155536E-04  0.17124000019E+03  0.17124000000E+03 0.  1.
       22    1    1    2    0    0  0.15941008997E-02 -0.20052704609E-02  0.17527250896E+00  0.17529122814E+00  0.00000000000E+00 0.  1.
</event>
<event>
 5   1  0.2192208E+09  0.9118800E+02  0.7818608E-02  0.1180000E+00
       11   -1    0    0    0    0  0.00000000000E+00  0.00000000000E+00  0.10559998763E+01  0.10560000000E+01  0.51109989000E-03 0. -1.
     -623   -1    0    0    0    0  0.00000000000E+00  0.00000000000E+00  0.47855275298E-10  0.17124000000E+03  0.17124000000E+03 0. -1.
       11    1    1    2    0    0  0.32860625219E-02 -0.18990726745E-02  0.18763933794E+00  0.18767841391E+00  0.51109989000E-03 0. -1.
     -623    1    1    2    0    0 -0.17474189579E-01  0.13219607524E-01  0.23008473280E-03  0.17124000140E+03  0.17124000000E+03 0. -1.
       22    1    1    2    0    0  0.14188127714E-01 -0.11320535347E-01  0.86813049340E+00  0.86832022380E+00  0.00000000000E+00 0. -1.
</event>
<event>
 5   1  0.2192208E+09  0.9118800E+02  0.7818608E-02  0.1180000E+00
       11   -1    0    0    0    0  0.00000000000E+00  0.00000000000E+00  0.10559998763E+01  0.10560000000E+01  0.51109989000E-03 0. -1.
     -623   -1    0    0    0    0  0.00000000000E+00  0.00000000000E+00  0.47855275298E-10  0.17124000000E+03  0.17124000000E+03 0.  1.
       11    1    1    2    0    0 -0.56727046887E-02 -0.75868389155E-02  0.62913992120E+00  0.62921144409E+00  0.51109989000E-03 0. -1.
     -623    1    1    2    0    0  0.17156583242E-01  0.16075951122E-01  0.31201061722E-03  0.17124000161E+03  0.17124000000E+03 0.  1.
       22    1    1    2    0    0 -0.11483878753E-01 -0.84891123935E-02  0.42654795681E+00  0.42678695383E+00  0.00000000000E+00 0. -1.
</event>
<event>
 5   1  0.2192208E+09  0.9118800E+02  0.7818608E-02  0.1180000E+00
       11   -1    0    0    0    0  0.00000000000E+00  0.00000000000E+00  0.10559998763E+01  0.10560000000E+01  0.51109989000E-03 0.  1.
     -623   -1    0    0    0    0  0.00000000000E+00  0.00000000000E+00  0.47855275298E-10  0.17124000000E+03  0.17124000000E+03 0. -1.
       11    1    1    2    0    0 -0.10481424336E-02 -0.10729708283E-01  0.55170451860E+00  0.55181007811E+00  0.51109989000E-03 0.  1.
     -623    1    1    2    0    0 -0.23904637602E-02  0.15913431487E-01  0.14456699987E-03  0.17124000076E+03  0.17124000000E+03 0. -1.
       22    1    1    2    0    0  0.34386061832E-02 -0.51837231337E-02  0.50415078611E+00  0.50418916106E+00  0.00000000000E+00 0.  1.
</event>
<event>
 5   1  0.2192208E+09  0.9118800E+02  0.7818608E-02  0.1180000E+00
       11   -1    0    0    0    0  0.00000000000E+00  0.00000000000E+00  0.10559998763E+01  0.10560000000E+01  0.51109989000E-03 0. -1.
     -623   -1    0    0    0    0  0.00000000000E+00  0.00000000000E+00  0.47855275298E-10  0.17124000000E+03  0.17124000000E+03 0. -1.
       11    1    1    2    0    0 -0.29054360920E-01 -0.12160515638E-01  0.82632684358E+00  0.82692705100E+00  0.51109989000E-03 0. -1.
     -623    1    1    2    0    0  0.34185492262E-01  0.15590946879E-01  0.68737717544E-03  0.17124000412E+03  0.17124000000E+03 0. -1.
       22    1    1    2    0    0 -0.51311316711E-02 -0.34304313914E-02  0.22898566579E+00  0.22906883574E+00  0.00000000000E+00 0. -1.
</event>
<event>
 5   1  0.2192208E+09  0.9118800E+02  0.7818608E-02  0.1180000E+00
       11   -1    0    0    0    0  0.00000000000E+00  0.00000000000E+00  0.10559998763E+01  0.10560000000E+01  0.51109989000E-03 0. -1.
     -623   -1    0    0    0    0  0.00000000000E+00  0.00000000000E+00  0.47855275298E-10  0.17124000000E+03  0.17124000000E+03 0.  1.
       11    1    1    2    0    0  0.91856780114E-04  0.69628976254E-03  0.99673373114E+00  0.99673410962E+00  0.51109989000E-03 0. -1.
     -623    1    1    2    0    0 -0.26685452406E-03 -0.38170952986E-04  0.41675834974E-05  0.17124000000E+03  0.17124000000E+03 0.  1.
       22    1    1    2    0    0  0.17499775966E-03 -0.65811880730E-03  0.59262039835E-01  0.59265952367E-01  0.00000000000E+00 0. -1.
</event>
<event>
 5   1  0.2192208E+09  0.9118800E+02  0.7818608E-02  0.1180000E+00
       11   -1    0    0    0    0  0.00000000000E+00  0.00000000000E+00  0.10559998763E+01  0.10560000000E+01  0.51109989000E-03 0.  1.
     -623   -1    0    0    0    0  0.00000000000E+00  0.00000000000E+00  0.47855275298E-10  0.17124000000E+03  0.17124000000E+03 0.  1.
       11    1    1    2    0    0 -0.25033941597E-03  0.86593270361E-03  0.10042208710E+01  0.10042214057E+01  0.51109989000E-03 0.  1.
     -623    1    1    2    0    0  0.12323558060E-03 -0.97627774116E-04  0.62675367960E-05  0.17124000000E+03  0.17124000000E+03 0.  1.
       22    1    1    2    0    0  0.12710383241E-03 -0.76830492715E-03  0.51772763117E-01  0.51778619609E-01  0.00000000000E+00 0.  1.
</event>
<event>
 5   1  0.2192208E+09  0.9118800E+02  0.7818608E-02  0.1180000E+00
       11   -1    0    0    0    0  0.00000000000E+00  0.00000000000E+00  0.10559998763E+01  0.10560000000E+01  0.51109989000E-03 0.  1.
     -623   -1    0    0    0    0  0.00000000000E+00  0.00000000000E+00  0.47855275298E-10  0.17124000000E+03  0.17124000000E+03 0.  1.
       11    1    1    2    0    0 -0.21853954180E-02  0.14176482664E-01  0.96733220722E+00  0.96743868486E+00  0.51109989000E-03 0.  1.
     -623    1    1    2    0    0  0.31623049060E-02 -0.15536892865E-01  0.12292650936E-03  0.17124000073E+03  0.17124000000E+03 0.  1.
       22    1    1    2    0    0 -0.97690932668E-03  0.13604094081E-02  0.88544688760E-01  0.88560527173E-01  0.00000000000E+00 0.  1.
</event>
<event>
 5   1  0.2192208E+09  0.9118800E+02  0.7818608E-02  0.1180000E+00
       11   -1    0    0    0    0  0.00000000000E+00  0.00000000000E+00  0.10559998763E+01  0.10560000000E+01  0.51109989000E-03 0.  1.
     -623   -1    0    0    0    0  0.00000000000E+00  0.00000000000E+00  0.47855275298E-10  0.17124000000E+03  0.17124000000E+03 0.  1.
       11    1    1    2    0    0  0.13563978079E-02  0.16393501198E-02  0.83027735404E+00  0.83028023771E+00  0.51109989000E-03 0.  1.
     -623    1    1    2    0    0 -0.23207608366E-03  0.81583905857E-03  0.18915606852E-04  0.17124000000E+03  0.17124000000E+03 0.  1.
       22    1    1    2    0    0 -0.11243217219E-02 -0.24551891865E-02  0.22570361733E+00  0.22571977080E+00  0.00000000000E+00 0.  1.
</event>
<event>
 5   1  0.2192208E+09  0.9118800E+02  0.7818608E-02  0.1180000E+00
       11   -1    0    0    0    0  0.00000000000E+00  0.00000000000E+00  0.10559998763E+01  0.10560000000E+01  0.51109989000E-03 0.  1.
     -623   -1    0    0    0    0  0.00000000000E+00  0.00000000000E+00  0.47855275298E-10  0.17124000000E+03  0.17124000000E+03 0. -1.
       11    1    1    2    0    0  0.28467237093E-03  0.19732091797E-02  0.92636233250E+00  0.92636461876E+00  0.51109989000E-03 0.  1.
     -623    1    1    2    0    0  0.65887925651E-03 -0.54706678389E-03  0.13443704889E-04  0.17124000000E+03  0.17124000000E+03 0. -1.
       22    1    1    2    0    0 -0.94355162288E-03 -0.14261423996E-02  0.12962409286E+00  0.12963537180E+00  0.00000000000E+00 0.  1.
</event>
<event>
 5   1  0.2192208E+09  0.9118800E+02  0.7818608E-02  0.1180000E+00
       11   -1    0    0    0    0  0.00000000000E+00  0.00000000000E+00  0.10559998763E+01  0.10560000000E+01  0.51109989000E-03 0.  1.
     -623   -1    0    0    0    0  0.00000000000E+00  0.00000000000E+00  0.47855275298E-10  0.17124000000E+03  0.17124000000E+03 0. -1.
       11    1    1    2    0    0 -0.28786739588E-04 -0.25907705290E-02  0.98465164368E+00  0.98465518510E+00  0.51109989000E-03 0.  1.
     -623    1    1    2    0    0  0.26298825205E-03  0.18389418504E-02  0.77737628177E-05  0.17124000001E+03  0.17124000000E+03 0. -1.
       22    1    1    2    0    0 -0.23420152101E-03  0.75182861887E-03  0.71340493230E-01  0.71344839133E-01  0.00000000000E+00 0. -1.
</event>
<event>
 5   1  0.2192208E+09  0.9118800E+02  0.7818608E-02  0.1180000E+00
       11   -1    0    0    0    0  0.00000000000E+00  0.00000000000E+00  0.10559998763E+01  0.10560000000E+01  0.51109989000E-03 0.  1.
     -623   -1    0    0    0    0  0.00000000000E+00  0.00000000000E+00  0.47855275298E-10  0.17124000000E+03  0.17124000000E+03 0. -1.
       11    1    1    2    0    0 -0.59302776884E-02 -0.86393554133E-02  0.41468427794E+00  0.41481696957E+00  0.51109989000E-03 0.  1.
     -623    1    1    2    0    0  0.74366110120E-02  0.20435470870E-01  0.24423722195E-03  0.17124000138E+03  0.17124000000E+03 0. -1.
       22    1    1    2    0    0 -0.15063332637E-02 -0.11796115292E-01  0.64107135269E+00  0.64118164089E+00  0.00000000000E+00 0.  1.
</event>
<event>
 5   1  0.2192208E+09  0.9118800E+02  0.7818608E-02  0.1180000E+00
       11   -1    0    0    0    0  0.00000000000E+00  0.00000000000E+00  0.10559998763E+01  0.10560000000E+01  0.51109989000E-03 0.  1.
     -623   -1    0    0    0    0  0.00000000000E+00  0.00000000000E+00  0.47855275298E-10  0.17124000000E+03  0.17124000000E+03 0. -1.
       11    1    1    2    0    0 -0.12106639901E-01 -0.18217048882E-01  0.10024168595E+01  0.10026556004E+01  0.51109989000E-03 0.  1.
     -623    1    1    2    0    0  0.12719144576E-01  0.19211940966E-01  0.25296341865E-03  0.17124000155E+03  0.17124000000E+03 0. -1.
       22    1    1    2    0    0 -0.61247136266E-03 -0.99484176626E-03  0.53327288333E-01  0.53340083542E-01  0.00000000000E+00 0.  1.
</event>
<event>
 5   1  0.2192208E+09  0.9118800E+02  0.7818608E-02  0.1180000E+00
       11   -1    0    0    0    0  0.00000000000E+00  0.00000000000E+00  0.10559998763E+01  0.10560000000E+01  0.51109989000E-03 0. -1.
     -623   -1    0    0    0    0  0.00000000000E+00  0.00000000000E+00  0.47855275298E-10  0.17124000000E+03  0.17124000000E+03 0. -1.
       11    1    1    2    0    0  0.79320387913E-03 -0.38194100005E-02  0.71371880467E+00  0.71372964800E+00  0.51109989000E-03 0. -1.
     -623    1    1    2    0    0  0.15662880029E-03  0.22709626028E-03  0.30890089745E-04  0.17124000000E+03  0.17124000000E+03 0. -1.
       22    1    1    2    0    0 -0.94983268047E-03  0.35923137387E-02  0.34225018870E+00  0.34227035888E+00  0.00000000000E+00 0.  1.
</event>
<event>
 5   1  0.2192208E+09  0.9118800E+02  0.7818608E-02  0.1180000E+00
       11   -1    0    0    0    0  0.00000000000E+00  0.00000000000E+00  0.10559998763E+01  0.10560000000E+01  0.51109989000E-03 0.  1.
     -623   -1    0    0    0    0  0.00000000000E+00  0.00000000000E+00  0.47855275298E-10  0.17124000000E+03  0.17124000000E+03 0. -1.
       11    1    1    2    0    0  0.25254308939E-02 -0.98256131074E-03  0.99767651883E+00  0.99768032990E+00  0.51109989000E-03 0.  1.
     -623    1    1    2    0    0 -0.23112092244E-02  0.28539852354E-02  0.34154348668E-04  0.17124000004E+03  0.17124000000E+03 0. -1.
       22    1    1    2    0    0 -0.21422167806E-03 -0.18714239141E-02  0.58289199268E-01  0.58319626797E-01  0.00000000000E+00 0.  1.
</event>
<event>
 5   1  0.2192208E+09  0.9118800E+02  0.7818608E-02  0.1180000E+00
       11   -1    0    0    0    0  0.00000000000E+00  0.00000000000E+00  0.10559998763E+01  0.10560000000E+01  0.51109989000E-03 0.  1.
     -623   -1    0    0    0    0  0.00000000000E+00  0.00000000000E+00  0.47855275298E-10  0.17124000000E+03  0.17124000000E+03 0.  1.
       11    1    1    2    0    0  0.96537270099E-02  0.15578608938E-01  0.95771066814E+00  0.95788614803E+00  0.51109989000E-03 0.  1.
     -623    1    1    2    0    0 -0.12540765252E-01 -0.16741030264E-01  0.22600911923E-03  0.17124000128E+03  0.17124000000E+03 0.  1.
       22    1    1    2    0    0  0.28870385188E-02  0.11624216956E-02  0.98063222415E-01  0.98112597591E-01  0.00000000000E+00 0. -1.
</event>
<event>
 5   1  0.2192208E+09  0.9118800E+02  0.7818608E-02  0.1180000E+00
       11   -1    0    0    0    0  0.00000000000E+00  0.00000000000E+00  0.10559998763E+01  0.10560000000E+01  0.51109989000E-03 0.  1.
     -623   -1    0    0    0    0  0.00000000000E+00  0.00000000000E+00  0.47855275298E-10  0.17124000000E+03  0.17124000000E+03 0. -1.
       11    1    1    2    0    0 -0.21293911326E-02  0.91008172130E-02  0.89169042971E+00  0.89173955998E+00  0.51109989000E-03 0.  1.
     -623    1    1    2    0    0  0.22329411664E-02 -0.10777062784E-01  0.57946094102E-04  0.17124000035E+03  0.17124000000E+03 0. -1.
       22    1    1    2    0    0 -0.10355189790E-03  0.16762545674E-02  0.16425238208E+00  0.16426096788E+00  0.00000000000E+00 0.  1.
</event>
<event>
 5   1  0.2192208E+09  0.9118800E+02  0.7818608E-02  0.1180000E+00
       11   -1    0    0    0    0  0.00000000000E+00  0.00000000000E+00  0.10559998763E+01  0.10560000000E+01  0.51109989000E-03 0.  1.
     -623   -1    0    0    0    0  0.00000000000E+00  0.00000000000E+00  0.47855275298E-10  0.17124000000E+03  0.17124000000E+03 0. -1.
       11    1    1    2    0    0  0.20356702992E-02 -0.74617563170E-02  0.92747065063E+00  0.92750304084E+00  0.51109989000E-03 0.  1.
     -623    1    1    2    0    0 -0.23596279008E-02  0.88951541097E-02  0.40917379752E-04  0.17124000025E+03  0.17124000000E+03 0. -1.
       22    1    1    2    0    0  0.32395849380E-03 -0.14334011561E-02  0.12848870763E+00  0.12849711116E+00  0.00000000000E+00 0. -1.
</event>
<event>
 5   1  0.2192208E+09  0.9118800E+02  0.7818608E-02  0.1180000E+00
       11   -1    0    0    0    0  0.00000000000E+00  0.00000000000E+00  0.10559998763E+01  0.10560000000E+01  0.51109989000E-03 0.  1.
     -623   -1    0    0    0    0  0.00000000000E+00  0.00000000000E+00  0.47855275298E-10  0.17124000000E+03  0.17124000000E+03 0.  1.
       11    1    1    2    0    0 -0.42151437326E-02 -0.58987262416E-02  0.59956793549E+00  0.59961198529E+00  0.51109989000E-03 0.  1.
     -623    1    1    2    0    0  0.73604221803E-02  0.12657548691E-01  0.10544142474E-03  0.17124000063E+03  0.17124000000E+03 0.  1.
       22    1    1    2    0    0 -0.31452789728E-02 -0.67588233527E-02  0.45632657477E+00  0.45638746402E+00  0.00000000000E+00 0.  1.
</event>
<event>
 5   1  0.2192208E+09  0.9118800E+02  0.7818608E-02  0.1180000E+00
       11   -1    0    0    0    0  0.00000000000E+00  0.00000000000E+00  0.10559998763E+01  0.10560000000E+01  0.51109989000E-03 0. -1.
     -623   -1    0    0    0    0  0.00000000000E+00  0.00000000000E+00  0.47855275298E-10  0.17124000000E+03  0.17124000000E+03 0. -1.
       11    1    1    2    0    0  0.71986669304E-03  0.51094538119E-02  0.58158794473E-01  0.58389479566E-01  0.51109989000E-03 0. -1.
     -623    1    1    2    0    0 -0.60854354679E-03  0.78271091742E-02  0.31462921672E-03  0.17124000018E+03  0.17124000000E+03 0. -1.
       22    1    1    2    0    0 -0.11132314535E-03 -0.12936562998E-01  0.99752645424E+00  0.99761034174E+00  0.00000000000E+00 0. -1.
</event>
<event>
 5   1  0.2192208E+09  0.9118800E+02  0.7818608E-02  0.1180000E+00
       11   -1    0    0    0    0  0.00000000000E+00  0.00000000000E+00  0.10559998763E+01  0.10560000000E+01  0.51109989000E-03 0. -1.
     -623   -1    0    0    0    0  0.00000000000E+00  0.00000000000E+00  0.47855275298E-10  0.17124000000E+03  0.17124000000E+03 0.  1.
       11    1    1    2    0    0 -0.12079075501E-01 -0.17676870308E-01  0.96911909337E+00  0.96935569022E+00  0.51109989000E-03 0. -1.
     -623    1    1    2    0    0  0.13206749680E-01  0.19183474054E-01  0.25849703221E-03  0.17124000158E+03  0.17124000000E+03 0.  1.
       22    1    1    2    0    0 -0.11276763270E-02 -0.15066068660E-02  0.86622457664E-01  0.86642897515E-01  0.00000000000E+00 0. -1.
</event>
<event>
 5   1  0.2192208E+09  0.9118800E+02  0.7818608E-02  0.1180000E+00
       11   -1    0    0    0    0  0.00000000000E+00  0.00000000000E+00  0.10559998763E+01  0.10560000000E+01  0.51109989000E-03 0. -1.
     -623   -1    0    0    0    0  0.00000000000E+00  0.00000000000E+00  0.47855275298E-10  0.17124000000E+03  0.17124000000E+03 0.  1.
       11    1    1    2    0    0  0.58566105251E-03  0.17765717528E-02  0.93146985049E+00  0.93147186904E+00  0.51109989000E-03 0. -1.
     -623    1    1    2    0    0 -0.17056529369E-03  0.10450224867E-03  0.16795135753E-04  0.17124000000E+03  0.17124000000E+03 0.  1.
       22    1    1    2    0    0 -0.41509575941E-03 -0.18810740011E-02  0.12451322706E+00  0.12452812717E+00  0.00000000000E+00 0. -1.
</event>
<event>
 5   1  0.2192208E+09  0.9118800E+02  0.7818608E-02  0.1180000E+00
       11   -1    0    0    0    0  0.00000000000E+00  0.00000000000E+00  0.10559998763E+01  0.10560000000E+01  0.51109989000E-03 0. -1.
     -623   -1    0    0    0    0  0.00000000000E+00  0.00000000000E+00  0.47855275298E-10  0.17124000000E+03  0.17124000000E+03 0. -1.
       11    1    1    2    0    0  0.44366913730E-02 -0.10613423245E-01  0.61820040033E+00  0.61830762989E+00  0.51109989000E-03 0. -1.
     -623    1    1    2    0    0 -0.56491869966E-02  0.17894741522E-01  0.17038310384E-03  0.17124000103E+03  0.17124000000E+03 0. -1.
       22    1    1    2    0    0  0.12124951831E-02 -0.72813168819E-02  0.43762901060E+00  0.43769125949E+00  0.00000000000E+00 0. -1.
</event>
<event>
 5   1  0.2192208E+09  0.9118800E+02  0.7818608E-02  0.1180000E+00
       11   -1    0    0    0    0  0.00000000000E+00  0.00000000000E+00  0.10559998763E+01  0.10560000000E+01  0.51109989000E-03 0.  1.
     -623   -1    0    0    0    0  0.00000000000E+00  0.00000000000E+00  0.47855275298E-10  0.17124000000E+03  0.17124000000E+03 0. -1.
       11    1    1    2    0    0 -0.16851556731E-02  0.18977263247E-02  0.94143778950E+00  0.94144134912E+00  0.51109989000E-03 0.  1.
     -623    1    1    2    0    0 -0.74861458278E-03 -0.53709358990E-03  0.37376150676E-04  0.17124000000E+03  0.17124000000E+03 0. -1.
       22    1    1    2    0    0  0.24337702627E-02 -0.13606327299E-02  0.11452472036E+00  0.11455865804E+00  0.00000000000E+00 0.  1.
</event>
<event>
 5   1  0.2192208E+09  0.9118800E+02  0.7818608E-02  0.1180000E+00
       11   -1    0    0    0    0  0.00000000000E+00  0.00000000000E+00  0.10559998763E+01  0.10560000000E+01  0.51109989000E-03 0. -1.
     -623   -1    0    0    0    0  0.00000000000E+00  0.00000000000E+00  0.47855275298E-10  0.17124000000E+03  0.17124000000E+03 0. -1.
       11    1    1    2    0    0  0.14293321199E-01  0.10046001418E-01  0.93593326117E+00  0.93609644362E+00  0.51109989000E-03 0. -1.
     -623    1    1    2    0    0 -0.16410629300E-01 -0.11483756924E-01  0.19154789228E-03  0.17124000117E+03  0.17124000000E+03 0. -1.
       22    1    1    2    0    0  0.21173145020E-02  0.14377599852E-02  0.11987547911E+00  0.11990279674E+00  0.00000000000E+00 0. -1.
</event>
<event>
 5   1  0.2192208E+09  0.9118800E+02  0.7818608E-02  0.1180000E+00
       11   -1    0    0    0    0  0.00000000000E+00  0.00000000000E+00  0.10559998763E+01  0.10560000000E+01  0.51109989000E-03 0. -1.
     -623   -1    0    0    0    0  0.00000000000E+00  0.00000000000E+00  0.47855275298E-10  0.17124000000E+03  0.17124000000E+03 0. -1.
       11    1    1    2    0    0 -0.77819275317E-02 -0.77260351440E-02  0.51630638404E+00  0.51642307601E+00  0.51109989000E-03 0. -1.
     -623    1    1    2    0    0  0.13362307239E-01  0.15978375282E-01  0.20980590157E-03  0.17124000127E+03  0.17124000000E+03 0. -1.
       22    1    1    2    0    0 -0.55803785354E-02 -0.82523387369E-02  0.53948359385E+00  0.53957556445E+00  0.00000000000E+00 0. -1.
</event>
<event>
 5   1  0.5044008E+09  0.9118800E+02  0.7818608E-02  0.1180000E+00
       11   -1    0    0    0    0  0.00000000000E+00  0.00000000000E+00  0.10559998763E+01  0.10560000000E+01  0.51109989000E-03 0.  1.
     -623   -1    0    0    0    0  0.00000000000E+00  0.00000000000E+00  0.47855275298E-10  0.17124000000E+03  0.17124000000E+03 0.  1.
       11    1    1    2    0    0 -0.14178279639E-03 -0.75314666062E-03  0.98162374805E+00  0.98162418027E+00  0.51109989000E-03 0.  1.
     -623    1    1    2    0    0  0.13153793288E-04 -0.40412084855E-05  0.42742169868E-05  0.17124000000E+03  0.17124000000E+03 0.  1.
       22    1    1    2    0    0  0.12862900282E-03  0.75718786919E-03  0.74371876737E-01  0.74375842370E-01  0.00000000000E+00 0.  1.
</event>
<event>
 5   1  0.2192208E+09  0.9118800E+02  0.7818608E-02  0.1180000E+00
       11   -1    0    0    0    0  0.00000000000E+00  0.00000000000E+00  0.10559998763E+01  0.10560000000E+01  0.51109989000E-03 0. -1.
     -623   -1    0    0    0    0  0.00000000000E+00  0.00000000000E+00  0.47855275298E-10  0.17124000000E+03  0.17124000000E+03 0.  1.
       11    1    1    2    0    0 -0.71576391048E-03  0.96528951404E-02  0.80367995879E+00  0.80373840775E+00  0.51109989000E-03 0. -1.
     -623    1    1    2    0    0  0.75418628523E-03 -0.13322126224E-01  0.85534720440E-04  0.17124000052E+03  0.17124000000E+03 0.  1.
       22    1    1    2    0    0 -0.38422734580E-04  0.36692374392E-02  0.25223488663E+00  0.25226157617E+00  0.00000000000E+00 0. -1.
</event>
<event>
 5   1  0.2192208E+09  0.9118800E+02  0.7818608E-02  0.1180000E+00
       11   -1    0    0    0    0  0.00000000000E+00  0.00000000000E+00  0.10559998763E+01  0.10560000000E+01  0.51109989000E-03 0.  1.
     -623   -1    0    0    0    0  0.00000000000E+00  0.00000000000E+00  0.47855275298E-10  0.17124000000E+03  0.17124000000E+03 0. -1.
       11    1    1    2    0    0  0.42203389712E-03 -0.42632796269E-02  0.92519808942E+00  0.92520814931E+00  0.51109989000E-03 0.  1.
     -623    1    1    2    0    0 -0.14575047561E-02  0.23948533110E-02  0.27404953249E-04  0.17124000002E+03  0.17124000000E+03 0. -1.
       22    1    1    2    0    0  0.10354708365E-02  0.18684263528E-02  0.13077436571E+00  0.13079181146E+00  0.00000000000E+00 0. -1.
</event>
<event>
 5   1  0.2192208E+09  0.9118800E+02  0.7818608E-02  0.1180000E+00
       11   -1    0    0    0    0  0.00000000000E+00  0.00000000000E+00  0.10559998763E+01  0.10560000000E+01  0.51109989000E-03 0.  1.
     -623   -1    0    0    0    0  0.00000000000E+00  0.00000000000E+00  0.47855275298E-10  0.17124000000E+03  0.17124000000E+03 0.  1.
       11    1    1    2    0    0 -0.18164459049E-02  0.36587645100E-03  0.98043325617E+00  0.98043514032E+00  0.51109989000E-03 0.  1.
     -623    1    1    2    0    0  0.63257490323E-03 -0.15456203129E-02  0.20254019271E-04  0.17124000001E+03  0.17124000000E+03 0.  1.
       22    1    1    2    0    0  0.11838709977E-02  0.11797438717E-02  0.75546372812E-01  0.75564858176E-01  0.00000000000E+00 0.  1.
</event>
<event>
 5   1  0.2192208E+09  0.9118800E+02  0.7818608E-02  0.1180000E+00
       11   -1    0    0    0    0  0.00000000000E+00  0.00000000000E+00  0.10559998763E+01  0.10560000000E+01  0.51109989000E-03 0.  1.
     -623   -1    0    0    0    0  0.00000000000E+00  0.00000000000E+00  0.47855275298E-10  0.17124000000E+03  0.17124000000E+03 0.  1.
       11    1    1    2    0    0  0.43185207183E-02 -0.17247567346E-01  0.46931970427E+00  0.46965665570E+00  0.51109989000E-03 0.  1.
     -623    1    1    2    0    0 -0.45572965967E-02  0.49219286229E-01  0.12163402153E-02  0.17124000714E+03  0.17124000000E+03 0.  1.
       22    1    1    2    0    0  0.23877584169E-03 -0.31971718487E-01  0.58546382339E+00  0.58633619733E+00  0.00000000000E+00 0.  1.
</event>
<event>
 5   1  0.2192208E+09  0.9118800E+02  0.7818608E-02  0.1180000E+00
       11   -1    0    0    0    0  0.00000000000E+00  0.00000000000E+00  0.10559998763E+01  0.10560000000E+01  0.51109989000E-03 0. -1.
     -623   -1    0    0    0    0  0.00000000000E+00  0.00000000000E+00  0.47855275298E-10  0.17124000000E+03  0.17124000000E+03 0.  1.
       11    1    1    2    0    0 -0.85274479122E-03 -0.10495077039E-01  0.82361806268E+00  0.82368552750E+00  0.51109989000E-03 0. -1.
     -623    1    1    2    0    0  0.22974493793E-02  0.12921473339E-01  0.85008112766E-04  0.17124000050E+03  0.17124000000E+03 0.  1.
       22    1    1    2    0    0 -0.14447044480E-02 -0.24263955126E-02  0.23229674117E+00  0.23231390515E+00  0.00000000000E+00 0. -1.
</event>
<event>
 5   1  0.2192208E+09  0.9118800E+02  0.7818608E-02  0.1180000E+00
       11   -1    0    0    0    0  0.00000000000E+00  0.00000000000E+00  0.10559998763E+01  0.10560000000E+01  0.51109989000E-03 0. -1.
     -623   -1    0    0    0    0  0.00000000000E+00  0.00000000000E+00  0.47855275298E-10  0.17124000000E+03  0.17124000000E+03 0.  1.
       11    1    1    2    0    0 -0.30844287855E-01  0.17184889202E-01  0.79593979584E+00  0.79672273115E+00  0.51109989000E-03 0. -1.
     -623    1    1    2    0    0  0.36778652420E-01 -0.23876354469E-01  0.94273804889E-03  0.17124000562E+03  0.17124000000E+03 0.  1.
       22    1    1    2    0    0 -0.59343649466E-02  0.66914655144E-02  0.25911735340E+00  0.25927166300E+00  0.00000000000E+00 0.  1.
</event>
<event>
 5   1  0.2192208E+09  0.9118800E+02  0.7818608E-02  0.1180000E+00
       11   -1    0    0    0    0  0.00000000000E+00  0.00000000000E+00  0.10559998763E+01  0.10560000000E+01  0.51109989000E-03 0. -1.
     -623   -1    0    0    0    0  0.00000000000E+00  0.00000000000E+00  0.47855275298E-10  0.17124000000E+03  0.17124000000E+03 0.  1.
       11    1    1    2    0    0  0.84837166241E-03  0.41669711997E-02  0.73442159746E+00  0.73443408651E+00  0.51109989000E-03 0. -1.
     -623    1    1    2    0    0 -0.75368875726E-04  0.29820023462E-04  0.40682165475E-04  0.17124000000E+03  0.17124000000E+03 0.  1.
       22    1    1    2    0    0 -0.77300278662E-03 -0.41967912232E-02  0.32153759760E+00  0.32156591433E+00  0.00000000000E+00 0. -1.
</event>
<event>
 5   1  0.2192208E+09  0.9118800E+02  0.7818608E-02  0.1180000E+00
       11   -1    0    0    0    0  0.00000000000E+00  0.00000000000E+00  0.10559998763E+01  0.10560000000E+01  0.51109989000E-03 0.  1.
     -623   -1    0    0    0    0  0.00000000000E+00  0.00000000000E+00  0.47855275298E-10  0.17124000000E+03  0.17124000000E+03 0.  1.
       11    1    1    2    0    0 -0.33113684447E-03 -0.59956785098E-03  0.13071039805E+00  0.13071319181E+00  0.51109989000E-03 0. -1.
     -623    1    1    2    0    0  0.79198138172E-03  0.15543902046E-01  0.12418341609E-03  0.17124000071E+03  0.17124000000E+03 0.  1.
       22    1    1    2    0    0 -0.46084453462E-03 -0.14944334144E-01  0.92516529138E+00  0.92528609731E+00  0.00000000000E+00 0.  1.
</event>
<event>
 5   1  0.2192208E+09  0.9118800E+02  0.7818608E-02  0.1180000E+00
       11   -1    0    0    0    0  0.00000000000E+00  0.00000000000E+00  0.10559998763E+01  0.10560000000E+01  0.51109989000E-03 0. -1.
     -623   -1    0    0    0    0  0.00000000000E+00  0.00000000000E+00  0.47855275298E-10  0.17124000000E+03  0.17124000000E+03 0. -1.
       11    1    1    2    0    0  0.60274428435E-02  0.28457088839E-02  0.96255248716E+00  0.96257570086E+00  0.51109989000E-03 0. -1.
     -623    1    1    2    0    0 -0.58341020345E-02 -0.29310650008E-04  0.65851313546E-04  0.17124000010E+03  0.17124000000E+03 0. -1.
       22    1    1    2    0    0 -0.19334075079E-03 -0.28163982336E-02  0.93381548436E-01  0.93424210288E-01  0.00000000000E+00 0. -1.
</event>
<event>
 5   1  0.2192208E+09  0.9118800E+02  0.7818608E-02  0.1180000E+00
       11   -1    0    0    0    0  0.00000000000E+00  0.00000000000E+00  0.10559998763E+01  0.10560000000E+01  0.51109989000E-03 0. -1.
     -623   -1    0    0    0    0  0.00000000000E+00  0.00000000000E+00  0.47855275298E-10  0.17124000000E+03  0.17124000000E+03 0.  1.
       11    1    1    2    0    0 -0.57179003401E-02  0.79331557304E-02  0.63710555114E+00  0.63718080155E+00  0.51109989000E-03 0. -1.
     -623    1    1    2    0    0  0.88576895229E-02 -0.12269288457E-01  0.11001252060E-03  0.17124000067E+03  0.17124000000E+03 0.  1.
       22    1    1    2    0    0 -0.31397887122E-02  0.43361320748E-02  0.41878425660E+00  0.41881847367E+00  0.00000000000E+00 0.  1.
</event>
<event>
 5   1  0.2192208E+09  0.9118800E+02  0.7818608E-02  0.1180000E+00
       11   -1    0    0    0    0  0.00000000000E+00  0.00000000000E+00  0.10559998763E+01  0.10560000000E+01  0.51109989000E-03 0.  1.
     -623   -1    0    0    0    0  0.00000000000E+00  0.00000000000E+00  0.47855275298E-10  0.17124000000E+03  0.17124000000E+03 0. -1.
       11    1    1    2    0    0  0.67086748942E-02  0.95761202604E-02  0.77448708060E+00  0.77457550157E+00  0.51109989000E-03 0.  1.
     -623    1    1    2    0    0 -0.91508591643E-02 -0.12866045393E-01  0.11885348209E-03  0.17124000073E+03  0.17124000000E+03 0. -1.
       22    1    1    2    0    0  0.24421966105E-02  0.32899424831E-02  0.28139536619E+00  0.28142519461E+00  0.00000000000E+00 0. -1.
</event>
<event>
 5   1  0.2192208E+09  0.9118800E+02  0.7818608E-02  0.1180000E+00
       11   -1    0    0    0    0  0.00000000000E+00  0.00000000000E+00  0.10559998763E+01  0.10560000000E+01  0.51109989000E-03 0. -1.
     -623   -1    0    0    0    0  0.00000000000E+00  0.00000000000E+00  0.47855275298E-10  0.17124000000E+03  0.17124000000E+03 0.  1.
       11    1    1    2    0    0 -0.86337727009E-02 -0.92673068791E-02  0.90356073597E+00  0.90364964993E+00  0.51109989000E-03 0. -1.
     -623    1    1    2    0    0  0.99875870310E-02  0.11224586631E-01  0.10803865054E-03  0.17124000066E+03  0.17124000000E+03 0.  1.
       22    1    1    2    0    0 -0.13538142229E-02 -0.19572796314E-02  0.15233109040E+00  0.15234967955E+00  0.00000000000E+00 0.  1.
</event>
<event>
 5   1  0.2192208E+09  0.9118800E+02  0.7818608E-02  0.1180000E+00
       11   -1    0    0    0    0  0.00000000000E+00  0.00000000000E+00  0.10559998763E+01  0.10560000000E+01  0.51109989000E-03 0.  1.
     -623   -1    0    0    0    0  0.00000000000E+00  0.00000000000E+00  0.47855275298E-10  0.17124000000E+03  0.17124000000E+03 0.  1.
       11    1    1    2    0    0 -0.37643388875E-02  0.43859009473E-02  0.91944241622E+00  0.91946072474E+00  0.51109989000E-03 0.  1.
     -623    1    1    2    0    0  0.44790175670E-02 -0.49328233922E-03  0.75614284602E-04  0.17124000006E+03  0.17124000000E+03 0.  1.
       22    1    1    2    0    0 -0.71467870717E-03 -0.38926186051E-02  0.13648185238E+00  0.13653922247E+00  0.00000000000E+00 0.  1.
</event>
<event>
 5   1  0.2192208E+09  0.9118800E+02  0.7818608E-02  0.1180000E+00
       11   -1    0    0    0    0  0.00000000000E+00  0.00000000000E+00  0.10559998763E+01  0.10560000000E+01  0.51109989000E-03 0. -1.
     -623   -1    0    0    0    0  0.00000000000E+00  0.00000000000E+00  0.47855275298E-10  0.17124000000E+03  0.17124000000E+03 0.  1.
       11    1    1    2    0    0  0.41933543038E-03  0.16500650236E-02  0.91499487520E+00  0.91499660186E+00  0.51109989000E-03 0. -1.
     -623    1    1    2    0    0 -0.38528165864E-04  0.34815336547E-04  0.12184155625E-04  0.17124000000E+03  0.17124000000E+03 0.  1.
       22    1    1    2    0    0 -0.38080726440E-03 -0.16848803602E-02  0.14099282018E+00  0.14100340130E+00  0.00000000000E+00 0. -1.
</event>
<event>
 5   1  0.2192208E+09  0.9118800E+02  0.7818608E-02  0.1180000E+00
       11   -1    0    0    0    0  0.00000000000E+00  0.00000000000E+00  0.10559998763E+01  0.10560000000E+01  0.51109989000E-03 0.  1.
     -623   -1    0    0    0    0  0.00000000000E+00  0.00000000000E+00  0.47855275298E-10  0.17124000000E+03  0.17124000000E+03 0. -1.
       11    1    1    2    0    0 -0.62176141476E-03  0.35612138491E-02  0.94109057525E+00  0.94109765746E+00  0.51109989000E-03 0.  1.
     -623    1    1    2    0    0  0.12360723154E-04 -0.28423598309E-04  0.62897854482E-04  0.17124000000E+03  0.17124000000E+03 0. -1.
       22    1    1    2    0    0  0.60940069161E-03 -0.35327902508E-02  0.11484640312E+00  0.11490234239E+00  0.00000000000E+00 0.  1.
</event>
<event>
 5   1  0.2192208E+09  0.9118800E+02  0.7818608E-02  0.1180000E+00
       11   -1    0    0    0    0  0.00000000000E+00  0.00000000000E+00  0.10559998763E+01  0.10560000000E+01  0.51109989000E-03 0. -1.
     -623   -1    0    0    0    0  0.00000000000E+00  0.00000000000E+00  0.47855275298E-10  0.17124000000E+03  0.17124000000E+03 0. -1.
       11    1    1    2    0    0  0.67974746661E-02 -0.60295811988E-02  0.97740036593E+00  0.97744273390E+00  0.51109989000E-03 0. -1.
     -623    1    1    2    0    0 -0.60546760563E-02  0.82546329667E-02  0.77581180891E-04  0.17124000031E+03  0.17124000000E+03 0. -1.
       22    1    1    2    0    0 -0.74279851456E-03 -0.22250518978E-02  0.78521945875E-01  0.78556976709E-01  0.00000000000E+00 0.  1.
</event>
<event>
 5   1  0.2192208E+09  0.9118800E+02  0.7818608E-02  0.1180000E+00
       11   -1    0    0    0    0  0.00000000000E+00  0.00000000000E+00  0.10559998763E+01  0.10560000000E+01  0.51109989000E-03 0. -1.
     -623   -1    0    0    0    0  0.00000000000E+00  0.00000000000E+00  0.47855275298E-10  0.17124000000E+03  0.17124000000E+03 0. -1.
       11    1    1    2    0    0 -0.11584825447E-02 -0.69854418740E-02  0.69400850568E+00  0.69404481531E+00  0.51109989000E-03 0. -1.
     -623    1    1    2    0    0  0.49683095933E-04 -0.66540880530E-04  0.10658820675E-03  0.17124000000E+03  0.17124000000E+03 0. -1.
       22    1    1    2    0    0  0.11087994488E-02  0.70519827545E-02  0.36188478192E+00  0.36195518408E+00  0.00000000000E+00 0. -1.
</event>
<event>
 5   1  0.2192208E+09  0.9118800E+02  0.7818608E-02  0.1180000E+00
       11   -1    0    0    0    0  0.00000000000E+00  0.00000000000E+00  0.10559998763E+01  0.10560000000E+01  0.51109989000E-03 0. -1.
     -623   -1    0    0    0    0  0.00000000000E+00  0.00000000000E+00  0.47855275298E-10  0.17124000000E+03  0.17124000000E+03 0. -1.
       11    1    1    2    0    0 -0.70719217055E-04  0.90259606469E-03  0.97895769730E+00  0.97895824937E+00  0.51109989000E-03 0. -1.
     -623    1    1    2    0    0 -0.49836164664E-04 -0.61543357846E-04  0.51137361228E-05  0.17124000000E+03  0.17124000000E+03 0. -1.
       22    1    1    2    0    0  0.12055538144E-03 -0.84105270719E-03  0.77037059396E-01  0.77041744682E-01  0.00000000000E+00 0.  1.
</event>
<event>
 5   1  0.2192208E+09  0.9118800E+02  0.7818608E-02  0.1180000E+00
       11   -1    0    0    0    0  0.00000000000E+00  0.00000000000E+00  0.10559998763E+01  0.10560000000E+01  0.51109989000E-03 0. -1.
     -623   -1    0    0    0    0  0.00000000000E+00  0.00000000000E+00  0.47855275298E-10  0.17124000000E+03  0.17124000000E+03 0.  1.
       11    1    1    2    0    0  0.32420269065E-03  0.80108978343E-03  0.97094871468E+00  0.97094923380E+00  0.51109989000E-03 0. -1.
     -623    1    1    2    0    0 -0.11146451377E-03  0.10539255570E-03  0.54924709452E-05  0.17124000000E+03  0.17124000000E+03 0.  1.
       22    1    1    2    0    0 -0.21273817913E-03 -0.90648233701E-03  0.85045647938E-01  0.85050744858E-01  0.00000000000E+00 0.  1.
</event>
<event>
 5   1  0.2192208E+09  0.9118800E+02  0.7818608E-02  0.1180000E+00
       11   -1    0    0    0    0  0.00000000000E+00  0.00000000000E+00  0.10559998763E+01  0.10560000000E+01  0.51109989000E-03 0.  1.
     -623   -1    0    0    0    0  0.00000000000E+00  0.00000000000E+00  0.47855275298E-10  0.17124000000E+03  0.17124000000E+03 0.  1.
       11    1    1    2    0    0  0.23959652516E-02 -0.40696783047E-02  0.75283777283E+00  0.75285275875E+00  0.51109989000E-03 0.  1.
     -623    1    1    2    0    0  0.18505403256E-03  0.33588189344E-03  0.48846287136E-04  0.17124000000E+03  0.17124000000E+03 0.  1.
       22    1    1    2    0    0 -0.25810192842E-02  0.37337964112E-02  0.30311325755E+00  0.30314724112E+00  0.00000000000E+00 0.  1.
</event>
<event>
 5   1  0.2192208E+09  0.9118800E+02  0.7818608E-02  0.1180000E+00
       11   -1    0    0    0    0  0.00000000000E+00  0.00000000000E+00  0.10559998763E+01  0.10560000000E+01  0.51109989000E-03 0. -1.
     -623   -1    0    0    0    0  0.00000000000E+00  0.00000000000E+00  0.47855275298E-10  0.17124000000E+03  0.17124000000E+03 0.  1.
       11    1    1    2    0    0 -0.44849955161E-02 -0.12356356813E-01  0.97938677696E+00  0.97947512211E+00  0.51109989000E-03 0. -1.
     -623    1    1    2    0    0  0.50487963139E-02  0.13249329054E-01  0.96095928755E-04  0.17124000059E+03  0.17124000000E+03 0.  1.
       22    1    1    2    0    0 -0.56380150909E-03 -0.89297410749E-03  0.76517152236E-01  0.76524439634E-01  0.00000000000E+00 0. -1.
</event>
<event>
 5   1  0.2192208E+09  0.9118800E+02  0.7818608E-02  0.1180000E+00
       11   -1    0    0    0    0  0.00000000000E+00  0.00000000000E+00  0.10559998763E+01  0.10560000000E+01  0.51109989000E-03 0.  1.
     -623   -1    0    0    0    0  0.00000000000E+00  0.00000000000E+00  0.47855275298E-10  0.17124000000E+03  0.17124000000E+03 0.  1.
       11    1    1    2    0    0 -0.59605863540E-02 -0.21509971436E-02  0.72571055887E+00  0.72573840456E+00  0.51109989000E-03 0.  1.
     -623    1    1    2    0    0  0.66429261888E-02 -0.11533132974E-02  0.45090158022E-04  0.17124000013E+03  0.17124000000E+03 0.  1.
       22    1    1    2    0    0 -0.68233981995E-03  0.33043104384E-02  0.33024422498E+00  0.33026146035E+00  0.00000000000E+00 0. -1.
</event>
<event>
 5   1  0.2192208E+09  0.9118800E+02  0.7818608E-02  0.1180000E+00
       11   -1    0    0    0    0  0.00000000000E+00  0.00000000000E+00  0.10559998763E+01  0.10560000000E+01  0.51109989000E-03 0. -1.
     -623   -1    0    0    0    0  0.00000000000E+00  0.00000000000E+00  0.47855275298E-10  0.17124000000E+03  0.17124000000E+03 0.  1.
       11    1    1    2    0    0 -0.67657216229E-02  0.22192906376E-01  0.48328707187E+00  0.48384393677E+00  0.51109989000E-03 0. -1.
     -623    1    1    2    0    0  0.62488796291E-02 -0.35139930936E-01  0.70720122219E-03  0.17124000372E+03  0.17124000000E+03 0.  1.
       22    1    1    2    0    0  0.51684196927E-03  0.12947024697E-01  0.57200560741E+00  0.57215234639E+00  0.00000000000E+00 0. -1.
</event>
<event>
 5   1  0.2192208E+09  0.9118800E+02  0.7818608E-02  0.1180000E+00
       11   -1    0    0    0    0  0.00000000000E+00  0.00000000000E+00  0.10559998763E+01  0.10560000000E+01  0.51109989000E-03 0.  1.
     -623   -1    0    0    0    0  0.00000000000E+00  0.00000000000E+00  0.47855275298E-10  0.17124000000E+03  0.17124000000E+03 0. -1.
       11    1    1    2    0    0  0.14789942701E-01 -0.45686342224E-01  0.89386717778E+00  0.89515628636E+00  0.51109989000E-03 0.  1.
     -623    1    1    2    0    0 -0.17707445860E-01  0.54168549889E-01  0.15488022030E-02  0.17124000949E+03  0.17124000000E+03 0. -1.
       22    1    1    2    0    0  0.29174955872E-02 -0.84821845027E-02  0.16058344549E+00  0.16083377195E+00  0.00000000000E+00 0.  1.
</event>
<event>
 5   1  0.2192208E+09  0.9118800E+02  0.7818608E-02  0.1180000E+00
       11   -1    0    0    0    0  0.00000000000E+00  0.00000000000E+00  0.10559998763E+01  0.10560000000E+01  0.51109989000E-03 0. -1.
     -623   -1    0    0    0    0  0.00000000000E+00  0.00000000000E+00  0.47855275298E-10  0.17124000000E+03  0.17124000000E+03 0. -1.
       11    1    1    2    0    0  0.51933144166E-03  0.78514895819E-03  0.98950430853E+00  0.98950488831E+00  0.51109989000E-03 0. -1.
     -623    1    1    2    0    0 -0.10199189014E-03 -0.11168437909E-03  0.51764700260E-05  0.17124000000E+03  0.17124000000E+03 0. -1.
       22    1    1    2    0    0 -0.41733954687E-03 -0.67346457401E-03  0.66490439537E-01  0.66495159798E-01  0.00000000000E+00 0. -1.
</event>
<event>
 5   1  0.2192208E+09  0.9118800E+02  0.7818608E-02  0.1180000E+00
       11   -1    0    0    0    0  0.00000000000E+00  0.00000000000E+00  0.10559998763E+01  0.10560000000E+01  0.51109989000E-03 0. -1.
     -623   -1    0    0    0    0  0.00000000000E+00  0.00000000000E+00  0.47855275298E-10  0.17124000000E+03  0.17124000000E+03 0.  1.
       11    1    1    2    0    0  0.13716350077E-03 -0.14859368882E-01  0.99310300314E+00  0.99321430503E+00  0.51109989000E-03 0. -1.
     -623    1    1    2    0    0 -0.22062538776E-03  0.15802794031E-01  0.11905158832E-03  0.17124000073E+03  0.17124000000E+03 0.  1.
       22    1    1    2    0    0  0.83462024910E-04 -0.94343502704E-03  0.62778481701E-01  0.62785625745E-01  0.00000000000E+00 0. -1.
</event>
<event>
 5   1  0.2192208E+09  0.9118800E+02  0.7818608E-02  0.1180000E+00
       11   -1    0    0    0    0  0.00000000000E+00  0.00000000000E+00  0.10559998763E+01  0.10560000000E+01  0.51109989000E-03 0. -1.
     -623   -1    0    0    0    0  0.00000000000E+00  0.00000000000E+00  0.47855275298E-10  0.17124000000E+03  0.17124000000E+03 0. -1.
       11    1    1    2    0    0  0.25777982703E-02  0.43976867020E-02  0.37163809687E+00  0.37167340632E+00  0.51109989000E-03 0.  1.
     -623    1    1    2    0    0 -0.72375988390E-02 -0.12415055587E-01  0.98621387078E-04  0.17124000060E+03  0.17124000000E+03 0. -1.
       22    1    1    2    0    0  0.46597997376E-02  0.80173674596E-02  0.68426303684E+00  0.68432586938E+00  0.00000000000E+00 0. -1.
</event>
<event>
 5   1  0.2192208E+09  0.9118800E+02  0.7818608E-02  0.1180000E+00
       11   -1    0    0    0    0  0.00000000000E+00  0.00000000000E+00  0.10559998763E+01  0.10560000000E+01  0.51109989000E-03 0. -1.
     -623   -1    0    0    0    0  0.00000000000E+00  0.00000000000E+00  0.47855275298E-10  0.17124000000E+03  0.17124000000E+03 0.  1.
       11    1    1    2    0    0 -0.86284800856E-02 -0.62518625360E-02  0.96023187995E+00  0.96029113343E+00  0.51109989000E-03 0. -1.
     -623    1    1    2    0    0  0.73898699689E-02  0.81822026457E-02  0.86969946776E-04  0.17124000035E+03  0.17124000000E+03 0.  1.
       22    1    1    2    0    0  0.12386102118E-02 -0.19303400045E-02  0.95681012886E-01  0.95708498027E-01  0.00000000000E+00 0.  1.
</event>
<event>
 5   1  0.2192208E+09  0.9118800E+02  0.7818608E-02  0.1180000E+00
       11   -1    0    0    0    0  0.00000000000E+00  0.00000000000E+00  0.10559998763E+01  0.10560000000E+01  0.51109989000E-03 0.  1.
     -623   -1    0    0    0    0  0.00000000000E+00  0.00000000000E+00  0.47855275298E-10  0.17124000000E+03  0.17124000000E+03 0. -1.
       11    1    1    2    0    0 -0.88673666239E-03  0.43621400226E-02  0.63060235962E+00  0.63061827737E+00  0.51109989000E-03 0.  1.
     -623    1    1    2    0    0  0.11714433372E-02  0.35955222296E-02  0.90370128926E-04  0.17124000004E+03  0.17124000000E+03 0. -1.
       22    1    1    2    0    0 -0.28470667782E-03 -0.79576622615E-02  0.42530714934E+00  0.42538168358E+00  0.00000000000E+00 0.  1.
</event>
<event>
 5   1  0.2192208E+09  0.9118800E+02  0.7818608E-02  0.1180000E+00
       11   -1    0    0    0    0  0.00000000000E+00  0.00000000000E+00  0.10559998763E+01  0.10560000000E+01  0.51109989000E-03 0. -1.
     -623   -1    0    0    0    0  0.00000000000E+00  0.00000000000E+00  0.47855275298E-10  0.17124000000E+03  0.17124000000E+03 0.  1.
       11    1    1    2    0    0 -0.10289043797E-01 -0.17056307337E-01  0.82721222833E+00  0.82745218228E+00  0.51109989000E-03 0. -1.
     -623    1    1    2    0    0  0.13062743194E-01  0.19640383727E-01  0.27289698277E-03  0.17124000162E+03  0.17124000000E+03 0.  1.
       22    1    1    2    0    0 -0.27736995331E-02 -0.25840765947E-02  0.22851476202E+00  0.22854620391E+00  0.00000000000E+00 0.  1.
</event>
<event>
 5   1  0.2192208E+09  0.9118800E+02  0.7818608E-02  0.1180000E+00
       11   -1    0    0    0    0  0.00000000000E+00  0.00000000000E+00  0.10559998763E+01  0.10560000000E+01  0.51109989000E-03 0. -1.
     -623   -1    0    0    0    0  0.00000000000E+00  0.00000000000E+00  0.47855275298E-10  0.17124000000E+03  0.17124000000E+03 0.  1.
       11    1    1    2    0    0 -0.40212892479E-02  0.54475567896E-02  0.60054894399E+00  0.60058733086E+00  0.51109989000E-03 0. -1.
     -623    1    1    2    0    0  0.56175422915E-03 -0.46940218547E-05  0.83931796547E-04  0.17124000000E+03  0.17124000000E+03 0.  1.
       22    1    1    2    0    0  0.34595350217E-02 -0.54428627678E-02  0.45536699496E+00  0.45541266257E+00  0.00000000000E+00 0.  1.
</event>
<event>
 5   1  0.2192208E+09  0.9118800E+02  0.7818608E-02  0.1180000E+00
       11   -1    0    0    0    0  0.00000000000E+00  0.00000000000E+00  0.10559998763E+01  0.10560000000E+01  0.51109989000E-03 0. -1.
     -623   -1    0    0    0    0  0.00000000000E+00  0.00000000000E+00  0.47855275298E-10  0.17124000000E+03  0.17124000000E+03 0.  1.
       11    1    1    2    0    0  0.67254379770E-04  0.66914885068E-03  0.90059246717E+00  0.90059286330E+00  0.51109989000E-03 0. -1.
     -623    1    1    2    0    0  0.20014507446E-02  0.10671776328E-02  0.23757872321E-04  0.17124000002E+03  0.17124000000E+03 0.  1.
       22    1    1    2    0    0 -0.20687051711E-02 -0.17363265083E-02  0.15538367596E+00  0.15540714631E+00  0.00000000000E+00 0.  1.
</event>
<event>
 5   1  0.2192208E+09  0.9118800E+02  0.7818608E-02  0.1180000E+00
       11   -1    0    0    0    0  0.00000000000E+00  0.00000000000E+00  0.10559998763E+01  0.10560000000E+01  0.51109989000E-03 0.  1.
     -623   -1    0    0    0    0  0.00000000000E+00  0.00000000000E+00  0.47855275298E-10  0.17124000000E+03  0.17124000000E+03 0.  1.
       11    1    1    2    0    0  0.19655868939E-02  0.57453464737E-02  0.51519188486E+00  0.51522792236E+00  0.51109989000E-03 0.  1.
     -623    1    1    2    0    0 -0.27889804246E-03  0.44779151310E-03  0.74009609736E-04  0.17124000000E+03  0.17124000000E+03 0.  1.
       22    1    1    2    0    0 -0.16866888508E-02 -0.61931379878E-02  0.54073398440E+00  0.54077207931E+00  0.00000000000E+00 0.  1.
</event>
<event>
 5   1  0.2192208E+09  0.9118800E+02  0.7818608E-02  0.1180000E+00
       11   -1    0    0    0    0  0.00000000000E+00  0.00000000000E+00  0.10559998763E+01  0.10560000000E+01  0.51109989000E-03 0. -1.
     -623   -1    0    0    0    0  0.00000000000E+00  0.00000000000E+00  0.47855275298E-10  0.17124000000E+03  0.17124000000E+03 0.  1.
       11    1    1    2    0    0 -0.28606529245E-02 -0.10302876672E-01  0.60498843505E+00  0.60508313509E+00  0.51109989000E-03 0. -1.
     -623    1    1    2    0    0  0.98254376287E-05  0.20555597140E-01  0.22140060049E-03  0.17124000123E+03  0.17124000000E+03 0.  1.
       22    1    1    2    0    0  0.28508274870E-02 -0.10252720114E-01  0.45079002255E+00  0.45091561285E+00  0.00000000000E+00 0. -1.
</event>
<event>
 5   1  0.2192208E+09  0.9118800E+02  0.7818608E-02  0.1180000E+00
       11   -1    0    0    0    0  0.00000000000E+00  0.00000000000E+00  0.10559998763E+01  0.10560000000E+01  0.51109989000E-03 0. -1.
     -623   -1    0    0    0    0  0.00000000000E+00  0.00000000000E+00  0.47855275298E-10  0.17124000000E+03  0.17124000000E+03 0. -1.
       11    1    1    2    0    0 -0.29627672151E-02 -0.11778928849E-01  0.96911175538E+00  0.96918799868E+00  0.51109989000E-03 0. -1.
     -623    1    1    2    0    0  0.31365242526E-02  0.12864347090E-01  0.83591378874E-04  0.17124000051E+03  0.17124000000E+03 0. -1.
       22    1    1    2    0    0 -0.17375591090E-03 -0.10854136208E-02  0.86804150340E-01  0.86811110062E-01  0.00000000000E+00 0. -1.
</event>
<event>
 5   1  0.2192208E+09  0.9118800E+02  0.7818608E-02  0.1180000E+00
       11   -1    0    0    0    0  0.00000000000E+00  0.00000000000E+00  0.10559998763E+01  0.10560000000E+01  0.51109989000E-03 0.  1.
     -623   -1    0    0    0    0  0.00000000000E+00  0.00000000000E+00  0.47855275298E-10  0.17124000000E+03  0.17124000000E+03 0.  1.
       11    1    1    2    0    0  0.49480285185E-02  0.77301511745E-03  0.64571424569E+00  0.64573386843E+00  0.51109989000E-03 0.  1.
     -623    1    1    2    0    0 -0.72392089282E-02  0.42426045611E-02  0.56762760928E-04  0.17124000021E+03  0.17124000000E+03 0.  1.
       22    1    1    2    0    0  0.22911804751E-02 -0.50156197169E-02  0.41022887746E+00  0.41026593553E+00  0.00000000000E+00 0.  1.
</event>
<event>
 5   1  0.2192208E+09  0.9118800E+02  0.7818608E-02  0.1180000E+00
       11   -1    0    0    0    0  0.00000000000E+00  0.00000000000E+00  0.10559998763E+01  0.10560000000E+01  0.51109989000E-03 0.  1.
     -623   -1    0    0    0    0  0.00000000000E+00  0.00000000000E+00  0.47855275298E-10  0.17124000000E+03  0.17124000000E+03 0. -1.
       11    1    1    2    0    0 -0.12509578139E-02  0.92948021407E-02  0.67156956538E+00  0.67163524372E+00  0.51109989000E-03 0.  1.
     -623    1    1    2    0    0  0.36929727733E-02 -0.13183307174E-01  0.93529996395E-04  0.17124000055E+03  0.17124000000E+03 0. -1.
       22    1    1    2    0    0 -0.24420152193E-02  0.38885059612E-02  0.38433685530E+00  0.38436428327E+00  0.00000000000E+00 0.  1.
</event>
<event>
 5   1  0.2192208E+09  0.9118800E+02  0.7818608E-02  0.1180000E+00
       11   -1    0    0    0    0  0.00000000000E+00  0.00000000000E+00  0.10559998763E+01  0.10560000000E+01  0.51109989000E-03 0.  1.
     -623   -1    0    0    0    0  0.00000000000E+00  0.00000000000E+00  0.47855275298E-10  0.17124000000E+03  0.17124000000E+03 0.  1.
       11    1    1    2    0    0 -0.80291537991E-03 -0.68819281447E-03  0.98166982885E+00  0.98167053148E+00  0.51109989000E-03 0.  1.
     -623    1    1    2    0    0  0.15908783011E-03 -0.38603318779E-03  0.11131075617E-04  0.17124000000E+03  0.17124000000E+03 0.  1.
       22    1    1    2    0    0  0.64382754022E-03  0.10742260255E-02  0.74318980002E-01  0.74329531574E-01  0.00000000000E+00 0. -1.
</event>
<event>
 5   1  0.2192208E+09  0.9118800E+02  0.7818608E-02  0.1180000E+00
       11   -1    0    0    0    0  0.00000000000E+00  0.00000000000E+00  0.10559998763E+01  0.10560000000E+01  0.51109989000E-03 0. -1.
     -623   -1    0    0    0    0  0.00000000000E+00  0.00000000000E+00  0.47855275298E-10  0.17124000000E+03  0.17124000000E+03 0.  1.
       11    1    1    2    0    0 -0.12142695017E-03  0.16371079635E-02  0.91706049981E+00  0.91706211153E+00  0.51109989000E-03 0. -1.
     -623    1    1    2    0    0  0.12127032171E-03 -0.11419647862E-03  0.98348040349E-05  0.17124000000E+03  0.17124000000E+03 0.  1.
       22    1    1    2    0    0  0.15662954335E-06 -0.15229114859E-02  0.13892953230E+00  0.13893787894E+00  0.00000000000E+00 0. -1.
</event>
<event>
 5   1  0.2192208E+09  0.9118800E+02  0.7818608E-02  0.1180000E+00
       11   -1    0    0    0    0  0.00000000000E+00  0.00000000000E+00  0.10559998763E+01  0.10560000000E+01  0.51109989000E-03 0.  1.
     -623   -1    0    0    0    0  0.00000000000E+00  0.00000000000E+00  0.47855275298E-10  0.17124000000E+03  0.17124000000E+03 0.  1.
       11    1    1    2    0    0  0.83999178143E-02 -0.15950426423E-01  0.10048842015E+01  0.10050460161E+01  0.51109989000E-03 0.  1.
     -623    1    1    2    0    0 -0.84723778882E-02  0.17098839470E-01  0.17574933615E-03  0.17124000106E+03  0.17124000000E+03 0.  1.
       22    1    1    2    0    0  0.72459120518E-04 -0.11484111236E-02  0.50939806686E-01  0.50952801725E-01  0.00000000000E+00 0. -1.
</event>
<event>
 5   1  0.2192208E+09  0.9118800E+02  0.7818608E-02  0.1180000E+00
       11   -1    0    0    0    0  0.00000000000E+00  0.00000000000E+00  0.10559998763E+01  0.10560000000E+01  0.51109989000E-03 0.  1.
     -623   -1    0    0    0    0  0.00000000000E+00  0.00000000000E+00  0.47855275298E-10  0.17124000000E+03  0.17124000000E+03 0. -1.
       11    1    1    2    0    0 -0.18001603256E-01  0.12780403826E-01  0.89832274722E+00  0.89859413298E+00  0.51109989000E-03 0.  1.
     -623    1    1    2    0    0  0.19515182791E-01 -0.16396244267E-01  0.32197523449E-03  0.17124000190E+03  0.17124000000E+03 0. -1.
       22    1    1    2    0    0 -0.15135803158E-02  0.36158410970E-02  0.15735519613E+00  0.15740401196E+00  0.00000000000E+00 0. -1.
</event>
<event>
 5   1  0.2192208E+09  0.9118800E+02  0.7818608E-02  0.1180000E+00
       11   -1    0    0    0    0  0.00000000000E+00  0.00000000000E+00  0.10559998763E+01  0.10560000000E+01  0.51109989000E-03 0. -1.
     -623   -1    0    0    0    0  0.00000000000E+00  0.00000000000E+00  0.47855275298E-10  0.17124000000E+03  0.17124000000E+03 0. -1.
       11    1    1    2    0    0 -0.23291095909E-02 -0.19942131584E-01  0.56198427750E+00  0.56234304721E+00  0.51109989000E-03 0. -1.
     -623    1    1    2    0    0  0.48643548876E-02  0.35599851021E-01  0.61730890434E-03  0.17124000377E+03  0.17124000000E+03 0. -1.
       22    1    1    2    0    0 -0.25352462318E-02 -0.15657726282E-01  0.49339849286E+00  0.49365338510E+00  0.00000000000E+00 0. -1.
</event>
<event>
 5   1  0.2192208E+09  0.9118800E+02  0.7818608E-02  0.1180000E+00
       11   -1    0    0    0    0  0.00000000000E+00  0.00000000000E+00  0.10559998763E+01  0.10560000000E+01  0.51109989000E-03 0.  1.
     -623   -1    0    0    0    0  0.00000000000E+00  0.00000000000E+00  0.47855275298E-10  0.17124000000E+03  0.17124000000E+03 0. -1.
       11    1    1    2    0    0 -0.12493471738E-01  0.11446820760E-02  0.70110629004E+00  0.70121871644E+00  0.51109989000E-03 0.  1.
     -623    1    1    2    0    0  0.10787691028E-01  0.43046979690E-02  0.15865122511E-03  0.17124000039E+03  0.17124000000E+03 0. -1.
       22    1    1    2    0    0  0.17057807222E-02 -0.54493800406E-02  0.35473493400E+00  0.35478088848E+00  0.00000000000E+00 0.  1.
</event>
<event>
 5   1  0.2192208E+09  0.9118800E+02  0.7818608E-02  0.1180000E+00
       11   -1    0    0    0    0  0.00000000000E+00  0.00000000000E+00  0.10559998763E+01  0.10560000000E+01  0.51109989000E-03 0.  1.
     -623   -1    0    0    0    0  0.00000000000E+00  0.00000000000E+00  0.47855275298E-10  0.17124000000E+03  0.17124000000E+03 0.  1.
       11    1    1    2    0    0 -0.36963376772E-02  0.54086749586E-02  0.71734874450E+00  0.71737883934E+00  0.51109989000E-03 0.  1.
     -623    1    1    2    0    0  0.78928759337E-02 -0.16961338437E-01  0.25414122847E-03  0.17124000102E+03  0.17124000000E+03 0.  1.
       22    1    1    2    0    0 -0.41965382975E-02  0.11552663567E-01  0.33839699613E+00  0.33862014405E+00  0.00000000000E+00 0. -1.
</event>
<event>
 5   1  0.2192208E+09  0.9118800E+02  0.7818608E-02  0.1180000E+00
       11   -1    0    0    0    0  0.00000000000E+00  0.00000000000E+00  0.10559998763E+01  0.10560000000E+01  0.51109989000E-03 0.  1.
     -623   -1    0    0    0    0  0.00000000000E+00  0.00000000000E+00  0.47855275298E-10  0.17124000000E+03  0.17124000000E+03 0. -1.
       11    1    1    2    0    0 -0.24390728284E-01 -0.19797485465E-01  0.77350787938E+00  0.77414568962E+00  0.51109989000E-03 0.  1.
     -623    1    1    2    0    0  0.31439886970E-01  0.22816086954E-01  0.74642918657E-03  0.17124000441E+03  0.17124000000E+03 0. -1.
       22    1    1    2    0    0 -0.70491585935E-02 -0.30186014222E-02  0.28174556470E+00  0.28184989945E+00  0.00000000000E+00 0.  1.
</event>
<event>
 5   1  0.2192208E+09  0.9118800E+02  0.7818608E-02  0.1180000E+00
       11   -1    0    0    0    0  0.00000000000E+00  0.00000000000E+00  0.10559998763E+01  0.10560000000E+01  0.51109989000E-03 0.  1.
     -623   -1    0    0    0    0  0.00000000000E+00  0.00000000000E+00  0.47855275298E-10  0.17124000000E+03  0.17124000000E+03 0. -1.
       11    1    1    2    0    0  0.62154084825E-02  0.12448148078E-01  0.81103256079E+00  0.81115205947E+00  0.51109989000E-03 0.  1.
     -623    1    1    2    0    0 -0.81909432321E-02 -0.15759967754E-01  0.15066583065E-03  0.17124000092E+03  0.17124000000E+03 0. -1.
       22    1    1    2    0    0  0.19755303617E-02  0.33118112327E-02  0.24481608412E+00  0.24484645363E+00  0.00000000000E+00 0.  1.
</event>
<event>
 5   1  0.2192208E+09  0.9118800E+02  0.7818608E-02  0.1180000E+00
       11   -1    0    0    0    0  0.00000000000E+00  0.00000000000E+00  0.10559998763E+01  0.10560000000E+01  0.51109989000E-03 0.  1.
     -623   -1    0    0    0    0  0.00000000000E+00  0.00000000000E+00  0.47855275298E-10  0.17124000000E+03  0.17124000000E+03 0.  1.
       11    1    1    2    0    0  0.16737012404E-01  0.30691659660E-01  0.12639851487E+00  0.13114477245E+00  0.51109989000E-03 0.  1.
     -623    1    1    2    0    0  0.18546763031E-01  0.46338759253E-02  0.60959856827E-02  0.17124000118E+03  0.17124000000E+03 0.  1.
       22    1    1    2    0    0 -0.35283775436E-01 -0.35325535585E-01  0.92350537587E+00  0.92485405202E+00  0.00000000000E+00 0.  1.
</event>
<event>
 5   1  0.2192208E+09  0.9118800E+02  0.7818608E-02  0.1180000E+00
       11   -1    0    0    0    0  0.00000000000E+00  0.00000000000E+00  0.10559998763E+01  0.10560000000E+01  0.51109989000E-03 0.  1.
     -623   -1    0    0    0    0  0.00000000000E+00  0.00000000000E+00  0.47855275298E-10  0.17124000000E+03  0.17124000000E+03 0. -1.
       11    1    1    2    0    0  0.20169767731E-02  0.24835890994E-02  0.42992802336E+00  0.42994023178E+00  0.51109989000E-03 0. -1.
     -623    1    1    2    0    0 -0.37230514825E-02 -0.89676992022E-02  0.48263746484E-04  0.17124000028E+03  0.17124000000E+03 0. -1.
       22    1    1    2    0    0  0.17060745753E-02  0.64841097797E-02  0.62602355121E+00  0.62605945488E+00  0.00000000000E+00 0.  1.
</event>
<event>
 5   1  0.2192208E+09  0.9118800E+02  0.7818608E-02  0.1180000E+00
       11   -1    0    0    0    0  0.00000000000E+00  0.00000000000E+00  0.10559998763E+01  0.10560000000E+01  0.51109989000E-03 0.  1.
     -623   -1    0    0    0    0  0.00000000000E+00  0.00000000000E+00  0.47855275298E-10  0.17124000000E+03  0.17124000000E+03 0.  1.
       11    1    1    2    0    0  0.49547427393E-02  0.19242708349E-01  0.98717801505E+00  0.98737810687E+00  0.51109989000E-03 0.  1.
     -623    1    1    2    0    0 -0.53460448889E-02 -0.20491389937E-01  0.21375569292E-03  0.17124000131E+03  0.17124000000E+03 0.  1.
       22    1    1    2    0    0  0.39130229765E-03  0.12486821552E-02  0.68608134860E-01  0.68620612746E-01  0.00000000000E+00 0. -1.
</event>
<event>
 5   1  0.2192208E+09  0.9118800E+02  0.7818608E-02  0.1180000E+00
       11   -1    0    0    0    0  0.00000000000E+00  0.00000000000E+00  0.10559998763E+01  0.10560000000E+01  0.51109989000E-03 0.  1.
     -623   -1    0    0    0    0  0.00000000000E+00  0.00000000000E+00  0.47855275298E-10  0.17124000000E+03  0.17124000000E+03 0. -1.
       11    1    1    2    0    0  0.68704681562E-02 -0.33130110992E-01  0.98273290484E+00  0.98331532636E+00  0.51109989000E-03 0.  1.
     -623    1    1    2    0    0 -0.73945785511E-02  0.35883809728E-01  0.64029385627E-03  0.17124000392E+03  0.17124000000E+03 0. -1.
       22    1    1    2    0    0  0.52411125540E-03 -0.27537029124E-02  0.72626800490E-01  0.72680875901E-01  0.00000000000E+00 0.  1.
</event>
<event>
 5   1  0.2192208E+09  0.9118800E+02  0.7818608E-02  0.1180000E+00
       11   -1    0    0    0    0  0.00000000000E+00  0.00000000000E+00  0.10559998763E+01  0.10560000000E+01  0.51109989000E-03 0.  1.
     -623   -1    0    0    0    0  0.00000000000E+00  0.00000000000E+00  0.47855275298E-10  0.17124000000E+03  0.17124000000E+03 0.  1.
       11    1    1    2    0    0 -0.88329864392E-03  0.35050679701E-02  0.86588515161E+00  0.86589284713E+00  0.51109989000E-03 0.  1.
     -623    1    1    2    0    0 -0.42836768635E-03  0.18886434027E-04  0.44762262079E-04  0.17124000000E+03  0.17124000000E+03 0.  1.
       22    1    1    2    0    0  0.13116663325E-02 -0.35239544042E-02  0.19006996802E+00  0.19010715785E+00  0.00000000000E+00 0.  1.
</event>
<event>
 5   1  0.2192208E+09  0.9118800E+02  0.7818608E-02  0.1180000E+00
       11   -1    0    0    0    0  0.00000000000E+00  0.00000000000E+00  0.10559998763E+01  0.10560000000E+01  0.51109989000E-03 0. -1.
     -623   -1    0    0    0    0  0.00000000000E+00  0.00000000000E+00  0.47855275298E-10  0.17124000000E+03  0.17124000000E+03 0.  1.
       11    1    1    2    0    0 -0.18540399004E-01 -0.14245127364E-01  0.91303930544E+00  0.91333876769E+00  0.51109989000E-03 0. -1.
     -623    1    1    2    0    0  0.21021622707E-01  0.16321059641E-01  0.33809347828E-03  0.17124000207E+03  0.17124000000E+03 0.  1.
       22    1    1    2    0    0 -0.24812304599E-02 -0.20759375225E-02  0.14262281678E+00  0.14265950332E+00  0.00000000000E+00 0. -1.
</event>
<event>
 5   1  0.2192208E+09  0.9118800E+02  0.7818608E-02  0.1180000E+00
       11   -1    0    0    0    0  0.00000000000E+00  0.00000000000E+00  0.10559998763E+01  0.10560000000E+01  0.51109989000E-03 0. -1.
     -623   -1    0    0    0    0  0.00000000000E+00  0.00000000000E+00  0.47855275298E-10  0.17124000000E+03  0.17124000000E+03 0. -1.
       11    1    1    2    0    0 -0.32688883594E-02  0.29270958195E-02  0.90311457093E+00  0.90312537500E+00  0.51109989000E-03 0. -1.
     -623    1    1    2    0    0  0.26952207483E-02 -0.10801487472E-02  0.22938798863E-04  0.17124000002E+03  0.17124000000E+03 0. -1.
       22    1    1    2    0    0  0.57366764011E-03 -0.18469470839E-02  0.15286235530E+00  0.15287458904E+00  0.00000000000E+00 0. -1.
</event>
<event>
 5   1  0.2192208E+09  0.9118800E+02  0.7818608E-02  0.1180000E+00
       11   -1    0    0    0    0  0.00000000000E+00  0.00000000000E+00  0.10559998763E+01  0.10560000000E+01  0.51109989000E-03 0.  1.
     -623   -1    0    0    0    0  0.00000000000E+00  0.00000000000E+00  0.47855275298E-10  0.17124000000E+03  0.17124000000E+03 0. -1.
       11    1    1    2    0    0  0.18677936895E-03  0.27812452852E-02  0.86692541218E+00  0.86693004430E+00  0.51109989000E-03 0.  1.
     -623    1    1    2    0    0  0.11053763642E-03 -0.41696822999E-03  0.19525773136E-04  0.17124000000E+03  0.17124000000E+03 0. -1.
       22    1    1    2    0    0 -0.29731700515E-03 -0.23642770560E-02  0.18905493633E+00  0.18906995307E+00  0.00000000000E+00 0. -1.
</event>
<event>
 5   1  0.2192208E+09  0.9118800E+02  0.7818608E-02  0.1180000E+00
       11   -1    0    0    0    0  0.00000000000E+00  0.00000000000E+00  0.10559998763E+01  0.10560000000E+01  0.51109989000E-03 0. -1.
     -623   -1    0    0    0    0  0.00000000000E+00  0.00000000000E+00  0.47855275298E-10  0.17124000000E+03  0.17124000000E+03 0. -1.
       11    1    1    2    0    0 -0.61340549821E-03  0.85666963835E-03  0.99492484700E+00  0.99492553618E+00  0.51109989000E-03 0. -1.
     -623    1    1    2    0    0 -0.17891342314E-04 -0.81183595965E-05  0.97237056322E-05  0.17124000000E+03  0.17124000000E+03 0. -1.
       22    1    1    2    0    0  0.63129684028E-03 -0.84855127886E-03  0.61065291740E-01  0.61074449897E-01  0.00000000000E+00 0. -1.
</event>
<event>
 5   1  0.2192208E+09  0.9118800E+02  0.7818608E-02  0.1180000E+00
       11   -1    0    0    0    0  0.00000000000E+00  0.00000000000E+00  0.10559998763E+01  0.10560000000E+01  0.51109989000E-03 0.  1.
     -623   -1    0    0    0    0  0.00000000000E+00  0.00000000000E+00  0.47855275298E-10  0.17124000000E+03  0.17124000000E+03 0. -1.
       11    1    1    2    0    0  0.11724745575E-01 -0.88770321402E-03  0.99979885833E+00  0.99986812932E+00  0.51109989000E-03 0.  1.
     -623    1    1    2    0    0 -0.13053910938E-01 -0.66962699482E-03  0.10699927705E-03  0.17124000050E+03  0.17124000000E+03 0. -1.
       22    1    1    2    0    0  0.13291653381E-02  0.15573302076E-02  0.56094016739E-01  0.56131369765E-01  0.00000000000E+00 0. -1.
</event>
<event>
 5   1  0.2192208E+09  0.9118800E+02  0.7818608E-02  0.1180000E+00
       11   -1    0    0    0    0  0.00000000000E+00  0.00000000000E+00  0.10559998763E+01  0.10560000000E+01  0.51109989000E-03 0. -1.
     -623   -1    0    0    0    0  0.00000000000E+00  0.00000000000E+00  0.47855275298E-10  0.17124000000E+03  0.17124000000E+03 0. -1.
       11    1    1    2    0    0  0.25441333974E-02  0.78931172041E-02  0.90716885513E+00  0.90720690410E+00  0.51109989000E-03 0. -1.
     -623    1    1    2    0    0 -0.19593281532E-02 -0.97428816262E-02  0.50861459540E-04  0.17124000029E+03  0.17124000000E+03 0. -1.
       22    1    1    2    0    0 -0.58480517040E-03  0.18497647893E-02  0.14878019957E+00  0.14879284731E+00  0.00000000000E+00 0. -1.
</event>
<event>
 5   1  0.2192208E+09  0.9118800E+02  0.7818608E-02  0.1180000E+00
       11   -1    0    0    0    0  0.00000000000E+00  0.00000000000E+00  0.10559998763E+01  0.10560000000E+01  0.51109989000E-03 0. -1.
     -623   -1    0    0    0    0  0.00000000000E+00  0.00000000000E+00  0.47855275298E-10  0.17124000000E+03  0.17124000000E+03 0.  1.
       11    1    1    2    0    0 -0.10928724619E-01 -0.14892318569E-01  0.88858507929E+00  0.88877720635E+00  0.51109989000E-03 0. -1.
     -623    1    1    2    0    0  0.13246410641E-01  0.18051061528E-01  0.23936889206E-03  0.17124000146E+03  0.17124000000E+03 0.  1.
       22    1    1    2    0    0 -0.23176841278E-02 -0.31587403775E-02  0.16717527719E+00  0.16722117869E+00  0.00000000000E+00 0. -1.
</event>
<event>
 5   1  0.2192208E+09  0.9118800E+02  0.7818608E-02  0.1180000E+00
       11   -1    0    0    0    0  0.00000000000E+00  0.00000000000E+00  0.10559998763E+01  0.10560000000E+01  0.51109989000E-03 0.  1.
     -623   -1    0    0    0    0  0.00000000000E+00  0.00000000000E+00  0.47855275298E-10  0.17124000000E+03  0.17124000000E+03 0.  1.
       11    1    1    2    0    0 -0.20582548995E-01  0.29417533307E-01  0.91220502220E+00  0.91291143948E+00  0.51109989000E-03 0.  1.
     -623    1    1    2    0    0  0.23822561867E-01 -0.34350333512E-01  0.83316274225E-03  0.17124000510E+03  0.17124000000E+03 0.  1.
       22    1    1    2    0    0 -0.32400146739E-02  0.49328028036E-02  0.14296177124E+00  0.14308353600E+00  0.00000000000E+00 0.  1.
</event>
<event>
 5   1  0.2192208E+09  0.9118800E+02  0.7818608E-02  0.1180000E+00
       11   -1    0    0    0    0  0.00000000000E+00  0.00000000000E+00  0.10559998763E+01  0.10560000000E+01  0.51109989000E-03 0. -1.
     -623   -1    0    0    0    0  0.00000000000E+00  0.00000000000E+00  0.47855275298E-10  0.17124000000E+03  0.17124000000E+03 0. -1.
       11    1    1    2    0    0  0.12220911256E-01  0.30187647751E-01  0.10049978518E+01  0.10055255283E+01  0.51109989000E-03 0. -1.
     -623    1    1    2    0    0 -0.12761204208E-01 -0.31752987337E-01  0.55814669004E-03  0.17124000342E+03  0.17124000000E+03 0. -1.
       22    1    1    2    0    0  0.54026964103E-03  0.15652815807E-02  0.50441949839E-01  0.50469122256E-01  0.00000000000E+00 0.  1.
</event>
<event>
 5   1  0.2192208E+09  0.9118800E+02  0.7818608E-02  0.1180000E+00
       11   -1    0    0    0    0  0.00000000000E+00  0.00000000000E+00  0.10559998763E+01  0.10560000000E+01  0.51109989000E-03 0. -1.
     -623   -1    0    0    0    0  0.00000000000E+00  0.00000000000E+00  0.47855275298E-10  0.17124000000E+03  0.17124000000E+03 0.  1.
       11    1    1    2    0    0 -0.27040466807E-03  0.22714594189E-02  0.93221061626E+00  0.93221356294E+00  0.51109989000E-03 0. -1.
     -623    1    1    2    0    0  0.53959848647E-05 -0.48889479650E-04  0.23061367748E-04  0.17124000000E+03  0.17124000000E+03 0.  1.
       22    1    1    2    0    0  0.26500868328E-03 -0.22225699399E-02  0.12376618485E+00  0.12378642316E+00  0.00000000000E+00 0.  1.
</event>
<event>
 5   1  0.2192208E+09  0.9118800E+02  0.7818608E-02  0.1180000E+00
       11   -1    0    0    0    0  0.00000000000E+00  0.00000000000E+00  0.10559998763E+01  0.10560000000E+01  0.51109989000E-03 0. -1.
     -623   -1    0    0    0    0  0.00000000000E+00  0.00000000000E+00  0.47855275298E-10  0.17124000000E+03  0.17124000000E+03 0.  1.
       11    1    1    2    0    0 -0.61927869941E-02 -0.95230963787E-02  0.96269050238E+00  0.96275765620E+00  0.51109989000E-03 0. -1.
     -623    1    1    2    0    0  0.72152083754E-02  0.10669551814E-01  0.80169144849E-04  0.17124000048E+03  0.17124000000E+03 0.  1.
       22    1    1    2    0    0 -0.10224216361E-02 -0.11464558121E-02  0.93229242122E-01  0.93241896664E-01  0.00000000000E+00 0.  1.
</event>
<event>
 5   1  0.2192208E+09  0.9118800E+02  0.7818608E-02  0.1180000E+00
       11   -1    0    0    0    0  0.00000000000E+00  0.00000000000E+00  0.10559998763E+01  0.10560000000E+01  0.51109989000E-03 0.  1.
     -623   -1    0    0    0    0  0.00000000000E+00  0.00000000000E+00  0.47855275298E-10  0.17124000000E+03  0.17124000000E+03 0. -1.
       11    1    1    2    0    0  0.12061099981E-01  0.94032947119E-02  0.41077018040E+00  0.41105509900E+00  0.51109989000E-03 0.  1.
     -623    1    1    2    0    0  0.48253911690E-03 -0.15419190414E-02  0.45471924035E-03  0.17124000001E+03  0.17124000000E+03 0. -1.
       22    1    1    2    0    0 -0.12543639098E-01 -0.78613756702E-02  0.64477497697E+00  0.64494489302E+00  0.00000000000E+00 0.  1.
</event>
<event>
 5   1  0.2192208E+09  0.9118800E+02  0.7818608E-02  0.1180000E+00
       11   -1    0    0    0    0  0.00000000000E+00  0.00000000000E+00  0.10559998763E+01  0.10560000000E+01  0.51109989000E-03 0.  1.
     -623   -1    0    0    0    0  0.00000000000E+00  0.00000000000E+00  0.47855275298E-10  0.17124000000E+03  0.17124000000E+03 0. -1.
       11    1    1    2    0    0 -0.15463730244E-03 -0.36320585880E-02  0.40751193777E+00  0.40752847313E+00  0.51109989000E-03 0.  1.
     -623    1    1    2    0    0  0.41739150672E-02 -0.74401014947E-02  0.12361340011E-03  0.17124000021E+03  0.17124000000E+03 0. -1.
       22    1    1    2    0    0 -0.40192777555E-02  0.11072160066E-01  0.64836432283E+00  0.64847131197E+00  0.00000000000E+00 0.  1.
</event>
<event>
 5   1  0.2192208E+09  0.9118800E+02  0.7818608E-02  0.1180000E+00
       11   -1    0    0    0    0  0.00000000000E+00  0.00000000000E+00  0.10559998763E+01  0.10560000000E+01  0.51109989000E-03 0. -1.
     -623   -1    0    0    0    0  0.00000000000E+00  0.00000000000E+00  0.47855275298E-10  0.17124000000E+03  0.17124000000E+03 0. -1.
       11    1    1    2    0    0  0.55903603382E-02  0.49049744703E-02  0.79436506236E+00  0.79440004055E+00  0.51109989000E-03 0. -1.
     -623    1    1    2    0    0 -0.96014821943E-03  0.61233868811E-04  0.12298777303E-03  0.17124000000E+03  0.17124000000E+03 0. -1.
       22    1    1    2    0    0 -0.46302121178E-02 -0.49662083392E-02  0.26151182727E+00  0.26159995775E+00  0.00000000000E+00 0. -1.
</event>
<event>
 5   1  0.2192208E+09  0.9118800E+02  0.7818608E-02  0.1180000E+00
       11   -1    0    0    0    0  0.00000000000E+00  0.00000000000E+00  0.10559998763E+01  0.10560000000E+01  0.51109989000E-03 0.  1.
     -623   -1    0    0    0    0  0.00000000000E+00  0.00000000000E+00  0.47855275298E-10  0.17124000000E+03  0.17124000000E+03 0. -1.
       11    1    1    2    0    0 -0.13832249820E-01  0.35366139884E-02  0.98491870464E+00  0.98502231180E+00  0.51109989000E-03 0.  1.
     -623    1    1    2    0    0  0.14325519316E-01 -0.12191171050E-02  0.14364689243E-03  0.17124000060E+03  0.17124000000E+03 0. -1.
       22    1    1    2    0    0 -0.49326953400E-03 -0.23174968802E-02  0.70937527629E-01  0.70977087378E-01  0.00000000000E+00 0. -1.
</event>
<event>
 5   1  0.2192208E+09  0.9118800E+02  0.7818608E-02  0.1180000E+00
       11   -1    0    0    0    0  0.00000000000E+00  0.00000000000E+00  0.10559998763E+01  0.10560000000E+01  0.51109989000E-03 0.  1.
     -623   -1    0    0    0    0  0.00000000000E+00  0.00000000000E+00  0.47855275298E-10  0.17124000000E+03  0.17124000000E+03 0.  1.
       11    1    1    2    0    0 -0.13991745485E-02  0.24455563608E-02  0.95416914689E+00  0.95417344364E+00  0.51109989000E-03 0.  1.
     -623    1    1    2    0    0 -0.47425922222E-04  0.62097821655E-04  0.45334671131E-04  0.17124000000E+03  0.17124000000E+03 0.  1.
       22    1    1    2    0    0  0.14466004711E-02 -0.25076541830E-02  0.10178540355E+00  0.10182656509E+00  0.00000000000E+00 0.  1.
</event>
<event>
 5   1  0.2192208E+09  0.9118800E+02  0.7818608E-02  0.1180000E+00
       11   -1    0    0    0    0  0.00000000000E+00  0.00000000000E+00  0.10559998763E+01  0.10560000000E+01  0.51109989000E-03 0.  1.
     -623   -1    0    0    0    0  0.00000000000E+00  0.00000000000E+00  0.47855275298E-10  0.17124000000E+03  0.17124000000E+03 0.  1.
       11    1    1    2    0    0 -0.20053526645E-01  0.15080149634E-01  0.10021638520E+01  0.10024780308E+01  0.51109989000E-03 0.  1.
     -623    1    1    2    0    0  0.21246747411E-01 -0.16824246025E-01  0.35793601061E-03  0.17124000214E+03  0.17124000000E+03 0.  1.
       22    1    1    2    0    0 -0.11932211461E-02  0.17440966927E-02  0.53478107310E-01  0.53519843156E-01  0.00000000000E+00 0.  1.
</event>
<event>
 5   1  0.2192208E+09  0.9118800E+02  0.7818608E-02  0.1180000E+00
       11   -1    0    0    0    0  0.00000000000E+00  0.00000000000E+00  0.10559998763E+01  0.10560000000E+01  0.51109989000E-03 0. -1.
     -623   -1    0    0    0    0  0.00000000000E+00  0.00000000000E+00  0.47855275298E-10  0.17124000000E+03  0.17124000000E+03 0.  1.
       11    1    1    2    0    0 -0.84700136593E-03 -0.29981681464E-02  0.92297384931E+00  0.92297924904E+00  0.51109989000E-03 0. -1.
     -623    1    1    2    0    0  0.11670976119E-03 -0.24220859610E-03  0.46755127484E-04  0.17124000000E+03  0.17124000000E+03 0.  1.
       22    1    1    2    0    0  0.73029160381E-03  0.32403767444E-02  0.13297928031E+00  0.13302075913E+00  0.00000000000E+00 0. -1.
</event>
<event>
 5   1  0.2192208E+09  0.9118800E+02  0.7818608E-02  0.1180000E+00
       11   -1    0    0    0    0  0.00000000000E+00  0.00000000000E+00  0.10559998763E+01  0.10560000000E+01  0.51109989000E-03 0. -1.
     -623   -1    0    0    0    0  0.00000000000E+00  0.00000000000E+00  0.47855275298E-10  0.17124000000E+03  0.17124000000E+03 0. -1.
       11    1    1    2    0    0 -0.29744429608E-02 -0.28979110406E-03  0.98478508132E+00  0.98478974858E+00  0.51109989000E-03 0. -1.
     -623    1    1    2    0    0  0.39685796003E-02  0.19061962253E-02  0.29889522178E-04  0.17124000006E+03  0.17124000000E+03 0. -1.
       22    1    1    2    0    0 -0.99413667879E-03 -0.16164051402E-02  0.71184915988E-01  0.71210205290E-01  0.00000000000E+00 0. -1.
</event>
<event>
 5   1  0.2192208E+09  0.9118800E+02  0.7818608E-02  0.1180000E+00
       11   -1    0    0    0    0  0.00000000000E+00  0.00000000000E+00  0.10559998763E+01  0.10560000000E+01  0.51109989000E-03 0.  1.
     -623   -1    0    0    0    0  0.00000000000E+00  0.00000000000E+00  0.47855275298E-10  0.17124000000E+03  0.17124000000E+03 0. -1.
       11    1    1    2    0    0 -0.57691461336E-03  0.12805061217E-02  0.94531680945E+00  0.94531799093E+00  0.51109989000E-03 0.  1.
     -623    1    1    2    0    0 -0.15931858879E-03 -0.20581845393E-04  0.10678008337E-04  0.17124000000E+03  0.17124000000E+03 0. -1.
       22    1    1    2    0    0  0.73623319971E-03 -0.12599242766E-02  0.11067237271E+00  0.11068199279E+00  0.00000000000E+00 0.  1.
</event>
<event>
 5   1  0.2192208E+09  0.9118800E+02  0.7818608E-02  0.1180000E+00
       11   -1    0    0    0    0  0.00000000000E+00  0.00000000000E+00  0.10559998763E+01  0.10560000000E+01  0.51109989000E-03 0. -1.
     -623   -1    0    0    0    0  0.00000000000E+00  0.00000000000E+00  0.47855275298E-10  0.17124000000E+03  0.17124000000E+03 0.  1.
       11    1    1    2    0    0  0.42247494565E-02 -0.98428991558E-02  0.45968115376E+00  0.45980621518E+00  0.51109989000E-03 0. -1.
     -623    1    1    2    0    0  0.26145719978E-02  0.27767423344E-02  0.20608947377E-03  0.17124000004E+03  0.17124000000E+03 0.  1.
       22    1    1    2    0    0 -0.68393214525E-02  0.70661568234E-02  0.59611263236E+00  0.59619374146E+00  0.00000000000E+00 0. -1.
</event>
<event>
 5   1  0.2192208E+09  0.9118800E+02  0.7818608E-02  0.1180000E+00
       11   -1    0    0    0    0  0.00000000000E+00  0.00000000000E+00  0.10559998763E+01  0.10560000000E+01  0.51109989000E-03 0. -1.
     -623   -1    0    0    0    0  0.00000000000E+00  0.00000000000E+00  0.47855275298E-10  0.17124000000E+03  0.17124000000E+03 0. -1.
       11    1    1    2    0    0  0.14452713812E-02 -0.70018714431E-02  0.51073162023E+00  0.51078191446E+00  0.51109989000E-03 0. -1.
     -623    1    1    2    0    0 -0.29212835687E-02  0.15189792567E-01  0.11435282362E-03  0.17124000070E+03  0.17124000000E+03 0. -1.
       22    1    1    2    0    0  0.14760127662E-02 -0.81879241327E-02  0.54515411247E+00  0.54521759607E+00  0.00000000000E+00 0. -1.
</event>
<event>
 5   1  0.2192208E+09  0.9118800E+02  0.7818608E-02  0.1180000E+00
       11   -1    0    0    0    0  0.00000000000E+00  0.00000000000E+00  0.10559998763E+01  0.10560000000E+01  0.51109989000E-03 0.  1.
     -623   -1    0    0    0    0  0.00000000000E+00  0.00000000000E+00  0.47855275298E-10  0.17124000000E+03  0.17124000000E+03 0. -1.
       11    1    1    2    0    0  0.13999516382E-02 -0.15677644072E-02  0.90557566148E+00  0.90557824490E+00  0.51109989000E-03 0.  1.
     -623    1    1    2    0    0 -0.16488645507E-04  0.28210920370E-04  0.16701072494E-04  0.17124000000E+03  0.17124000000E+03 0. -1.
       22    1    1    2    0    0 -0.13834629929E-02  0.15395534872E-02  0.15040750148E+00  0.15042174276E+00  0.00000000000E+00 0.  1.
</event>
<event>
 5   1  0.2192208E+09  0.9118800E+02  0.7818608E-02  0.1180000E+00
       11   -1    0    0    0    0  0.00000000000E+00  0.00000000000E+00  0.10559998763E+01  0.10560000000E+01  0.51109989000E-03 0.  1.
     -623   -1    0    0    0    0  0.00000000000E+00  0.00000000000E+00  0.47855275298E-10  0.17124000000E+03  0.17124000000E+03 0.  1.
       11    1    1    2    0    0  0.81651691205E-02  0.30185791264E-01  0.98441144556E+00  0.98490812128E+00  0.51109989000E-03 0.  1.
     -623    1    1    2    0    0 -0.88012843119E-02 -0.31885095268E-01  0.52290747262E-03  0.17124000320E+03  0.17124000000E+03 0.  1.
       22    1    1    2    0    0  0.63611634816E-03  0.16993081953E-02  0.71065662053E-01  0.71088822014E-01  0.00000000000E+00 0. -1.
</event>
<event>
 5   1  0.2192208E+09  0.9118800E+02  0.7818608E-02  0.1180000E+00
       11   -1    0    0    0    0  0.00000000000E+00  0.00000000000E+00  0.10559998763E+01  0.10560000000E+01  0.51109989000E-03 0. -1.
     -623   -1    0    0    0    0  0.00000000000E+00  0.00000000000E+00  0.47855275298E-10  0.17124000000E+03  0.17124000000E+03 0. -1.
       11    1    1    2    0    0  0.39240848077E-04 -0.80955957954E-03  0.93531102675E+00  0.93531151758E+00  0.51109989000E-03 0. -1.
     -623    1    1    2    0    0 -0.21423264421E-03  0.22342448845E-02  0.89180185996E-05  0.17124000001E+03  0.17124000000E+03 0. -1.
       22    1    1    2    0    0  0.17499180776E-03 -0.14246854263E-02  0.12067998893E+00  0.12068852505E+00  0.00000000000E+00 0. -1.
</event>
<event>
 5   1  0.2192208E+09  0.9118800E+02  0.7818608E-02  0.1180000E+00
       11   -1    0    0    0    0  0.00000000000E+00  0.00000000000E+00  0.10559998763E+01  0.10560000000E+01  0.51109989000E-03 0.  1.
     -623   -1    0    0    0    0  0.00000000000E+00  0.00000000000E+00  0.47855275298E-10  0.17124000000E+03  0.17124000000E+03 0.  1.
       11    1    1    2    0    0  0.74822139054E-03 -0.15518006048E-02  0.98124759511E+00  0.98124924053E+00  0.51109989000E-03 0.  1.
     -623    1    1    2    0    0 -0.12905073627E-03 -0.84082384558E-04  0.21989239298E-04  0.17124000000E+03  0.17124000000E+03 0.  1.
       22    1    1    2    0    0 -0.61917065410E-03  0.16358829895E-02  0.74730293390E-01  0.74750760769E-01  0.00000000000E+00 0.  1.
</event>
<event>
 5   1  0.2192208E+09  0.9118800E+02  0.7818608E-02  0.1180000E+00
       11   -1    0    0    0    0  0.00000000000E+00  0.00000000000E+00  0.10559998763E+01  0.10560000000E+01  0.51109989000E-03 0.  1.
     -623   -1    0    0    0    0  0.00000000000E+00  0.00000000000E+00  0.47855275298E-10  0.17124000000E+03  0.17124000000E+03 0. -1.
       11    1    1    2    0    0 -0.28499651596E-02 -0.46496520435E-02  0.93019024591E+00  0.93020637300E+00  0.51109989000E-03 0.  1.
     -623    1    1    2    0    0  0.23220298534E-02  0.62590490298E-02  0.27537216445E-04  0.17124000013E+03  0.17124000000E+03 0. -1.
       22    1    1    2    0    0  0.52793526650E-03 -0.16093970935E-02  0.12578211131E+00  0.12579351494E+00  0.00000000000E+00 0. -1.
</event>
<event>
 5   1  0.2192208E+09  0.9118800E+02  0.7818608E-02  0.1180000E+00
       11   -1    0    0    0    0  0.00000000000E+00  0.00000000000E+00  0.10559998763E+01  0.10560000000E+01  0.51109989000E-03 0. -1.
     -623   -1    0    0    0    0  0.00000000000E+00  0.00000000000E+00  0.47855275298E-10  0.17124000000E+03  0.17124000000E+03 0.  1.
       11    1    1    2    0    0 -0.20229995447E-01 -0.15252046221E-01  0.97233640699E+00  0.97266655500E+00  0.51109989000E-03 0. -1.
     -623    1    1    2    0    0  0.21688564721E-01  0.16415332703E-01  0.35307211753E-03  0.17124000216E+03  0.17124000000E+03 0.  1.
       22    1    1    2    0    0 -0.14585679358E-02 -0.11632854693E-02  0.83310332128E-01  0.83331219197E-01  0.00000000000E+00 0.  1.
</event>
<event>
 5   1  0.2192208E+09  0.9118800E+02  0.7818608E-02  0.1180000E+00
       11   -1    0    0    0    0  0.00000000000E+00  0.00000000000E+00  0.10559998763E+01  0.10560000000E+01  0.51109989000E-03 0.  1.
     -623   -1    0    0    0    0  0.00000000000E+00  0.00000000000E+00  0.47855275298E-10  0.17124000000E+03  0.17124000000E+03 0.  1.
       11    1    1    2    0    0  0.34440678656E-02 -0.51649963764E-02  0.47791940219E+00  0.47795999310E+00  0.51109989000E-03 0.  1.
     -623    1    1    2    0    0  0.81315076653E-03 -0.96900406138E-03  0.88697175151E-04  0.17124000000E+03  0.17124000000E+03 0.  1.
       22    1    1    2    0    0 -0.42572186316E-02  0.61340004371E-02  0.57799177633E+00  0.57804000154E+00  0.00000000000E+00 0.  1.
</event>
<event>
 5   1  0.2192208E+09  0.9118800E+02  0.7818608E-02  0.1180000E+00
       11   -1    0    0    0    0  0.00000000000E+00  0.00000000000E+00  0.10559998763E+01  0.10560000000E+01  0.51109989000E-03 0. -1.
     -623   -1    0    0    0    0  0.00000000000E+00  0.00000000000E+00  0.47855275298E-10  0.17124000000E+03  0.17124000000E+03 0. -1.
       11    1    1    2    0    0  0.29683158750E-02 -0.80286639878E-02  0.75876966008E+00  0.75881811301E+00  0.51109989000E-03 0. -1.
     -623    1    1    2    0    0 -0.36243761669E-02  0.11565890106E-01  0.70534269795E-04  0.17124000043E+03  0.17124000000E+03 0. -1.
       22    1    1    2    0    0  0.65605959295E-03 -0.35372238881E-02  0.29715947838E+00  0.29718125439E+00  0.00000000000E+00 0. -1.
</event>
<event>
 5   1  0.2192208E+09  0.9118800E+02  0.7818608E-02  0.1180000E+00
       11   -1    0    0    0    0  0.00000000000E+00  0.00000000000E+00  0.10559998763E+01  0.10560000000E+01  0.51109989000E-03 0. -1.
     -623   -1    0    0    0    0  0.00000000000E+00  0.00000000000E+00  0.47855275298E-10  0.17124000000E+03  0.17124000000E+03 0. -1.
       11    1    1    2    0    0 -0.24323788937E-02 -0.34124247426E-02  0.75070620087E+00  0.75071807116E+00  0.51109989000E-03 0. -1.
     -623    1    1    2    0    0  0.75041011976E-03 -0.22527647906E-03  0.38056226453E-04  0.17124000000E+03  0.17124000000E+03 0. -1.
       22    1    1    2    0    0  0.16819687724E-02  0.36377012221E-02  0.30525562142E+00  0.30528192921E+00  0.00000000000E+00 0.  1.
</event>
<event>
 5   1  0.2192208E+09  0.9118800E+02  0.7818608E-02  0.1180000E+00
       11   -1    0    0    0    0  0.00000000000E+00  0.00000000000E+00  0.10559998763E+01  0.10560000000E+01  0.51109989000E-03 0. -1.
     -623   -1    0    0    0    0  0.00000000000E+00  0.00000000000E+00  0.47855275298E-10  0.17124000000E+03  0.17124000000E+03 0. -1.
       11    1    1    2    0    0 -0.76778222273E-02  0.66915153322E-02  0.60723236564E+00  0.60731798296E+00  0.51109989000E-03 0. -1.
     -623    1    1    2    0    0  0.72819914628E-02 -0.11666801617E-01  0.11380614528E-03  0.17124000055E+03  0.17124000000E+03 0. -1.
       22    1    1    2    0    0  0.39583077140E-03  0.49752862735E-02  0.44865370359E+00  0.44868146373E+00  0.00000000000E+00 0.  1.
</event>
<event>
 5   1  0.2192208E+09  0.9118800E+02  0.7818608E-02  0.1180000E+00
       11   -1    0    0    0    0  0.00000000000E+00  0.00000000000E+00  0.10559998763E+01  0.10560000000E+01  0.51109989000E-03 0.  1.
     -623   -1    0    0    0    0  0.00000000000E+00  0.00000000000E+00  0.47855275298E-10  0.17124000000E+03  0.17124000000E+03 0. -1.
       11    1    1    2    0    0 -0.23368601914E-02  0.59158301765E-01  0.10014768094E+01  0.10032254116E+01  0.51109989000E-03 0.  1.
     -623    1    1    2    0    0  0.25519729170E-02 -0.62309152244E-01  0.18544465423E-02  0.17124001137E+03  0.17124000000E+03 0. -1.
       22    1    1    2    0    0 -0.21511701682E-03  0.31509552545E-02  0.52670393018E-01  0.52764998769E-01  0.00000000000E+00 0. -1.
</event>
<event>
 5   1  0.2192208E+09  0.9118800E+02  0.7818608E-02  0.1180000E+00
       11   -1    0    0    0    0  0.00000000000E+00  0.00000000000E+00  0.10559998763E+01  0.10560000000E+01  0.51109989000E-03 0. -1.
     -623   -1    0    0    0    0  0.00000000000E+00  0.00000000000E+00  0.47855275298E-10  0.17124000000E+03  0.17124000000E+03 0.  1.
       11    1    1    2    0    0 -0.32689927802E-02 -0.60849817430E-02  0.46535452709E+00  0.46540607047E+00  0.51109989000E-03 0. -1.
     -623    1    1    2    0    0  0.57056918099E-02  0.12152377848E-01  0.88140218584E-04  0.17124000053E+03  0.17124000000E+03 0.  1.
       22    1    1    2    0    0 -0.24367002581E-02 -0.60673987212E-02  0.59055743638E+00  0.59059363060E+00  0.00000000000E+00 0. -1.
</event>
<event>
 5   1  0.2192208E+09  0.9118800E+02  0.7818608E-02  0.1180000E+00
       11   -1    0    0    0    0  0.00000000000E+00  0.00000000000E+00  0.10559998763E+01  0.10560000000E+01  0.51109989000E-03 0. -1.
     -623   -1    0    0    0    0  0.00000000000E+00  0.00000000000E+00  0.47855275298E-10  0.17124000000E+03  0.17124000000E+03 0.  1.
       11    1    1    2    0    0  0.84305662532E-03  0.25167762732E-01  0.99859993790E+00  0.99891752624E+00  0.51109989000E-03 0. -1.
     -623    1    1    2    0    0 -0.95503382392E-03 -0.26634295193E-01  0.33849136848E-03  0.17124000207E+03  0.17124000000E+03 0.  1.
       22    1    1    2    0    0  0.11197717504E-03  0.14665318043E-02  0.57061421057E-01  0.57080373400E-01  0.00000000000E+00 0. -1.
</event>
<event>
 5   1  0.2192208E+09  0.9118800E+02  0.7818608E-02  0.1180000E+00
       11   -1    0    0    0    0  0.00000000000E+00  0.00000000000E+00  0.10559998763E+01  0.10560000000E+01  0.51109989000E-03 0. -1.
     -623   -1    0    0    0    0  0.00000000000E+00  0.00000000000E+00  0.47855275298E-10  0.17124000000E+03  0.17124000000E+03 0. -1.
       11    1    1    2    0    0  0.11647953573E-02 -0.27036652123E-02  0.95971267768E+00  0.95971732894E+00  0.51109989000E-03 0. -1.
     -623    1    1    2    0    0 -0.28275545742E-02  0.11862537176E-02  0.30873420771E-04  0.17124000003E+03  0.17124000000E+03 0. -1.
       22    1    1    2    0    0  0.16627592389E-02  0.15174114855E-02  0.96256333490E-01  0.96282651827E-01  0.00000000000E+00 0.  1.
</event>
<event>
 5   1  0.2192208E+09  0.9118800E+02  0.7818608E-02  0.1180000E+00
       11   -1    0    0    0    0  0.00000000000E+00  0.00000000000E+00  0.10559998763E+01  0.10560000000E+01  0.51109989000E-03 0. -1.
     -623   -1    0    0    0    0  0.00000000000E+00  0.00000000000E+00  0.47855275298E-10  0.17124000000E+03  0.17124000000E+03 0.  1.
       11    1    1    2    0    0 -0.36560618035E-03 -0.26022222823E-02  0.96655942439E+00  0.96656313158E+00  0.51109989000E-03 0. -1.
     -623    1    1    2    0    0  0.11392023710E-03  0.16950370084E-02  0.85471814320E-05  0.17124000001E+03  0.17124000000E+03 0.  1.
       22    1    1    2    0    0  0.25168594184E-03  0.90718525280E-03  0.89431917896E-01  0.89436873097E-01  0.00000000000E+00 0. -1.
</event>
<event>
 5   1  0.2192208E+09  0.9118800E+02  0.7818608E-02  0.1180000E+00
       11   -1    0    0    0    0  0.00000000000E+00  0.00000000000E+00  0.10559998763E+01  0.10560000000E+01  0.51109989000E-03 0. -1.
     -623   -1    0    0    0    0  0.00000000000E+00  0.00000000000E+00  0.47855275298E-10  0.17124000000E+03  0.17124000000E+03 0.  1.
       11    1    1    2    0    0 -0.40024754152E-03  0.19081679737E-02  0.87615331008E+00  0.87615562847E+00  0.51109989000E-03 0. -1.
     -623    1    1    2    0    0 -0.18124729933E-03 -0.45918958396E-04  0.12776829979E-04  0.17124000000E+03  0.17124000000E+03 0.  1.
       22    1    1    2    0    0  0.58149484542E-03 -0.18622490141E-02  0.17983381614E+00  0.17984439812E+00  0.00000000000E+00 0.  1.
</event>
<event>
 5   1  0.2192208E+09  0.9118800E+02  0.7818608E-02  0.1180000E+00
       11   -1    0    0    0    0  0.00000000000E+00  0.00000000000E+00  0.10559998763E+01  0.10560000000E+01  0.51109989000E-03 0. -1.
     -623   -1    0    0    0    0  0.00000000000E+00  0.00000000000E+00  0.47855275298E-10  0.17124000000E+03  0.17124000000E+03 0.  1.
       11    1    1    2    0    0  0.13921773775E-02 -0.22411819955E-02  0.87984146085E+00  0.87984556515E+00  0.51109989000E-03 0. -1.
     -623    1    1    2    0    0  0.54269395658E-04 -0.41966713073E-05  0.24230919375E-04  0.17124000000E+03  0.17124000000E+03 0.  1.
       22    1    1    2    0    0 -0.14464467746E-02  0.22453786669E-02  0.17613421151E+00  0.17615446176E+00  0.00000000000E+00 0.  1.
</event>
<event>
 5   1  0.2192208E+09  0.9118800E+02  0.7818608E-02  0.1180000E+00
       11   -1    0    0    0    0  0.00000000000E+00  0.00000000000E+00  0.10559998763E+01  0.10560000000E+01  0.51109989000E-03 0.  1.
     -623   -1    0    0    0    0  0.00000000000E+00  0.00000000000E+00  0.47855275298E-10  0.17124000000E+03  0.17124000000E+03 0. -1.
       11    1    1    2    0    0 -0.42739197145E-02  0.57640041029E-02  0.82999725460E+00  0.83002842963E+00  0.51109989000E-03 0.  1.
     -623    1    1    2    0    0 -0.71367398279E-03  0.68785648662E-03  0.17825044789E-03  0.17124000000E+03  0.17124000000E+03 0. -1.
       22    1    1    2    0    0  0.49875936980E-02 -0.64518605902E-02  0.22582437231E+00  0.22597156840E+00  0.00000000000E+00 0. -1.
</event>
<event>
 5   1  0.2192208E+09  0.9118800E+02  0.7818608E-02  0.1180000E+00
       11   -1    0    0    0    0  0.00000000000E+00  0.00000000000E+00  0.10559998763E+01  0.10560000000E+01  0.51109989000E-03 0. -1.
     -623   -1    0    0    0    0  0.00000000000E+00  0.00000000000E+00  0.47855275298E-10  0.17124000000E+03  0.17124000000E+03 0. -1.
       11    1    1    2    0    0 -0.35220285380E-02  0.99852002954E-04  0.93549078414E+00  0.93549755911E+00  0.51109989000E-03 0. -1.
     -623    1    1    2    0    0  0.11616693828E-02 -0.15993214447E-02  0.39113357552E-04  0.17124000001E+03  0.17124000000E+03 0. -1.
       22    1    1    2    0    0  0.23603591467E-02  0.14994694535E-02  0.12046998661E+00  0.12050243722E+00  0.00000000000E+00 0. -1.
</event>
<event>
 5   1  0.2192208E+09  0.9118800E+02  0.7818608E-02  0.1180000E+00
       11   -1    0    0    0    0  0.00000000000E+00  0.00000000000E+00  0.10559998763E+01  0.10560000000E+01  0.51109989000E-03 0.  1.
     -623   -1    0    0    0    0  0.00000000000E+00  0.00000000000E+00  0.47855275298E-10  0.17124000000E+03  0.17124000000E+03 0.  1.
       11    1    1    2    0    0 -0.11723958906E-01 -0.11730911068E-01  0.99887720094E+00  0.99901500953E+00  0.51109989000E-03 0.  1.
     -623    1    1    2    0    0  0.12456699990E-01  0.12571144683E-01  0.14950627064E-03  0.17124000091E+03  0.17124000000E+03 0.  1.
       22    1    1    2    0    0 -0.73274871642E-03 -0.84024131878E-03  0.56973816122E-01  0.56984722950E-01  0.00000000000E+00 0.  1.
</event>
<event>
 5   1  0.2192208E+09  0.9118800E+02  0.7818608E-02  0.1180000E+00
       11   -1    0    0    0    0  0.00000000000E+00  0.00000000000E+00  0.10559998763E+01  0.10560000000E+01  0.51109989000E-03 0. -1.
     -623   -1    0    0    0    0  0.00000000000E+00  0.00000000000E+00  0.47855275298E-10  0.17124000000E+03  0.17124000000E+03 0.  1.
       11    1    1    2    0    0 -0.58972195977E-02 -0.19417159047E-02  0.99130842594E+00  0.99132800022E+00  0.51109989000E-03 0. -1.
     -623    1    1    2    0    0  0.63236096401E-02  0.27370585095E-02  0.25885820879E-04  0.17124000014E+03  0.17124000000E+03 0.  1.
       22    1    1    2    0    0 -0.42639006367E-03 -0.79534261400E-03  0.64665568154E-01  0.64671864694E-01  0.00000000000E+00 0.  1.
</event>
<event>
 5   1  0.2192208E+09  0.9118800E+02  0.7818608E-02  0.1180000E+00
       11   -1    0    0    0    0  0.00000000000E+00  0.00000000000E+00  0.10559998763E+01  0.10560000000E+01  0.51109989000E-03 0.  1.
     -623   -1    0    0    0    0  0.00000000000E+00  0.00000000000E+00  0.47855275298E-10  0.17124000000E+03  0.17124000000E+03 0. -1.
       11    1    1    2    0    0  0.18576149134E-02  0.23516595650E-02  0.10056095877E+01  0.10056141830E+01  0.51109989000E-03 0.  1.
     -623    1    1    2    0    0 -0.18305640313E-02 -0.29639177026E-02  0.82344422723E-05  0.17124000004E+03  0.17124000000E+03 0. -1.
       22    1    1    2    0    0 -0.27051051691E-04  0.61225786312E-03  0.50381956441E-01  0.50385683743E-01  0.00000000000E+00 0.  1.
</event>
<event>
 5   1  0.2192208E+09  0.9118800E+02  0.7818608E-02  0.1180000E+00
       11   -1    0    0    0    0  0.00000000000E+00  0.00000000000E+00  0.10559998763E+01  0.10560000000E+01  0.51109989000E-03 0.  1.
     -623   -1    0    0    0    0  0.00000000000E+00  0.00000000000E+00  0.47855275298E-10  0.17124000000E+03  0.17124000000E+03 0. -1.
       11    1    1    2    0    0 -0.18558977396E-02  0.22031665089E-02  0.97268441480E+00  0.97268881474E+00  0.51109989000E-03 0.  1.
     -623    1    1    2    0    0  0.18332956603E-02 -0.34056728755E-02  0.13001942949E-04  0.17124000004E+03  0.17124000000E+03 0. -1.
       22    1    1    2    0    0  0.22602130932E-04  0.12025062708E-02  0.83302429892E-01  0.83311111853E-01  0.00000000000E+00 0. -1.
</event>
<event>
 5   1  0.2192208E+09  0.9118800E+02  0.7818608E-02  0.1180000E+00
       11   -1    0    0    0    0  0.00000000000E+00  0.00000000000E+00  0.10559998763E+01  0.10560000000E+01  0.51109989000E-03 0.  1.
     -623   -1    0    0    0    0  0.00000000000E+00  0.00000000000E+00  0.47855275298E-10  0.17124000000E+03  0.17124000000E+03 0.  1.
       11    1    1    2    0    0  0.15581818241E-02  0.14942203291E-01  0.97928815796E+00  0.97940351997E+00  0.51109989000E-03 0.  1.
     -623    1    1    2    0    0 -0.12368695490E-02 -0.16801366166E-01  0.13930779549E-03  0.17124000083E+03  0.17124000000E+03 0.  1.
       22    1    1    2    0    0 -0.32131222522E-03  0.18591635535E-02  0.76572453250E-01  0.76595693922E-01  0.00000000000E+00 0. -1.
</event>
<event>
 5   1  0.2192208E+09  0.9118800E+02  0.7818608E-02  0.1180000E+00
       11   -1    0    0    0    0  0.00000000000E+00  0.00000000000E+00  0.10559998763E+01  0.10560000000E+01  0.51109989000E-03 0.  1.
     -623   -1    0    0    0    0  0.00000000000E+00  0.00000000000E+00  0.47855275298E-10  0.17124000000E+03  0.17124000000E+03 0.  1.
       11    1    1    2    0    0 -0.13445772422E-02 -0.88392030934E-02  0.42738346418E+00  0.42747728136E+00  0.51109989000E-03 0.  1.
     -623    1    1    2    0    0  0.53822788406E-03 -0.74983700803E-04  0.15742883578E-03  0.17124000000E+03  0.17124000000E+03 0.  1.
       22    1    1    2    0    0  0.80634935699E-03  0.89141867944E-02  0.62845898562E+00  0.62852271998E+00  0.00000000000E+00 0. -1.
</event>
<event>
 5   1  0.2192208E+09  0.9118800E+02  0.7818608E-02  0.1180000E+00
       11   -1    0    0    0    0  0.00000000000E+00  0.00000000000E+00  0.10559998763E+01  0.10560000000E+01  0.51109989000E-03 0.  1.
     -623   -1    0    0    0    0  0.00000000000E+00  0.00000000000E+00  0.47855275298E-10  0.17124000000E+03  0.17124000000E+03 0.  1.
       11    1    1    2    0    0  0.17522160523E-02 -0.12146479802E-01  0.98409115030E+00  0.98416780102E+00  0.51109989000E-03 0.  1.
     -623    1    1    2    0    0 -0.19700401508E-02  0.13171108718E-01  0.84683443817E-04  0.17124000052E+03  0.17124000000E+03 0.  1.
       22    1    1    2    0    0  0.21782774399E-03 -0.10246532882E-02  0.71825996553E-01  0.71833635186E-01  0.00000000000E+00 0. -1.
</event>
<event>
 5   1  0.2192208E+09  0.9118800E+02  0.7818608E-02  0.1180000E+00
       11   -1    0    0    0    0  0.00000000000E+00  0.00000000000E+00  0.10559998763E+01  0.10560000000E+01  0.51109989000E-03 0.  1.
     -623   -1    0    0    0    0  0.00000000000E+00  0.00000000000E+00  0.47855275298E-10  0.17124000000E+03  0.17124000000E+03 0.  1.
       11    1    1    2    0    0 -0.87693392651E-03  0.33616429011E-02  0.73999845462E+00  0.74000678627E+00  0.51109989000E-03 0.  1.
     -623    1    1    2    0    0 -0.27545582305E-03  0.19618482880E-03  0.30339564269E-04  0.17124000000E+03  0.17124000000E+03 0.  1.
       22    1    1    2    0    0  0.11523897501E-02 -0.35578277303E-02  0.31597108443E+00  0.31599321565E+00  0.00000000000E+00 0.  1.
</event>
<event>
 5   1  0.2192208E+09  0.9118800E+02  0.7818608E-02  0.1180000E+00
       11   -1    0    0    0    0  0.00000000000E+00  0.00000000000E+00  0.10559998763E+01  0.10560000000E+01  0.51109989000E-03 0. -1.
     -623   -1    0    0    0    0  0.00000000000E+00  0.00000000000E+00  0.47855275298E-10  0.17124000000E+03  0.17124000000E+03 0.  1.
       11    1    1    2    0    0 -0.80001669663E-03 -0.26560579477E-02  0.82223827651E+00  0.82224311444E+00  0.51109989000E-03 0. -1.
     -623    1    1    2    0    0 -0.78351696598E-03  0.70172990340E-04  0.24383477319E-04  0.17124000000E+03  0.17124000000E+03 0.  1.
       22    1    1    2    0    0  0.15835336633E-02  0.25858849573E-02  0.23373721729E+00  0.23375688467E+00  0.00000000000E+00 0. -1.
</event>
<event>
 5   1  0.2192208E+09  0.9118800E+02  0.7818608E-02  0.1180000E+00
       11   -1    0    0    0    0  0.00000000000E+00  0.00000000000E+00  0.10559998763E+01  0.10560000000E+01  0.51109989000E-03 0. -1.
     -623   -1    0    0    0    0  0.00000000000E+00  0.00000000000E+00  0.47855275298E-10  0.17124000000E+03  0.17124000000E+03 0.  1.
       11    1    1    2    0    0  0.28144681360E-03 -0.51560329891E-03  0.12730620790E+00  0.12730858907E+00  0.51109989000E-03 0. -1.
     -623    1    1    2    0    0 -0.68006210421E-02 -0.11379214892E-01  0.10183279470E-03  0.17124000051E+03  0.17124000000E+03 0.  1.
       22    1    1    2    0    0  0.65191742557E-02  0.11894818236E-01  0.92859183988E+00  0.92869090198E+00  0.00000000000E+00 0. -1.
</event>
<event>
 5   1  0.2192208E+09  0.9118800E+02  0.7818608E-02  0.1180000E+00
       11   -1    0    0    0    0  0.00000000000E+00  0.00000000000E+00  0.10559998763E+01  0.10560000000E+01  0.51109989000E-03 0. -1.
     -623   -1    0    0    0    0  0.00000000000E+00  0.00000000000E+00  0.47855275298E-10  0.17124000000E+03  0.17124000000E+03 0. -1.
       11    1    1    2    0    0 -0.35151898359E-01 -0.26436961455E-01  0.90600930785E+00  0.90707645544E+00  0.51109989000E-03 0. -1.
     -623    1    1    2    0    0  0.41010453272E-01  0.30838333229E-01  0.12551109574E-02  0.17124000769E+03  0.17124000000E+03 0. -1.
       22    1    1    2    0    0 -0.58586263042E-02 -0.44014254570E-02  0.14873729365E+00  0.14891769059E+00  0.00000000000E+00 0. -1.
</event>
<event>
 5   1  0.2192208E+09  0.9118800E+02  0.7818608E-02  0.1180000E+00
       11   -1    0    0    0    0  0.00000000000E+00  0.00000000000E+00  0.10559998763E+01  0.10560000000E+01  0.51109989000E-03 0.  1.
     -623   -1    0    0    0    0  0.00000000000E+00  0.00000000000E+00  0.47855275298E-10  0.17124000000E+03  0.17124000000E+03 0.  1.
       11    1    1    2    0    0  0.11375681700E-02  0.30773098800E-04  0.98599050244E+00  0.98599129161E+00  0.51109989000E-03 0.  1.
     -623    1    1    2    0    0 -0.80198480772E-03 -0.85525160330E-03  0.63289338443E-05  0.17124000000E+03  0.17124000000E+03 0.  1.
       22    1    1    2    0    0 -0.33558332696E-03  0.82447854220E-03  0.70003091527E-01  0.70008750913E-01  0.00000000000E+00 0. -1.
</event>
<event>
 5   1  0.2192208E+09  0.9118800E+02  0.7818608E-02  0.1180000E+00
       11   -1    0    0    0    0  0.00000000000E+00  0.00000000000E+00  0.10559998763E+01  0.10560000000E+01  0.51109989000E-03 0. -1.
     -623   -1    0    0    0    0  0.00000000000E+00  0.00000000000E+00  0.47855275298E-10  0.17124000000E+03  0.17124000000E+03 0. -1.
       11    1    1    2    0    0 -0.16317560003E-02 -0.46911826653E-02  0.20701451472E+00  0.20707472166E+00  0.51109989000E-03 0. -1.
     -623    1    1    2    0    0  0.93499085185E-02  0.16855268872E-01  0.18341103971E-03  0.17124000108E+03  0.17124000000E+03 0. -1.
       22    1    1    2    0    0 -0.77181530534E-02 -0.12164087172E-01  0.84880201104E+00  0.84892425390E+00  0.00000000000E+00 0. -1.
</event>
<event>
 5   1  0.2192208E+09  0.9118800E+02  0.7818608E-02  0.1180000E+00
       11   -1    0    0    0    0  0.00000000000E+00  0.00000000000E+00  0.10559998763E+01  0.10560000000E+01  0.51109989000E-03 0. -1.
     -623   -1    0    0    0    0  0.00000000000E+00  0.00000000000E+00  0.47855275298E-10  0.17124000000E+03  0.17124000000E+03 0.  1.
       11    1    1    2    0    0 -0.30273297913E-02  0.70002993631E-02  0.81573830569E+00  0.81577411917E+00  0.51109989000E-03 0. -1.
     -623    1    1    2    0    0  0.38188875939E-02 -0.96970610099E-02  0.52448543677E-04  0.17124000032E+03  0.17124000000E+03 0.  1.
       22    1    1    2    0    0 -0.79155681147E-03  0.26967591301E-02  0.24020884808E+00  0.24022528961E+00  0.00000000000E+00 0.  1.
</event>
<event>
 5   1  0.2192208E+09  0.9118800E+02  0.7818608E-02  0.1180000E+00
       11   -1    0    0    0    0  0.00000000000E+00  0.00000000000E+00  0.10559998763E+01  0.10560000000E+01  0.51109989000E-03 0. -1.
     -623   -1    0    0    0    0  0.00000000000E+00  0.00000000000E+00  0.47855275298E-10  0.17124000000E+03  0.17124000000E+03 0.  1.
       11    1    1    2    0    0 -0.23588672877E-04 -0.37348737915E-02  0.80391787372E+00  0.80392671230E+00  0.51109989000E-03 0. -1.
     -623    1    1    2    0    0  0.12528558813E-02 -0.50754881853E-03  0.47420826635E-04  0.17124000001E+03  0.17124000000E+03 0.  1.
       22    1    1    2    0    0 -0.12292672049E-02  0.42424226086E-02  0.25203457884E+00  0.25207327938E+00  0.00000000000E+00 0.  1.
</event>
<event>
 5   1  0.2192208E+09  0.9118800E+02  0.7818608E-02  0.1180000E+00
       11   -1    0    0    0    0  0.00000000000E+00  0.00000000000E+00  0.10559998763E+01  0.10560000000E+01  0.51109989000E-03 0.  1.
     -623   -1    0    0    0    0  0.00000000000E+00  0.00000000000E+00  0.47855275298E-10  0.17124000000E+03  0.17124000000E+03 0. -1.
       11    1    1    2    0    0  0.26556781024E-03  0.38522675637E-02  0.89178339726E+00  0.89179190361E+00  0.51109989000E-03 0.  1.
     -623    1    1    2    0    0  0.13041262829E-03 -0.10996984625E-02  0.31935658757E-04  0.17124000000E+03  0.17124000000E+03 0. -1.
       22    1    1    2    0    0 -0.39598043843E-03 -0.27525691021E-02  0.16418454263E+00  0.16420809199E+00  0.00000000000E+00 0.  1.
</event>
<event>
 5   1  0.2192208E+09  0.9118800E+02  0.7818608E-02  0.1180000E+00
       11   -1    0    0    0    0  0.00000000000E+00  0.00000000000E+00  0.10559998763E+01  0.10560000000E+01  0.51109989000E-03 0.  1.
     -623   -1    0    0    0    0  0.00000000000E+00  0.00000000000E+00  0.47855275298E-10  0.17124000000E+03  0.17124000000E+03 0.  1.
       11    1    1    2    0    0 -0.69451650929E-03  0.12839101511E-01  0.82614829282E+00  0.82624850247E+00  0.51109989000E-03 0.  1.
     -623    1    1    2    0    0  0.10862699515E-02 -0.16153706559E-01  0.12509653653E-03  0.17124000077E+03  0.17124000000E+03 0.  1.
       22    1    1    2    0    0 -0.39175407774E-03  0.33146144982E-02  0.22972710472E+00  0.22975134990E+00  0.00000000000E+00 0.  1.
</event>
<event>
 5   1  0.2192208E+09  0.9118800E+02  0.7818608E-02  0.1180000E+00
       11   -1    0    0    0    0  0.00000000000E+00  0.00000000000E+00  0.10559998763E+01  0.10560000000E+01  0.51109989000E-03 0.  1.
     -623   -1    0    0    0    0  0.00000000000E+00  0.00000000000E+00  0.47855275298E-10  0.17124000000E+03  0.17124000000E+03 0. -1.
       11    1    1    2    0    0 -0.56719779725E-02  0.99835119389E-02  0.88974580166E+00  0.88982003498E+00  0.51109989000E-03 0.  1.
     -623    1    1    2    0    0  0.69386338391E-02 -0.11981841446E-01  0.91512774989E-04  0.17124000056E+03  0.17124000000E+03 0. -1.
       22    1    1    2    0    0 -0.12666588394E-02  0.19983346402E-02  0.16616301431E+00  0.16617985765E+00  0.00000000000E+00 0.  1.
</event>
<event>
 5   1  0.2192208E+09  0.9118800E+02  0.7818608E-02  0.1180000E+00
       11   -1    0    0    0    0  0.00000000000E+00  0.00000000000E+00  0.10559998763E+01  0.10560000000E+01  0.51109989000E-03 0.  1.
     -623   -1    0    0    0    0  0.00000000000E+00  0.00000000000E+00  0.47855275298E-10  0.17124000000E+03  0.17124000000E+03 0. -1.
       11    1    1    2    0    0  0.33478961481E-03  0.21895665305E-04  0.30836805262E-01  0.30842865389E-01  0.51109989000E-03 0. -1.
     -623    1    1    2    0    0 -0.27543914140E-02 -0.18313550628E-01  0.17299403292E-03  0.17124000100E+03  0.17124000000E+03 0. -1.
       22    1    1    2    0    0  0.24196018270E-02  0.18291655147E-01  0.10249900877E+01  0.10251561437E+01  0.00000000000E+00 0.  1.
</event>
<event>
 5   1  0.2192208E+09  0.9118800E+02  0.7818608E-02  0.1180000E+00
       11   -1    0    0    0    0  0.00000000000E+00  0.00000000000E+00  0.10559998763E+01  0.10560000000E+01  0.51109989000E-03 0.  1.
     -623   -1    0    0    0    0  0.00000000000E+00  0.00000000000E+00  0.47855275298E-10  0.17124000000E+03  0.17124000000E+03 0. -1.
       11    1    1    2    0    0  0.68336235267E-02 -0.13354190523E-01  0.10020318527E+01  0.10021442650E+01  0.51109989000E-03 0.  1.
     -623    1    1    2    0    0 -0.73552757572E-02  0.14096914482E-01  0.12067539805E-03  0.17124000074E+03  0.17124000000E+03 0. -1.
       22    1    1    2    0    0  0.52165616458E-03 -0.74273149945E-03  0.53847913021E-01  0.53855561569E-01  0.00000000000E+00 0. -1.
</event>
<event>
 5   1  0.2192208E+09  0.9118800E+02  0.7818608E-02  0.1180000E+00
       11   -1    0    0    0    0  0.00000000000E+00  0.00000000000E+00  0.10559998763E+01  0.10560000000E+01  0.51109989000E-03 0.  1.
     -623   -1    0    0    0    0  0.00000000000E+00  0.00000000000E+00  0.47855275298E-10  0.17124000000E+03  0.17124000000E+03 0. -1.
       11    1    1    2    0    0 -0.22792111773E-02 -0.63305182367E-02  0.92175564715E+00  0.92178034506E+00  0.51109989000E-03 0.  1.
     -623    1    1    2    0    0  0.26631524778E-02  0.78916772238E-02  0.34405543230E-04  0.17124000020E+03  0.17124000000E+03 0. -1.
       22    1    1    2    0    0 -0.38394167765E-03 -0.15611601046E-02  0.13420997322E+00  0.13421960193E+00  0.00000000000E+00 0.  1.
</event>
<event>
 5   1  0.2192208E+09  0.9118800E+02  0.7818608E-02  0.1180000E+00
       11   -1    0    0    0    0  0.00000000000E+00  0.00000000000E+00  0.10559998763E+01  0.10560000000E+01  0.51109989000E-03 0. -1.
     -623   -1    0    0    0    0  0.00000000000E+00  0.00000000000E+00  0.47855275298E-10  0.17124000000E+03  0.17124000000E+03 0.  1.
       11    1    1    2    0    0 -0.11795983005E-01  0.11601729088E-01  0.87391671817E+00  0.87407347337E+00  0.51109989000E-03 0. -1.
     -623    1    1    2    0    0  0.12095140735E-01 -0.14674561835E-01  0.18388646345E-03  0.17124000106E+03  0.17124000000E+03 0.  1.
       22    1    1    2    0    0 -0.29915765551E-03  0.30728326565E-02  0.18189926523E+00  0.18192546410E+00  0.00000000000E+00 0.  1.
</event>
<event>
 5   1  0.2192208E+09  0.9118800E+02  0.7818608E-02  0.1180000E+00
       11   -1    0    0    0    0  0.00000000000E+00  0.00000000000E+00  0.10559998763E+01  0.10560000000E+01  0.51109989000E-03 0. -1.
     -623   -1    0    0    0    0  0.00000000000E+00  0.00000000000E+00  0.47855275298E-10  0.17124000000E+03  0.17124000000E+03 0.  1.
       11    1    1    2    0    0 -0.51105980484E-03 -0.80294694686E-03  0.97372556578E+00  0.97372616509E+00  0.51109989000E-03 0. -1.
     -623    1    1    2    0    0 -0.42363890127E-04 -0.35388687513E-03  0.10470972216E-04  0.17124000000E+03  0.17124000000E+03 0.  1.
       22    1    1    2    0    0  0.55342369543E-03  0.11568338259E-02  0.82263851220E-01  0.82273846147E-01  0.00000000000E+00 0. -1.
</event>
<event>
 5   1  0.2192208E+09  0.9118800E+02  0.7818608E-02  0.1180000E+00
       11   -1    0    0    0    0  0.00000000000E+00  0.00000000000E+00  0.10559998763E+01  0.10560000000E+01  0.51109989000E-03 0.  1.
     -623   -1    0    0    0    0  0.00000000000E+00  0.00000000000E+00  0.47855275298E-10  0.17124000000E+03  0.17124000000E+03 0. -1.
       11    1    1    2    0    0 -0.48762462292E-03 -0.18389602440E-02  0.95703279196E+00  0.95703481946E+00  0.51109989000E-03 0.  1.
     -623    1    1    2    0    0 -0.45174852416E-03  0.13991783466E-03  0.20949243902E-04  0.17124000000E+03  0.17124000000E+03 0. -1.
       22    1    1    2    0    0  0.93937315253E-03  0.16990424076E-02  0.98946147909E-01  0.98965192634E-01  0.00000000000E+00 0. -1.
</event>
<event>
 5   1  0.2192208E+09  0.9118800E+02  0.7818608E-02  0.1180000E+00
       11   -1    0    0    0    0  0.00000000000E+00  0.00000000000E+00  0.10559998763E+01  0.10560000000E+01  0.51109989000E-03 0. -1.
     -623   -1    0    0    0    0  0.00000000000E+00  0.00000000000E+00  0.47855275298E-10  0.17124000000E+03  0.17124000000E+03 0. -1.
       11    1    1    2    0    0 -0.13089348588E-02  0.54571953683E-02  0.31854585361E-01  0.32349190459E-01  0.51109989000E-03 0. -1.
     -623    1    1    2    0    0  0.20089336986E-02 -0.20654887656E-01  0.60880245901E-03  0.17124000126E+03  0.17124000000E+03 0. -1.
       22    1    1    2    0    0 -0.69999884143E-03  0.15197692305E-01  0.10235364894E+01  0.10236495519E+01  0.00000000000E+00 0. -1.
</event>
<event>
 5   1  0.2192208E+09  0.9118800E+02  0.7818608E-02  0.1180000E+00
       11   -1    0    0    0    0  0.00000000000E+00  0.00000000000E+00  0.10559998763E+01  0.10560000000E+01  0.51109989000E-03 0. -1.
     -623   -1    0    0    0    0  0.00000000000E+00  0.00000000000E+00  0.47855275298E-10  0.17124000000E+03  0.17124000000E+03 0. -1.
       11    1    1    2    0    0  0.43868346006E-03 -0.44713239546E-02  0.78811563207E+00  0.78812860367E+00  0.51109989000E-03 0. -1.
     -623    1    1    2    0    0  0.11359169971E-02 -0.96078311603E-04  0.56421976535E-04  0.17124000000E+03  0.17124000000E+03 0. -1.
       22    1    1    2    0    0 -0.15746004677E-02  0.45674022671E-02  0.26782783212E+00  0.26787140234E+00  0.00000000000E+00 0. -1.
</event>
<event>
 5   1  0.2192208E+09  0.9118800E+02  0.7818608E-02  0.1180000E+00
       11   -1    0    0    0    0  0.00000000000E+00  0.00000000000E+00  0.10559998763E+01  0.10560000000E+01  0.51109989000E-03 0. -1.
     -623   -1    0    0    0    0  0.00000000000E+00  0.00000000000E+00  0.47855275298E-10  0.17124000000E+03  0.17124000000E+03 0. -1.
       11    1    1    2    0    0  0.23700975278E-01  0.42638049179E-02  0.61531495633E+00  0.61578622343E+00  0.51109989000E-03 0. -1.
     -623    1    1    2    0    0 -0.42364269306E-01 -0.88348357865E-02  0.89617559758E-03  0.17124000547E+03  0.17124000000E+03 0. -1.
       22    1    1    2    0    0  0.18663299926E-01  0.45710320988E-02  0.43978889135E+00  0.44020845295E+00  0.00000000000E+00 0. -1.
</event>
<event>
 5   1  0.2192208E+09  0.9118800E+02  0.7818608E-02  0.1180000E+00
       11   -1    0    0    0    0  0.00000000000E+00  0.00000000000E+00  0.10559998763E+01  0.10560000000E+01  0.51109989000E-03 0.  1.
     -623   -1    0    0    0    0  0.00000000000E+00  0.00000000000E+00  0.47855275298E-10  0.17124000000E+03  0.17124000000E+03 0. -1.
       11    1    1    2    0    0  0.10536269559E-02  0.18736328993E-02  0.94967565519E+00  0.94967822546E+00  0.51109989000E-03 0.  1.
     -623    1    1    2    0    0  0.80934914546E-04 -0.22272879919E-04  0.24621119771E-04  0.17124000000E+03  0.17124000000E+03 0. -1.
       22    1    1    2    0    0 -0.11345618698E-02 -0.18513600196E-02  0.10629959134E+00  0.10632176580E+00  0.00000000000E+00 0.  1.
</event>
<event>
 5   1  0.2192208E+09  0.9118800E+02  0.7818608E-02  0.1180000E+00
       11   -1    0    0    0    0  0.00000000000E+00  0.00000000000E+00  0.10559998763E+01  0.10560000000E+01  0.51109989000E-03 0.  1.
     -623   -1    0    0    0    0  0.00000000000E+00  0.00000000000E+00  0.47855275298E-10  0.17124000000E+03  0.17124000000E+03 0.  1.
       11    1    1    2    0    0  0.19470306425E-02  0.87809990561E-02  0.74440191372E+00  0.74445642400E+00  0.51109989000E-03 0.  1.
     -623    1    1    2    0    0 -0.64367770683E-02 -0.18035521303E-01  0.22531054803E-03  0.17124000107E+03  0.17124000000E+03 0.  1.
       22    1    1    2    0    0  0.44897464412E-02  0.92545222903E-02  0.31137265464E+00  0.31154250764E+00  0.00000000000E+00 0.  1.
</event>
<event>
 5   1  0.2192208E+09  0.9118800E+02  0.7818608E-02  0.1180000E+00
       11   -1    0    0    0    0  0.00000000000E+00  0.00000000000E+00  0.10559998763E+01  0.10560000000E+01  0.51109989000E-03 0.  1.
     -623   -1    0    0    0    0  0.00000000000E+00  0.00000000000E+00  0.47855275298E-10  0.17124000000E+03  0.17124000000E+03 0.  1.
       11    1    1    2    0    0  0.12289453198E-01 -0.32580183348E-01  0.94804510183E+00  0.94868449726E+00  0.51109989000E-03 0.  1.
     -623    1    1    2    0    0 -0.13565415766E-01  0.36688457975E-01  0.73000160779E-03  0.17124000447E+03  0.17124000000E+03 0.  1.
       22    1    1    2    0    0  0.12759619383E-02 -0.41082729224E-02  0.10722472390E+00  0.10731098453E+00  0.00000000000E+00 0.  1.
</event>
<event>
 5   1  0.1485653E+10  0.9118800E+02  0.7818608E-02  0.1180000E+00
       11   -1    0    0    0    0  0.00000000000E+00  0.00000000000E+00  0.10559998763E+01  0.10560000000E+01  0.51109989000E-03 0.  1.
     -623   -1    0    0    0    0  0.00000000000E+00  0.00000000000E+00  0.47855275298E-10  0.17124000000E+03  0.17124000000E+03 0. -1.
       11    1    1    2    0    0 -0.32381889034E-01  0.65679709662E-01  0.94292642478E+00  0.94576578220E+00  0.51109989000E-03 0.  1.
     -623    1    1    2    0    0  0.35973992881E-01 -0.73269480959E-01  0.31790483723E-02  0.17124001948E+03  0.17124000000E+03 0. -1.
       22    1    1    2    0    0 -0.35921078766E-02  0.75897795044E-02  0.10989452114E+00  0.11021485276E+00  0.00000000000E+00 0. -1.
</event>
<event>
 5   1  0.2192208E+09  0.9118800E+02  0.7818608E-02  0.1180000E+00
       11   -1    0    0    0    0  0.00000000000E+00  0.00000000000E+00  0.10559998763E+01  0.10560000000E+01  0.51109989000E-03 0. -1.
     -623   -1    0    0    0    0  0.00000000000E+00  0.00000000000E+00  0.47855275298E-10  0.17124000000E+03  0.17124000000E+03 0. -1.
       11    1    1    2    0    0  0.62330027421E-03 -0.33286776324E-02  0.96300378059E+00  0.96300987080E+00  0.51109989000E-03 0. -1.
     -623    1    1    2    0    0 -0.10795736000E-02  0.16485643239E-02  0.22276587897E-04  0.17124000001E+03  0.17124000000E+03 0. -1.
       22    1    1    2    0    0  0.45627331902E-03  0.16801133188E-02  0.92973812595E-01  0.92990111273E-01  0.00000000000E+00 0. -1.
</event>
<event>
 5   1  0.2192208E+09  0.9118800E+02  0.7818608E-02  0.1180000E+00
       11   -1    0    0    0    0  0.00000000000E+00  0.00000000000E+00  0.10559998763E+01  0.10560000000E+01  0.51109989000E-03 0.  1.
     -623   -1    0    0    0    0  0.00000000000E+00  0.00000000000E+00  0.47855275298E-10  0.17124000000E+03  0.17124000000E+03 0. -1.
       11    1    1    2    0    0  0.10333030319E-02  0.51719063976E-03  0.10011306074E+01  0.10011314047E+01  0.51109989000E-03 0.  1.
     -623    1    1    2    0    0  0.38761678024E-03 -0.14362128015E-02  0.26781545945E-04  0.17124000001E+03  0.17124000000E+03 0. -1.
       22    1    1    2    0    0 -0.14209198207E-02  0.91902219356E-03  0.54842510815E-01  0.54868612225E-01  0.00000000000E+00 0. -1.
</event>
<event>
 5   1  0.2192208E+09  0.9118800E+02  0.7818608E-02  0.1180000E+00
       11   -1    0    0    0    0  0.00000000000E+00  0.00000000000E+00  0.10559998763E+01  0.10560000000E+01  0.51109989000E-03 0. -1.
     -623   -1    0    0    0    0  0.00000000000E+00  0.00000000000E+00  0.47855275298E-10  0.17124000000E+03  0.17124000000E+03 0.  1.
       11    1    1    2    0    0 -0.21507549966E-02 -0.55964868293E-02  0.89226987684E+00  0.89229016623E+00  0.51109989000E-03 0. -1.
     -623    1    1    2    0    0 -0.13831953789E-03  0.93607653994E-04  0.12869118779E-03  0.17124000000E+03  0.17124000000E+03 0.  1.
       22    1    1    2    0    0  0.22890745346E-02  0.55028791753E-02  0.16360130846E+00  0.16370983376E+00  0.00000000000E+00 0. -1.
</event>
<event>
 5   1  0.2192208E+09  0.9118800E+02  0.7818608E-02  0.1180000E+00
       11   -1    0    0    0    0  0.00000000000E+00  0.00000000000E+00  0.10559998763E+01  0.10560000000E+01  0.51109989000E-03 0. -1.
     -623   -1    0    0    0    0  0.00000000000E+00  0.00000000000E+00  0.47855275298E-10  0.17124000000E+03  0.17124000000E+03 0. -1.
       11    1    1    2    0    0 -0.53161704059E-02 -0.81641059857E-02  0.41080200058E+00  0.41091782536E+00  0.51109989000E-03 0. -1.
     -623    1    1    2    0    0 -0.27976996915E-02  0.85090896428E-03  0.20821545925E-03  0.17124000003E+03  0.17124000000E+03 0. -1.
       22    1    1    2    0    0  0.81138701020E-02  0.73131970200E-02  0.64498966209E+00  0.64508215131E+00  0.00000000000E+00 0. -1.
</event>
<event>
 5   1  0.2192208E+09  0.9118800E+02  0.7818608E-02  0.1180000E+00
       11   -1    0    0    0    0  0.00000000000E+00  0.00000000000E+00  0.10559998763E+01  0.10560000000E+01  0.51109989000E-03 0. -1.
     -623   -1    0    0    0    0  0.00000000000E+00  0.00000000000E+00  0.47855275298E-10  0.17124000000E+03  0.17124000000E+03 0.  1.
       11    1    1    2    0    0  0.69244387364E-02  0.17857168506E-01  0.96263280790E+00  0.96282345754E+00  0.51109989000E-03 0. -1.
     -623    1    1    2    0    0 -0.72963783400E-02 -0.19117599531E-01  0.20101680358E-03  0.17124000122E+03  0.17124000000E+03 0.  1.
       22    1    1    2    0    0  0.37193977021E-03  0.12604314616E-02  0.93166075764E-01  0.93175343841E-01  0.00000000000E+00 0.  1.
</event>
<event>
 5   1  0.2192208E+09  0.9118800E+02  0.7818608E-02  0.1180000E+00
       11   -1    0    0    0    0  0.00000000000E+00  0.00000000000E+00  0.10559998763E+01  0.10560000000E+01  0.51109989000E-03 0. -1.
     -623   -1    0    0    0    0  0.00000000000E+00  0.00000000000E+00  0.47855275298E-10  0.17124000000E+03  0.17124000000E+03 0.  1.
       11    1    1    2    0    0  0.24214145490E-02  0.23706499321E-02  0.82732757370E+00  0.82733467150E+00  0.51109989000E-03 0. -1.
     -623    1    1    2    0    0 -0.43438124233E-02 -0.51734234466E-02  0.32366581433E-04  0.17124000013E+03  0.17124000000E+03 0.  1.
       22    1    1    2    0    0  0.19223981285E-02  0.28027738172E-02  0.22863999787E+00  0.22866525705E+00  0.00000000000E+00 0. -1.
</event>
<event>
 5   1  0.2192208E+09  0.9118800E+02  0.7818608E-02  0.1180000E+00
       11   -1    0    0    0    0  0.00000000000E+00  0.00000000000E+00  0.10559998763E+01  0.10560000000E+01  0.51109989000E-03 0.  1.
     -623   -1    0    0    0    0  0.00000000000E+00  0.00000000000E+00  0.47855275298E-10  0.17124000000E+03  0.17124000000E+03 0. -1.
       11    1    1    2    0    0 -0.25878624907E-02 -0.20885418817E-02  0.76528590317E+00  0.76529329923E+00  0.51109989000E-03 0.  1.
     -623    1    1    2    0    0  0.66512542805E-04 -0.17365191529E-02  0.43382243069E-04  0.17124000001E+03  0.17124000000E+03 0. -1.
       22    1    1    2    0    0  0.25213499473E-02  0.38250610499E-02  0.29067060028E+00  0.29070670127E+00  0.00000000000E+00 0. -1.
</event>
<event>
 5   1  0.2192208E+09  0.9118800E+02  0.7818608E-02  0.1180000E+00
       11   -1    0    0    0    0  0.00000000000E+00  0.00000000000E+00  0.10559998763E+01  0.10560000000E+01  0.51109989000E-03 0.  1.
     -623   -1    0    0    0    0  0.00000000000E+00  0.00000000000E+00  0.47855275298E-10  0.17124000000E+03  0.17124000000E+03 0. -1.
       11    1    1    2    0    0  0.23363656172E-02 -0.37431205114E-02  0.76788467302E+00  0.76789752040E+00  0.51109989000E-03 0.  1.
     -623    1    1    2    0    0 -0.16033763891E-03  0.22124201071E-04  0.44972682702E-04  0.17124000000E+03  0.17124000000E+03 0. -1.
       22    1    1    2    0    0 -0.21760279778E-02  0.37209963103E-02  0.28807023388E+00  0.28810248274E+00  0.00000000000E+00 0. -1.
</event>
<event>
 5   1  0.2192208E+09  0.9118800E+02  0.7818608E-02  0.1180000E+00
       11   -1    0    0    0    0  0.00000000000E+00  0.00000000000E+00  0.10559998763E+01  0.10560000000E+01  0.51109989000E-03 0.  1.
     -623   -1    0    0    0    0  0.00000000000E+00  0.00000000000E+00  0.47855275298E-10  0.17124000000E+03  0.17124000000E+03 0. -1.
       11    1    1    2    0    0 -0.25546777255E-02  0.39610466845E-02  0.70572760640E+00  0.70574353127E+00  0.51109989000E-03 0.  1.
     -623    1    1    2    0    0  0.51427843371E-03 -0.12679961594E-03  0.42732900484E-04  0.17124000000E+03  0.17124000000E+03 0. -1.
       22    1    1    2    0    0  0.20403992902E-02 -0.38342470681E-02  0.35022954042E+00  0.35025647127E+00  0.00000000000E+00 0.  1.
</event>
<event>
 5   1  0.2192208E+09  0.9118800E+02  0.7818608E-02  0.1180000E+00
       11   -1    0    0    0    0  0.00000000000E+00  0.00000000000E+00  0.10559998763E+01  0.10560000000E+01  0.51109989000E-03 0.  1.
     -623   -1    0    0    0    0  0.00000000000E+00  0.00000000000E+00  0.47855275298E-10  0.17124000000E+03  0.17124000000E+03 0. -1.
       11    1    1    2    0    0  0.12863898303E-01 -0.12150479167E-01  0.96572265348E+00  0.96588488894E+00  0.51109989000E-03 0.  1.
     -623    1    1    2    0    0 -0.13636951227E-01  0.13145475886E-01  0.17196890713E-03  0.17124000105E+03  0.17124000000E+03 0. -1.
       22    1    1    2    0    0  0.77305354242E-03 -0.99499731488E-03  0.90105301827E-01  0.90114111263E-01  0.00000000000E+00 0.  1.
</event>
<event>
 5   1  0.2192208E+09  0.9118800E+02  0.7818608E-02  0.1180000E+00
       11   -1    0    0    0    0  0.00000000000E+00  0.00000000000E+00  0.10559998763E+01  0.10560000000E+01  0.51109989000E-03 0. -1.
     -623   -1    0    0    0    0  0.00000000000E+00  0.00000000000E+00  0.47855275298E-10  0.17124000000E+03  0.17124000000E+03 0. -1.
       11    1    1    2    0    0  0.61924866276E-02 -0.91077936885E-02  0.36140182069E+00  0.36156996006E+00  0.51109989000E-03 0. -1.
     -623    1    1    2    0    0 -0.37268912471E-02  0.18485446316E-02  0.21038718369E-03  0.17124000005E+03  0.17124000000E+03 0. -1.
       22    1    1    2    0    0 -0.24655953783E-02  0.72592490558E-02  0.69438766911E+00  0.69442998990E+00  0.00000000000E+00 0. -1.
</event>
<event>
 5   1  0.2192208E+09  0.9118800E+02  0.7818608E-02  0.1180000E+00
       11   -1    0    0    0    0  0.00000000000E+00  0.00000000000E+00  0.10559998763E+01  0.10560000000E+01  0.51109989000E-03 0.  1.
     -623   -1    0    0    0    0  0.00000000000E+00  0.00000000000E+00  0.47855275298E-10  0.17124000000E+03  0.17124000000E+03 0. -1.
       11    1    1    2    0    0 -0.20250644360E-02  0.98616402172E-02  0.97277794978E+00  0.97283017718E+00  0.51109989000E-03 0.  1.
     -623    1    1    2    0    0  0.25575727402E-02 -0.11220705088E-01  0.65300409963E-04  0.17124000039E+03  0.17124000000E+03 0. -1.
       22    1    1    2    0    0 -0.53250874237E-03  0.13590667927E-02  0.83156807073E-01  0.83169616992E-01  0.00000000000E+00 0.  1.
</event>
<event>
 5   1  0.2192208E+09  0.9118800E+02  0.7818608E-02  0.1180000E+00
       11   -1    0    0    0    0  0.00000000000E+00  0.00000000000E+00  0.10559998763E+01  0.10560000000E+01  0.51109989000E-03 0.  1.
     -623   -1    0    0    0    0  0.00000000000E+00  0.00000000000E+00  0.47855275298E-10  0.17124000000E+03  0.17124000000E+03 0.  1.
       11    1    1    2    0    0  0.22875709647E-02  0.70431517090E-02  0.91895414978E+00  0.91898412913E+00  0.51109989000E-03 0.  1.
     -623    1    1    2    0    0 -0.25275335563E-02 -0.84361586504E-02  0.37373690872E-04  0.17124000023E+03  0.17124000000E+03 0.  1.
       22    1    1    2    0    0  0.23996053092E-03  0.13930000635E-02  0.13700749198E+00  0.13701478347E+00  0.00000000000E+00 0. -1.
</event>
<event>
 5   1  0.2192208E+09  0.9118800E+02  0.7818608E-02  0.1180000E+00
       11   -1    0    0    0    0  0.00000000000E+00  0.00000000000E+00  0.10559998763E+01  0.10560000000E+01  0.51109989000E-03 0.  1.
     -623   -1    0    0    0    0  0.00000000000E+00  0.00000000000E+00  0.47855275298E-10  0.17124000000E+03  0.17124000000E+03 0. -1.
       11    1    1    2    0    0  0.16367080707E-03 -0.20335213281E-02  0.90779897196E+00  0.90780140819E+00  0.51109989000E-03 0.  1.
     -623    1    1    2    0    0 -0.41137833277E-03 -0.19640482943E-02  0.56457306542E-04  0.17124000001E+03  0.17124000000E+03 0. -1.
       22    1    1    2    0    0  0.24770752808E-03  0.39975696337E-02  0.14814445319E+00  0.14819858613E+00  0.00000000000E+00 0.  1.
</event>
<event>
 5   1  0.2192208E+09  0.9118800E+02  0.7818608E-02  0.1180000E+00
       11   -1    0    0    0    0  0.00000000000E+00  0.00000000000E+00  0.10559998763E+01  0.10560000000E+01  0.51109989000E-03 0. -1.
     -623   -1    0    0    0    0  0.00000000000E+00  0.00000000000E+00  0.47855275298E-10  0.17124000000E+03  0.17124000000E+03 0.  1.
       11    1    1    2    0    0  0.21852046822E-02 -0.76524404271E-03  0.38448859236E+00  0.38449590322E+00  0.51109989000E-03 0. -1.
     -623    1    1    2    0    0 -0.85045820213E-02 -0.12661745460E-01  0.17186092053E-03  0.17124000068E+03  0.17124000000E+03 0.  1.
       22    1    1    2    0    0  0.63193773320E-02  0.13426989492E-01  0.67133942220E+00  0.67150341650E+00  0.00000000000E+00 0. -1.
</event>
<event>
 5   1  0.2192208E+09  0.9118800E+02  0.7818608E-02  0.1180000E+00
       11   -1    0    0    0    0  0.00000000000E+00  0.00000000000E+00  0.10559998763E+01  0.10560000000E+01  0.51109989000E-03 0.  1.
     -623   -1    0    0    0    0  0.00000000000E+00  0.00000000000E+00  0.47855275298E-10  0.17124000000E+03  0.17124000000E+03 0. -1.
       11    1    1    2    0    0  0.15467638446E-02  0.48434363050E-02  0.40470480440E+00  0.40473706438E+00  0.51109989000E-03 0.  1.
     -623    1    1    2    0    0 -0.12525714505E-02 -0.18083595729E-01  0.16776247862E-03  0.17124000096E+03  0.17124000000E+03 0. -1.
       22    1    1    2    0    0 -0.29419240819E-03  0.13240159222E-01  0.65112729767E+00  0.65126196429E+00  0.00000000000E+00 0.  1.
</event>
<event>
 5   1  0.2192208E+09  0.9118800E+02  0.7818608E-02  0.1180000E+00
       11   -1    0    0    0    0  0.00000000000E+00  0.00000000000E+00  0.10559998763E+01  0.10560000000E+01  0.51109989000E-03 0.  1.
     -623   -1    0    0    0    0  0.00000000000E+00  0.00000000000E+00  0.47855275298E-10  0.17124000000E+03  0.17124000000E+03 0.  1.
       11    1    1    2    0    0 -0.17907735772E-01 -0.99851475315E-02  0.98569537303E+00  0.98590872793E+00  0.51109989000E-03 0.  1.
     -623    1    1    2    0    0  0.19122076806E-01  0.10760964145E-01  0.22945200063E-03  0.17124000141E+03  0.17124000000E+03 0.  1.
       22    1    1    2    0    0 -0.12143418265E-02 -0.77581706002E-03  0.70075095103E-01  0.70089909914E-01  0.00000000000E+00 0.  1.
</event>
<event>
 5   1  0.2192208E+09  0.9118800E+02  0.7818608E-02  0.1180000E+00
       11   -1    0    0    0    0  0.00000000000E+00  0.00000000000E+00  0.10559998763E+01  0.10560000000E+01  0.51109989000E-03 0. -1.
     -623   -1    0    0    0    0  0.00000000000E+00  0.00000000000E+00  0.47855275298E-10  0.17124000000E+03  0.17124000000E+03 0.  1.
       11    1    1    2    0    0 -0.21826964586E-02 -0.12227647114E-01  0.83172860188E+00  0.83182150004E+00  0.51109989000E-03 0. -1.
     -623    1    1    2    0    0  0.31094264647E-02  0.15582627549E-01  0.12053377037E-03  0.17124000074E+03  0.17124000000E+03 0.  1.
       22    1    1    2    0    0 -0.92673213064E-03 -0.33549910817E-02  0.22415146215E+00  0.22417848421E+00  0.00000000000E+00 0. -1.
</event>
<event>
 5   1  0.2192208E+09  0.9118800E+02  0.7818608E-02  0.1180000E+00
       11   -1    0    0    0    0  0.00000000000E+00  0.00000000000E+00  0.10559998763E+01  0.10560000000E+01  0.51109989000E-03 0.  1.
     -623   -1    0    0    0    0  0.00000000000E+00  0.00000000000E+00  0.47855275298E-10  0.17124000000E+03  0.17124000000E+03 0.  1.
       11    1    1    2    0    0  0.11268370720E-01 -0.13755939530E-01  0.97026060273E+00  0.97042367061E+00  0.51109989000E-03 0.  1.
     -623    1    1    2    0    0 -0.12355337024E-01  0.15050002822E-01  0.18074069122E-03  0.17124000111E+03  0.17124000000E+03 0.  1.
       22    1    1    2    0    0  0.10869711898E-02 -0.12940692427E-02  0.85558950391E-01  0.85575639721E-01  0.00000000000E+00 0.  1.
</event>
<event>
 5   1  0.2192208E+09  0.9118800E+02  0.7818608E-02  0.1180000E+00
       11   -1    0    0    0    0  0.00000000000E+00  0.00000000000E+00  0.10559998763E+01  0.10560000000E+01  0.51109989000E-03 0.  1.
     -623   -1    0    0    0    0  0.00000000000E+00  0.00000000000E+00  0.47855275298E-10  0.17124000000E+03  0.17124000000E+03 0.  1.
       11    1    1    2    0    0  0.93749536735E-02 -0.42758162103E-02  0.93039717092E+00  0.93045436710E+00  0.51109989000E-03 0.  1.
     -623    1    1    2    0    0 -0.97662298570E-02  0.66285383454E-02  0.80136165701E-04  0.17124000041E+03  0.17124000000E+03 0.  1.
       22    1    1    2    0    0  0.39127604158E-03 -0.23527220388E-02  0.12552255393E+00  0.12554521076E+00  0.00000000000E+00 0.  1.
</event>
<event>
 5   1  0.2192208E+09  0.9118800E+02  0.7818608E-02  0.1180000E+00
       11   -1    0    0    0    0  0.00000000000E+00  0.00000000000E+00  0.10559998763E+01  0.10560000000E+01  0.51109989000E-03 0. -1.
     -623   -1    0    0    0    0  0.00000000000E+00  0.00000000000E+00  0.47855275298E-10  0.17124000000E+03  0.17124000000E+03 0.  1.
       11    1    1    2    0    0  0.36546164369E-02  0.31324795169E-02  0.38865026758E+00  0.38868040902E+00  0.51109989000E-03 0. -1.
     -623    1    1    2    0    0 -0.11179541077E-01 -0.10308713420E-01  0.11171084970E-03  0.17124000068E+03  0.17124000000E+03 0.  1.
       22    1    1    2    0    0  0.75249252496E-02  0.71762344651E-02  0.66723795548E+00  0.66731897326E+00  0.00000000000E+00 0. -1.
</event>
<event>
 5   1  0.2192208E+09  0.9118800E+02  0.7818608E-02  0.1180000E+00
       11   -1    0    0    0    0  0.00000000000E+00  0.00000000000E+00  0.10559998763E+01  0.10560000000E+01  0.51109989000E-03 0. -1.
     -623   -1    0    0    0    0  0.00000000000E+00  0.00000000000E+00  0.47855275298E-10  0.17124000000E+03  0.17124000000E+03 0.  1.
       11    1    1    2    0    0 -0.38521445410E-01 -0.17631153806E-01  0.95742626222E+00  0.95836322350E+00  0.51109989000E-03 0. -1.
     -623    1    1    2    0    0  0.42325959041E-01  0.19344220191E-01  0.10323622638E-02  0.17124000633E+03  0.17124000000E+03 0.  1.
       22    1    1    2    0    0 -0.38045815956E-02 -0.17130974465E-02  0.97542945872E-01  0.97632145492E-01  0.00000000000E+00 0. -1.
</event>
<event>
 5   1  0.2192208E+09  0.9118800E+02  0.7818608E-02  0.1180000E+00
       11   -1    0    0    0    0  0.00000000000E+00  0.00000000000E+00  0.10559998763E+01  0.10560000000E+01  0.51109989000E-03 0. -1.
     -623   -1    0    0    0    0  0.00000000000E+00  0.00000000000E+00  0.47855275298E-10  0.17124000000E+03  0.17124000000E+03 0.  1.
       11    1    1    2    0    0 -0.23713399276E-02 -0.15803850860E-01  0.96894099485E+00  0.96907290627E+00  0.51109989000E-03 0. -1.
     -623    1    1    2    0    0  0.19412866583E-02  0.17913643556E-01  0.15940724557E-03  0.17124000095E+03  0.17124000000E+03 0.  1.
       22    1    1    2    0    0  0.43005334344E-03 -0.21097920123E-02  0.86899433951E-01  0.86926105338E-01  0.00000000000E+00 0.  1.
</event>
<event>
 5   1  0.2192208E+09  0.9118800E+02  0.7818608E-02  0.1180000E+00
       11   -1    0    0    0    0  0.00000000000E+00  0.00000000000E+00  0.10559998763E+01  0.10560000000E+01  0.51109989000E-03 0. -1.
     -623   -1    0    0    0    0  0.00000000000E+00  0.00000000000E+00  0.47855275298E-10  0.17124000000E+03  0.17124000000E+03 0. -1.
       11    1    1    2    0    0 -0.38986002204E-02  0.16642954477E-02  0.47763162169E+00  0.47765070525E+00  0.51109989000E-03 0. -1.
     -623    1    1    2    0    0  0.45842487703E-02 -0.10753177634E-01  0.91186732164E-04  0.17124000040E+03  0.17124000000E+03 0. -1.
       22    1    1    2    0    0 -0.68564850253E-03  0.90888820750E-02  0.57827705703E+00  0.57834888482E+00  0.00000000000E+00 0. -1.
</event>
<event>
 5   1  0.2192208E+09  0.9118800E+02  0.7818608E-02  0.1180000E+00
       11   -1    0    0    0    0  0.00000000000E+00  0.00000000000E+00  0.10559998763E+01  0.10560000000E+01  0.51109989000E-03 0.  1.
     -623   -1    0    0    0    0  0.00000000000E+00  0.00000000000E+00  0.47855275298E-10  0.17124000000E+03  0.17124000000E+03 0.  1.
       11    1    1    2    0    0  0.33737845961E-02 -0.28875607386E-01  0.10047494181E+01  0.10051700540E+01  0.51109989000E-03 0.  1.
     -623    1    1    2    0    0 -0.35869643763E-02  0.30196772958E-01  0.44083371714E-03  0.17124000270E+03  0.17124000000E+03 0.  1.
       22    1    1    2    0    0  0.21317984496E-03 -0.13211661179E-02  0.50809643613E-01  0.50827264432E-01  0.00000000000E+00 0.  1.
</event>
<event>
 5   1  0.2192208E+09  0.9118800E+02  0.7818608E-02  0.1180000E+00
       11   -1    0    0    0    0  0.00000000000E+00  0.00000000000E+00  0.10559998763E+01  0.10560000000E+01  0.51109989000E-03 0.  1.
     -623   -1    0    0    0    0  0.00000000000E+00  0.00000000000E+00  0.47855275298E-10  0.17124000000E+03  0.17124000000E+03 0.  1.
       11    1    1    2    0    0  0.61065067052E-03  0.14743985926E-02  0.97585170214E+00  0.97585314086E+00  0.51109989000E-03 0.  1.
     -623    1    1    2    0    0 -0.31676019131E-04 -0.60491179707E-04  0.15879353994E-04  0.17124000000E+03  0.17124000000E+03 0.  1.
       22    1    1    2    0    0 -0.57897465132E-03 -0.14139074128E-02  0.80132297136E-01  0.80146861387E-01  0.00000000000E+00 0. -1.
</event>
<event>
 5   1  0.2192208E+09  0.9118800E+02  0.7818608E-02  0.1180000E+00
       11   -1    0    0    0    0  0.00000000000E+00  0.00000000000E+00  0.10559998763E+01  0.10560000000E+01  0.51109989000E-03 0. -1.
     -623   -1    0    0    0    0  0.00000000000E+00  0.00000000000E+00  0.47855275298E-10  0.17124000000E+03  0.17124000000E+03 0. -1.
       11    1    1    2    0    0 -0.49210860791E-05 -0.28734668228E-02  0.99244099120E+00  0.99244528265E+00  0.51109989000E-03 0. -1.
     -623    1    1    2    0    0  0.46097886943E-03  0.82716181655E-03  0.38759134092E-04  0.17124000000E+03  0.17124000000E+03 0. -1.
       22    1    1    2    0    0 -0.45605778760E-03  0.20463049986E-02  0.63520135768E-01  0.63554724457E-01  0.00000000000E+00 0. -1.
</event>
<event>
 5   1  0.2192208E+09  0.9118800E+02  0.7818608E-02  0.1180000E+00
       11   -1    0    0    0    0  0.00000000000E+00  0.00000000000E+00  0.10559998763E+01  0.10560000000E+01  0.51109989000E-03 0. -1.
     -623   -1    0    0    0    0  0.00000000000E+00  0.00000000000E+00  0.47855275298E-10  0.17124000000E+03  0.17124000000E+03 0. -1.
       11    1    1    2    0    0 -0.62414599696E-02  0.24734827928E-01  0.58077593258E+00  0.58133614426E+00  0.51109989000E-03 0. -1.
     -623    1    1    2    0    0  0.57912831752E-02 -0.64606348884E-02  0.91242570377E-03  0.17124000022E+03  0.17124000000E+03 0. -1.
       22    1    1    2    0    0  0.45017679089E-03 -0.18274193036E-01  0.47431151873E+00  0.47466363415E+00  0.00000000000E+00 0. -1.
</event>
<event>
 5   1  0.2192208E+09  0.9118800E+02  0.7818608E-02  0.1180000E+00
       11   -1    0    0    0    0  0.00000000000E+00  0.00000000000E+00  0.10559998763E+01  0.10560000000E+01  0.51109989000E-03 0. -1.
     -623   -1    0    0    0    0  0.00000000000E+00  0.00000000000E+00  0.47855275298E-10  0.17124000000E+03  0.17124000000E+03 0. -1.
       11    1    1    2    0    0 -0.84614254009E-03  0.46718855466E-02  0.91304657345E+00  0.91305906106E+00  0.51109989000E-03 0. -1.
     -623    1    1    2    0    0 -0.16387767827E-03  0.15492112063E-03  0.97453291771E-04  0.17124000000E+03  0.17124000000E+03 0. -1.
       22    1    1    2    0    0  0.10100202182E-02 -0.48268066671E-02  0.14285584857E+00  0.14294093771E+00  0.00000000000E+00 0. -1.
</event>
<event>
 5   1  0.2192208E+09  0.9118800E+02  0.7818608E-02  0.1180000E+00
       11   -1    0    0    0    0  0.00000000000E+00  0.00000000000E+00  0.10559998763E+01  0.10560000000E+01  0.51109989000E-03 0.  1.
     -623   -1    0    0    0    0  0.00000000000E+00  0.00000000000E+00  0.47855275298E-10  0.17124000000E+03  0.17124000000E+03 0.  1.
       11    1    1    2    0    0  0.65611975568E-02  0.65531443874E-02  0.55187069227E+00  0.55194883388E+00  0.51109989000E-03 0.  1.
     -623    1    1    2    0    0 -0.12160539354E-01 -0.14202875925E-01  0.16819562309E-03  0.17124000102E+03  0.17124000000E+03 0.  1.
       22    1    1    2    0    0  0.55993429197E-02  0.76497328485E-02  0.50396108591E+00  0.50405024270E+00  0.00000000000E+00 0.  1.
</event>
<event>
 5   1  0.2192208E+09  0.9118800E+02  0.7818608E-02  0.1180000E+00
       11   -1    0    0    0    0  0.00000000000E+00  0.00000000000E+00  0.10559998763E+01  0.10560000000E+01  0.51109989000E-03 0. -1.
     -623   -1    0    0    0    0  0.00000000000E+00  0.00000000000E+00  0.47855275298E-10  0.17124000000E+03  0.17124000000E+03 0.  1.
       11    1    1    2    0    0 -0.21275539258E-02 -0.13910596385E-01  0.19013286051E+00  0.19065360486E+00  0.51109989000E-03 0. -1.
     -623    1    1    2    0    0 -0.31815028822E-02 -0.26458318520E-02  0.69536050927E-03  0.17124000005E+03  0.17124000000E+03 0.  1.
       22    1    1    2    0    0  0.53090568072E-02  0.16556428237E-01  0.86517165511E+00  0.86534634350E+00  0.00000000000E+00 0. -1.
</event>
<event>
 5   1  0.2192208E+09  0.9118800E+02  0.7818608E-02  0.1180000E+00
       11   -1    0    0    0    0  0.00000000000E+00  0.00000000000E+00  0.10559998763E+01  0.10560000000E+01  0.51109989000E-03 0. -1.
     -623   -1    0    0    0    0  0.00000000000E+00  0.00000000000E+00  0.47855275298E-10  0.17124000000E+03  0.17124000000E+03 0. -1.
       11    1    1    2    0    0  0.13404340982E-01 -0.24117780801E-01  0.81958625474E+00  0.82005075080E+00  0.51109989000E-03 0. -1.
     -623    1    1    2    0    0 -0.17222617701E-01  0.31026962001E-01  0.60014335442E-03  0.17124000368E+03  0.17124000000E+03 0. -1.
       22    1    1    2    0    0  0.38183075626E-02 -0.69092367663E-02  0.23581536841E+00  0.23594746238E+00  0.00000000000E+00 0. -1.
</event>
<event>
 5   1  0.2192208E+09  0.9118800E+02  0.7818608E-02  0.1180000E+00
       11   -1    0    0    0    0  0.00000000000E+00  0.00000000000E+00  0.10559998763E+01  0.10560000000E+01  0.51109989000E-03 0. -1.
     -623   -1    0    0    0    0  0.00000000000E+00  0.00000000000E+00  0.47855275298E-10  0.17124000000E+03  0.17124000000E+03 0.  1.
       11    1    1    2    0    0  0.30329569661E-03  0.14024706090E-02  0.99947066948E+00  0.99947183017E+00  0.51109989000E-03 0. -1.
     -623    1    1    2    0    0 -0.97059852425E-04 -0.29857037371E-05  0.18739785202E-04  0.17124000000E+03  0.17124000000E+03 0.  1.
       22    1    1    2    0    0 -0.20623584230E-03 -0.13994849052E-02  0.56510487532E-01  0.56528190244E-01  0.00000000000E+00 0. -1.
</event>
<event>
 5   1  0.2192208E+09  0.9118800E+02  0.7818608E-02  0.1180000E+00
       11   -1    0    0    0    0  0.00000000000E+00  0.00000000000E+00  0.10559998763E+01  0.10560000000E+01  0.51109989000E-03 0.  1.
     -623   -1    0    0    0    0  0.00000000000E+00  0.00000000000E+00  0.47855275298E-10  0.17124000000E+03  0.17124000000E+03 0. -1.
       11    1    1    2    0    0 -0.58195231323E-02 -0.42652339232E-03  0.80183215375E+00  0.80185354822E+00  0.51109989000E-03 0.  1.
     -623    1    1    2    0    0  0.70912595651E-02 -0.35365123273E-02  0.55537167869E-04  0.17124000018E+03  0.17124000000E+03 0. -1.
       22    1    1    2    0    0 -0.12717364924E-02  0.39630357494E-02  0.25411219431E+00  0.25414627729E+00  0.00000000000E+00 0.  1.
</event>
<event>
 5   1  0.2192208E+09  0.9118800E+02  0.7818608E-02  0.1180000E+00
       11   -1    0    0    0    0  0.00000000000E+00  0.00000000000E+00  0.10559998763E+01  0.10560000000E+01  0.51109989000E-03 0.  1.
     -623   -1    0    0    0    0  0.00000000000E+00  0.00000000000E+00  0.47855275298E-10  0.17124000000E+03  0.17124000000E+03 0. -1.
       11    1    1    2    0    0 -0.15973023321E-02  0.10719894321E-02  0.94159117705E+00  0.94159328080E+00  0.51109989000E-03 0.  1.
     -623    1    1    2    0    0  0.11933889196E-03  0.34712595075E-03  0.20329965936E-04  0.17124000000E+03  0.17124000000E+03 0. -1.
       22    1    1    2    0    0  0.14779634409E-02 -0.14191153804E-02  0.11438836192E+00  0.11440671138E+00  0.00000000000E+00 0. -1.
</event>
<event>
 5   1  0.2192208E+09  0.9118800E+02  0.7818608E-02  0.1180000E+00
       11   -1    0    0    0    0  0.00000000000E+00  0.00000000000E+00  0.10559998763E+01  0.10560000000E+01  0.51109989000E-03 0. -1.
     -623   -1    0    0    0    0  0.00000000000E+00  0.00000000000E+00  0.47855275298E-10  0.17124000000E+03  0.17124000000E+03 0. -1.
       11    1    1    2    0    0  0.17382447391E-02 -0.12154870500E-02  0.96650959093E+00  0.96651205346E+00  0.51109989000E-03 0. -1.
     -623    1    1    2    0    0  0.73095939801E-03 -0.82255471035E-04  0.45826758041E-04  0.17124000000E+03  0.17124000000E+03 0. -1.
       22    1    1    2    0    0 -0.24692041414E-02  0.12977425216E-02  0.89444464959E-01  0.89487951237E-01  0.00000000000E+00 0. -1.
</event>
<event>
 5   1  0.2192208E+09  0.9118800E+02  0.7818608E-02  0.1180000E+00
       11   -1    0    0    0    0  0.00000000000E+00  0.00000000000E+00  0.10559998763E+01  0.10560000000E+01  0.51109989000E-03 0.  1.
     -623   -1    0    0    0    0  0.00000000000E+00  0.00000000000E+00  0.47855275298E-10  0.17124000000E+03  0.17124000000E+03 0.  1.
       11    1    1    2    0    0 -0.46984324924E-02 -0.13098767656E-01  0.97766791130E+00  0.97776707809E+00  0.51109989000E-03 0.  1.
     -623    1    1    2    0    0  0.53319717322E-02  0.14086149567E-01  0.10850226279E-03  0.17124000066E+03  0.17124000000E+03 0.  1.
       22    1    1    2    0    0 -0.63354007037E-03 -0.98738410454E-03  0.78223627295E-01  0.78232424017E-01  0.00000000000E+00 0. -1.
</event>
<event>
 5   1  0.2192208E+09  0.9118800E+02  0.7818608E-02  0.1180000E+00
       11   -1    0    0    0    0  0.00000000000E+00  0.00000000000E+00  0.10559998763E+01  0.10560000000E+01  0.51109989000E-03 0. -1.
     -623   -1    0    0    0    0  0.00000000000E+00  0.00000000000E+00  0.47855275298E-10  0.17124000000E+03  0.17124000000E+03 0.  1.
       11    1    1    2    0    0  0.40801324823E-02 -0.75340786246E-02  0.86468236882E+00  0.86472496784E+00  0.51109989000E-03 0. -1.
     -623    1    1    2    0    0 -0.48769238616E-02  0.99584293425E-02  0.59858718736E-04  0.17124000036E+03  0.17124000000E+03 0.  1.
       22    1    1    2    0    0  0.79679198304E-03 -0.24243519506E-02  0.19125777953E+00  0.19127480385E+00  0.00000000000E+00 0. -1.
</event>
<event>
 5   1  0.2192208E+09  0.9118800E+02  0.7818608E-02  0.1180000E+00
       11   -1    0    0    0    0  0.00000000000E+00  0.00000000000E+00  0.10559998763E+01  0.10560000000E+01  0.51109989000E-03 0. -1.
     -623   -1    0    0    0    0  0.00000000000E+00  0.00000000000E+00  0.47855275298E-10  0.17124000000E+03  0.17124000000E+03 0. -1.
       11    1    1    2    0    0  0.58193658862E-02  0.49387945199E-04  0.72565458118E+00  0.72567809659E+00  0.51109989000E-03 0. -1.
     -623    1    1    2    0    0 -0.53224704722E-02 -0.36962539575E-02  0.44020083197E-04  0.17124000012E+03  0.17124000000E+03 0. -1.
       22    1    1    2    0    0 -0.49689534089E-03  0.36468660631E-02  0.33030128959E+00  0.33032179529E+00  0.00000000000E+00 0. -1.
</event>
<event>
 5   1  0.2192208E+09  0.9118800E+02  0.7818608E-02  0.1180000E+00
       11   -1    0    0    0    0  0.00000000000E+00  0.00000000000E+00  0.10559998763E+01  0.10560000000E+01  0.51109989000E-03 0. -1.
     -623   -1    0    0    0    0  0.00000000000E+00  0.00000000000E+00  0.47855275298E-10  0.17124000000E+03  0.17124000000E+03 0. -1.
       11    1    1    2    0    0  0.47311626460E-02  0.18556018545E-01  0.82419892094E+00  0.82442151368E+00  0.51109989000E-03 0. -1.
     -623    1    1    2    0    0 -0.55041186932E-02 -0.24281652514E-01  0.29636250522E-03  0.17124000181E+03  0.17124000000E+03 0. -1.
       22    1    1    2    0    0  0.77295593010E-03  0.57256334522E-02  0.23150457047E+00  0.23157665359E+00  0.00000000000E+00 0. -1.
</event>
<event>
 5   1  0.2192208E+09  0.9118800E+02  0.7818608E-02  0.1180000E+00
       11   -1    0    0    0    0  0.00000000000E+00  0.00000000000E+00  0.10559998763E+01  0.10560000000E+01  0.51109989000E-03 0. -1.
     -623   -1    0    0    0    0  0.00000000000E+00  0.00000000000E+00  0.47855275298E-10  0.17124000000E+03  0.17124000000E+03 0.  1.
       11    1    1    2    0    0 -0.11293934711E-01 -0.11711279214E-01  0.10026674590E+01  0.10027995820E+01  0.51109989000E-03 0. -1.
     -623    1    1    2    0    0  0.12093408705E-01  0.12308727870E-01  0.14223156432E-03  0.17124000087E+03  0.17124000000E+03 0.  1.
       22    1    1    2    0    0 -0.79948704894E-03 -0.59746194423E-03  0.53191325647E-01  0.53200688571E-01  0.00000000000E+00 0.  1.
</event>
<event>
 5   1  0.2192208E+09  0.9118800E+02  0.7818608E-02  0.1180000E+00
       11   -1    0    0    0    0  0.00000000000E+00  0.00000000000E+00  0.10559998763E+01  0.10560000000E+01  0.51109989000E-03 0. -1.
     -623   -1    0    0    0    0  0.00000000000E+00  0.00000000000E+00  0.47855275298E-10  0.17124000000E+03  0.17124000000E+03 0.  1.
       11    1    1    2    0    0 -0.13785614230E-02  0.14206179907E-02  0.91861249023E+00  0.91861476529E+00  0.51109989000E-03 0. -1.
     -623    1    1    2    0    0  0.29912023995E-03  0.87671026471E-05  0.13828600545E-04  0.17124000000E+03  0.17124000000E+03 0.  1.
       22    1    1    2    0    0  0.10794411724E-02 -0.14293850936E-02  0.13737359508E+00  0.13738527199E+00  0.00000000000E+00 0. -1.
</event>
<event>
 5   1  0.2192208E+09  0.9118800E+02  0.7818608E-02  0.1180000E+00
       11   -1    0    0    0    0  0.00000000000E+00  0.00000000000E+00  0.10559998763E+01  0.10560000000E+01  0.51109989000E-03 0. -1.
     -623   -1    0    0    0    0  0.00000000000E+00  0.00000000000E+00  0.47855275298E-10  0.17124000000E+03  0.17124000000E+03 0. -1.
       11    1    1    2    0    0  0.35121491058E-02 -0.12261712636E-01  0.96751099068E+00  0.96759519589E+00  0.51109989000E-03 0. -1.
     -623    1    1    2    0    0 -0.37632481669E-02  0.13678521637E-01  0.96379876053E-04  0.17124000059E+03  0.17124000000E+03 0. -1.
       22    1    1    2    0    0  0.25109931189E-03 -0.14168099130E-02  0.88392576171E-01  0.88404286793E-01  0.00000000000E+00 0.  1.
</event>
<event>
 5   1  0.2192208E+09  0.9118800E+02  0.7818608E-02  0.1180000E+00
       11   -1    0    0    0    0  0.00000000000E+00  0.00000000000E+00  0.10559998763E+01  0.10560000000E+01  0.51109989000E-03 0. -1.
     -623   -1    0    0    0    0  0.00000000000E+00  0.00000000000E+00  0.47855275298E-10  0.17124000000E+03  0.17124000000E+03 0. -1.
       11    1    1    2    0    0 -0.11162034663E-03  0.12420883133E-02  0.10014482037E+01  0.10014491106E+01  0.51109989000E-03 0. -1.
     -623    1    1    2    0    0 -0.43184451018E-03  0.13142698330E-03  0.20786291551E-04  0.17124000000E+03  0.17124000000E+03 0. -1.
       22    1    1    2    0    0  0.54346485262E-03 -0.13735152953E-02  0.54530876182E-01  0.54550878595E-01  0.00000000000E+00 0. -1.
</event>
<event>
 5   1  0.2192208E+09  0.9118800E+02  0.7818608E-02  0.1180000E+00
       11   -1    0    0    0    0  0.00000000000E+00  0.00000000000E+00  0.10559998763E+01  0.10560000000E+01  0.51109989000E-03 0.  1.
     -623   -1    0    0    0    0  0.00000000000E+00  0.00000000000E+00  0.47855275298E-10  0.17124000000E+03  0.17124000000E+03 0. -1.
       11    1    1    2    0    0  0.20050328229E-04 -0.18099762488E-02  0.88087369788E+00  0.88087570590E+00  0.51109989000E-03 0.  1.
     -623    1    1    2    0    0 -0.16657243336E-04  0.53754456024E-06  0.11232513635E-04  0.17124000000E+03  0.17124000000E+03 0. -1.
       22    1    1    2    0    0 -0.33930845876E-05  0.18094387042E-02  0.17511496534E+00  0.17512431346E+00  0.00000000000E+00 0.  1.
</event>
<event>
 5   1  0.2192208E+09  0.9118800E+02  0.7818608E-02  0.1180000E+00
       11   -1    0    0    0    0  0.00000000000E+00  0.00000000000E+00  0.10559998763E+01  0.10560000000E+01  0.51109989000E-03 0. -1.
     -623   -1    0    0    0    0  0.00000000000E+00  0.00000000000E+00  0.47855275298E-10  0.17124000000E+03  0.17124000000E+03 0. -1.
       11    1    1    2    0    0 -0.27815951077E-02  0.77310375378E-02  0.87553794691E+00  0.87557664651E+00  0.51109989000E-03 0. -1.
     -623    1    1    2    0    0  0.25759089765E-02 -0.10063744572E-01  0.54088848861E-04  0.17124000032E+03  0.17124000000E+03 0. -1.
       22    1    1    2    0    0  0.20568583087E-03  0.23327082077E-02  0.18040796371E+00  0.18042316149E+00  0.00000000000E+00 0.  1.
</event>
<event>
 5   1  0.2192208E+09  0.9118800E+02  0.7818608E-02  0.1180000E+00
       11   -1    0    0    0    0  0.00000000000E+00  0.00000000000E+00  0.10559998763E+01  0.10560000000E+01  0.51109989000E-03 0. -1.
     -623   -1    0    0    0    0  0.00000000000E+00  0.00000000000E+00  0.47855275298E-10  0.17124000000E+03  0.17124000000E+03 0. -1.
       11    1    1    2    0    0  0.45894500803E-03 -0.19831204244E-02  0.89566455459E+00  0.89566701345E+00  0.51109989000E-03 0. -1.
     -623    1    1    2    0    0 -0.85793819612E-05  0.31780592695E-04  0.14842665958E-04  0.17124000000E+03  0.17124000000E+03 0. -1.
       22    1    1    2    0    0 -0.45036562599E-03  0.19513398314E-02  0.16032048876E+00  0.16033299621E+00  0.00000000000E+00 0.  1.
</event>
<event>
 5   1  0.2192208E+09  0.9118800E+02  0.7818608E-02  0.1180000E+00
       11   -1    0    0    0    0  0.00000000000E+00  0.00000000000E+00  0.10559998763E+01  0.10560000000E+01  0.51109989000E-03 0.  1.
     -623   -1    0    0    0    0  0.00000000000E+00  0.00000000000E+00  0.47855275298E-10  0.17124000000E+03  0.17124000000E+03 0.  1.
       11    1    1    2    0    0  0.16213232166E-02 -0.16789194365E-01  0.90026755945E+00  0.90042570241E+00  0.51109989000E-03 0.  1.
     -623    1    1    2    0    0 -0.67445196413E-03  0.18854033695E-01  0.17564379869E-03  0.17124000104E+03  0.17124000000E+03 0.  1.
       22    1    1    2    0    0 -0.94687122470E-03 -0.20648401062E-02  0.15555671658E+00  0.15557330171E+00  0.00000000000E+00 0.  1.
</event>
<event>
 5   1  0.2192208E+09  0.9118800E+02  0.7818608E-02  0.1180000E+00
       11   -1    0    0    0    0  0.00000000000E+00  0.00000000000E+00  0.10559998763E+01  0.10560000000E+01  0.51109989000E-03 0.  1.
     -623   -1    0    0    0    0  0.00000000000E+00  0.00000000000E+00  0.47855275298E-10  0.17124000000E+03  0.17124000000E+03 0.  1.
       11    1    1    2    0    0 -0.22803336071E-01  0.48986793181E-01  0.96665390317E+00  0.96816306880E+00  0.51109989000E-03 0.  1.
     -623    1    1    2    0    0  0.24949589362E-01 -0.51521093869E-01  0.15814283388E-02  0.17124000958E+03  0.17124000000E+03 0.  1.
       22    1    1    2    0    0 -0.21462537730E-02  0.25343016821E-02  0.87764565204E-01  0.87827376117E-01  0.00000000000E+00 0.  1.
</event>
<event>
 5   1  0.2192208E+09  0.9118800E+02  0.7818608E-02  0.1180000E+00
       11   -1    0    0    0    0  0.00000000000E+00  0.00000000000E+00  0.10559998763E+01  0.10560000000E+01  0.51109989000E-03 0.  1.
     -623   -1    0    0    0    0  0.00000000000E+00  0.00000000000E+00  0.47855275298E-10  0.17124000000E+03  0.17124000000E+03 0.  1.
       11    1    1    2    0    0  0.43060127117E-03  0.14677754483E-02  0.90693749992E+00  0.90693893387E+00  0.51109989000E-03 0.  1.
     -623    1    1    2    0    0 -0.47860131287E-03  0.69911722735E-04  0.92501853874E-05  0.17124000000E+03  0.17124000000E+03 0.  1.
       22    1    1    2    0    0  0.48000053972E-04 -0.15376871728E-02  0.14905315334E+00  0.14906109253E+00  0.00000000000E+00 0. -1.
</event>
<event>
 5   1  0.2192208E+09  0.9118800E+02  0.7818608E-02  0.1180000E+00
       11   -1    0    0    0    0  0.00000000000E+00  0.00000000000E+00  0.10559998763E+01  0.10560000000E+01  0.51109989000E-03 0.  1.
     -623   -1    0    0    0    0  0.00000000000E+00  0.00000000000E+00  0.47855275298E-10  0.17124000000E+03  0.17124000000E+03 0. -1.
       11    1    1    2    0    0 -0.45309431386E-04 -0.60526749038E-02  0.72388727521E+00  0.72391276087E+00  0.51109989000E-03 0.  1.
     -623    1    1    2    0    0 -0.25186897791E-03  0.96610859224E-02  0.45372557842E-04  0.17124000027E+03  0.17124000000E+03 0. -1.
       22    1    1    2    0    0  0.29717828233E-03 -0.36084061486E-02  0.33206669631E+00  0.33208643409E+00  0.00000000000E+00 0.  1.
</event>
<event>
 5   1  0.2192208E+09  0.9118800E+02  0.7818608E-02  0.1180000E+00
       11   -1    0    0    0    0  0.00000000000E+00  0.00000000000E+00  0.10559998763E+01  0.10560000000E+01  0.51109989000E-03 0. -1.
     -623   -1    0    0    0    0  0.00000000000E+00  0.00000000000E+00  0.47855275298E-10  0.17124000000E+03  0.17124000000E+03 0. -1.
       11    1    1    2    0    0  0.22262471699E-03 -0.25927692722E-02  0.86411709806E+00  0.86412116766E+00  0.51109989000E-03 0. -1.
     -623    1    1    2    0    0  0.95506651493E-04 -0.15003071240E-03  0.23814205022E-04  0.17124000000E+03  0.17124000000E+03 0. -1.
       22    1    1    2    0    0 -0.31813136810E-03  0.27427999840E-02  0.19185895985E+00  0.19187882800E+00  0.00000000000E+00 0.  1.
</event>
<event>
 5   1  0.2192208E+09  0.9118800E+02  0.7818608E-02  0.1180000E+00
       11   -1    0    0    0    0  0.00000000000E+00  0.00000000000E+00  0.10559998763E+01  0.10560000000E+01  0.51109989000E-03 0. -1.
     -623   -1    0    0    0    0  0.00000000000E+00  0.00000000000E+00  0.47855275298E-10  0.17124000000E+03  0.17124000000E+03 0. -1.
       11    1    1    2    0    0 -0.36566341155E-02  0.11257308340E-01  0.10048986277E+01  0.10049684628E+01  0.51109989000E-03 0. -1.
     -623    1    1    2    0    0  0.38488770191E-02 -0.11789092862E-01  0.73293515856E-04  0.17124000045E+03  0.17124000000E+03 0. -1.
       22    1    1    2    0    0 -0.19224717201E-03  0.53179759557E-03  0.51029126153E-01  0.51032259244E-01  0.00000000000E+00 0.  1.
</event>
<event>
 5   1  0.2192208E+09  0.9118800E+02  0.7818608E-02  0.1180000E+00
       11   -1    0    0    0    0  0.00000000000E+00  0.00000000000E+00  0.10559998763E+01  0.10560000000E+01  0.51109989000E-03 0.  1.
     -623   -1    0    0    0    0  0.00000000000E+00  0.00000000000E+00  0.47855275298E-10  0.17124000000E+03  0.17124000000E+03 0. -1.
       11    1    1    2    0    0  0.20694749577E-02  0.24261511056E-02  0.90335166902E+00  0.90335744203E+00  0.51109989000E-03 0.  1.
     -623    1    1    2    0    0  0.15021755466E-03  0.58043545284E-04  0.42007536462E-04  0.17124000000E+03  0.17124000000E+03 0. -1.
       22    1    1    2    0    0 -0.22196925122E-02 -0.24841946508E-02  0.15260619924E+00  0.15264255732E+00  0.00000000000E+00 0. -1.
</event>
<event>
 5   1  0.2192208E+09  0.9118800E+02  0.7818608E-02  0.1180000E+00
       11   -1    0    0    0    0  0.00000000000E+00  0.00000000000E+00  0.10559998763E+01  0.10560000000E+01  0.51109989000E-03 0. -1.
     -623   -1    0    0    0    0  0.00000000000E+00  0.00000000000E+00  0.47855275298E-10  0.17124000000E+03  0.17124000000E+03 0. -1.
       11    1    1    2    0    0 -0.12100661035E-02  0.29713064690E-03  0.33429295370E-01  0.33456412817E-01  0.51109989000E-03 0.  1.
     -623    1    1    2    0    0  0.32037301575E-01 -0.14387919144E-01  0.59252266741E-03  0.17124000360E+03  0.17124000000E+03 0. -1.
       22    1    1    2    0    0 -0.30827235639E-01  0.14090788572E-01  0.10219780638E+01  0.10225399903E+01  0.00000000000E+00 0. -1.
</event>
<event>
 5   1  0.2192208E+09  0.9118800E+02  0.7818608E-02  0.1180000E+00
       11   -1    0    0    0    0  0.00000000000E+00  0.00000000000E+00  0.10559998763E+01  0.10560000000E+01  0.51109989000E-03 0.  1.
     -623   -1    0    0    0    0  0.00000000000E+00  0.00000000000E+00  0.47855275298E-10  0.17124000000E+03  0.17124000000E+03 0.  1.
       11    1    1    2    0    0 -0.23888470490E-02 -0.69355218573E-03  0.95218952420E+00  0.95219291051E+00  0.51109989000E-03 0.  1.
     -623    1    1    2    0    0  0.30626223947E-02  0.18756794382E-02  0.12218208995E-04  0.17124000004E+03  0.17124000000E+03 0.  1.
       22    1    1    2    0    0 -0.67377552426E-03 -0.11821273618E-02  0.10379819551E+00  0.10380711339E+00  0.00000000000E+00 0.  1.
</event>
<event>
 5   1  0.2192208E+09  0.9118800E+02  0.7818608E-02  0.1180000E+00
       11   -1    0    0    0    0  0.00000000000E+00  0.00000000000E+00  0.10559998763E+01  0.10560000000E+01  0.51109989000E-03 0. -1.
     -623   -1    0    0    0    0  0.00000000000E+00  0.00000000000E+00  0.47855275298E-10  0.17124000000E+03  0.17124000000E+03 0.  1.
       11    1    1    2    0    0 -0.21506987783E-03  0.63632314955E-02  0.74954424936E+00  0.74957146420E+00  0.51109989000E-03 0. -1.
     -623    1    1    2    0    0  0.43690431659E-03 -0.26249510127E-03  0.87908599950E-04  0.17124000000E+03  0.17124000000E+03 0.  1.
       22    1    1    2    0    0 -0.22183443965E-03 -0.61007363936E-02  0.30636772058E+00  0.30642853720E+00  0.00000000000E+00 0. -1.
</event>
<event>
 5   1  0.2192208E+09  0.9118800E+02  0.7818608E-02  0.1180000E+00
       11   -1    0    0    0    0  0.00000000000E+00  0.00000000000E+00  0.10559998763E+01  0.10560000000E+01  0.51109989000E-03 0.  1.
     -623   -1    0    0    0    0  0.00000000000E+00  0.00000000000E+00  0.47855275298E-10  0.17124000000E+03  0.17124000000E+03 0. -1.
       11    1    1    2    0    0 -0.11535552653E-01  0.29477080054E-01  0.97623737433E+00  0.97675055131E+00  0.51109989000E-03 0.  1.
     -623    1    1    2    0    0  0.99602550579E-02 -0.33040231935E-01  0.61235223375E-03  0.17124000348E+03  0.17124000000E+03 0. -1.
       22    1    1    2    0    0  0.15752976285E-02  0.35631517697E-02  0.79150146247E-01  0.79245966863E-01  0.00000000000E+00 0.  1.
</event>
<event>
 5   1  0.2192208E+09  0.9118800E+02  0.7818608E-02  0.1180000E+00
       11   -1    0    0    0    0  0.00000000000E+00  0.00000000000E+00  0.10559998763E+01  0.10560000000E+01  0.51109989000E-03 0.  1.
     -623   -1    0    0    0    0  0.00000000000E+00  0.00000000000E+00  0.47855275298E-10  0.17124000000E+03  0.17124000000E+03 0. -1.
       11    1    1    2    0    0  0.62962112890E-03 -0.11097592085E-01  0.79332506549E+00  0.79340309662E+00  0.51109989000E-03 0.  1.
     -623    1    1    2    0    0  0.16009843867E-03  0.13884581010E-01  0.94447907339E-04  0.17124000056E+03  0.17124000000E+03 0. -1.
       22    1    1    2    0    0 -0.78971956371E-03 -0.27869885915E-02  0.26258033756E+00  0.26259631497E+00  0.00000000000E+00 0.  1.
</event>
<event>
 5   1  0.2192208E+09  0.9118800E+02  0.7818608E-02  0.1180000E+00
       11   -1    0    0    0    0  0.00000000000E+00  0.00000000000E+00  0.10559998763E+01  0.10560000000E+01  0.51109989000E-03 0. -1.
     -623   -1    0    0    0    0  0.00000000000E+00  0.00000000000E+00  0.47855275298E-10  0.17124000000E+03  0.17124000000E+03 0.  1.
       11    1    1    2    0    0 -0.36287699442E-02 -0.20209653459E-01  0.85327083370E+00  0.85351799919E+00  0.51109989000E-03 0. -1.
     -623    1    1    2    0    0  0.49403676947E-02  0.23226855144E-01  0.27541834511E-03  0.17124000165E+03  0.17124000000E+03 0.  1.
       22    1    1    2    0    0 -0.13115979670E-02 -0.30172027029E-02  0.20245367058E+00  0.20248040036E+00  0.00000000000E+00 0. -1.
</event>
<event>
 5   1  0.2192208E+09  0.9118800E+02  0.7818608E-02  0.1180000E+00
       11   -1    0    0    0    0  0.00000000000E+00  0.00000000000E+00  0.10559998763E+01  0.10560000000E+01  0.51109989000E-03 0. -1.
     -623   -1    0    0    0    0  0.00000000000E+00  0.00000000000E+00  0.47855275298E-10  0.17124000000E+03  0.17124000000E+03 0.  1.
       11    1    1    2    0    0 -0.97283531419E-02  0.12501277518E-01  0.85874643480E+00  0.85889267275E+00  0.51109989000E-03 0. -1.
     -623    1    1    2    0    0  0.12412764378E-01 -0.16005590108E-01  0.19674942816E-03  0.17124000120E+03  0.17124000000E+03 0.  1.
       22    1    1    2    0    0 -0.26844133679E-02  0.35043153390E-02  0.19705687346E+00  0.19710631060E+00  0.00000000000E+00 0.  1.
</event>
<event>
 5   1  0.2192208E+09  0.9118800E+02  0.7818608E-02  0.1180000E+00
       11   -1    0    0    0    0  0.00000000000E+00  0.00000000000E+00  0.10559998763E+01  0.10560000000E+01  0.51109989000E-03 0. -1.
     -623   -1    0    0    0    0  0.00000000000E+00  0.00000000000E+00  0.47855275298E-10  0.17124000000E+03  0.17124000000E+03 0.  1.
       11    1    1    2    0    0 -0.23978004429E-01 -0.53735764395E-02  0.83540176399E+00  0.83576323712E+00  0.51109989000E-03 0. -1.
     -623    1    1    2    0    0  0.17011140536E-01  0.30500972162E-01  0.19140134097E-02  0.17124000357E+03  0.17124000000E+03 0.  1.
       22    1    1    2    0    0  0.69668638976E-02 -0.25127395715E-01  0.21868409869E+00  0.22023319057E+00  0.00000000000E+00 0.  1.
</event>
<event>
 5   1  0.2192208E+09  0.9118800E+02  0.7818608E-02  0.1180000E+00
       11   -1    0    0    0    0  0.00000000000E+00  0.00000000000E+00  0.10559998763E+01  0.10560000000E+01  0.51109989000E-03 0.  1.
     -623   -1    0    0    0    0  0.00000000000E+00  0.00000000000E+00  0.47855275298E-10  0.17124000000E+03  0.17124000000E+03 0.  1.
       11    1    1    2    0    0 -0.65566995162E-02  0.94530112484E-02  0.50070076298E+00  0.50083317083E+00  0.51109989000E-03 0.  1.
     -623    1    1    2    0    0  0.11926424112E-01  0.81466160878E-02  0.43791411277E-03  0.17124000061E+03  0.17124000000E+03 0.  1.
       22    1    1    2    0    0 -0.53697246162E-02 -0.17599627350E-01  0.55486120108E+00  0.55516622132E+00  0.00000000000E+00 0. -1.
</event>
<event>
 5   1  0.2192208E+09  0.9118800E+02  0.7818608E-02  0.1180000E+00
       11   -1    0    0    0    0  0.00000000000E+00  0.00000000000E+00  0.10559998763E+01  0.10560000000E+01  0.51109989000E-03 0.  1.
     -623   -1    0    0    0    0  0.00000000000E+00  0.00000000000E+00  0.47855275298E-10  0.17124000000E+03  0.17124000000E+03 0. -1.
       11    1    1    2    0    0 -0.56864409439E-03 -0.29313302166E-02  0.83283905992E+00  0.83284456954E+00  0.51109989000E-03 0.  1.
     -623    1    1    2    0    0 -0.36377339422E-04  0.57314846133E-05  0.25384554766E-04  0.17124000000E+03  0.17124000000E+03 0. -1.
       22    1    1    2    0    0  0.60502143355E-03  0.29255987321E-02  0.22313542428E+00  0.22315542285E+00  0.00000000000E+00 0.  1.
</event>
<event>
 5   1  0.2192208E+09  0.9118800E+02  0.7818608E-02  0.1180000E+00
       11   -1    0    0    0    0  0.00000000000E+00  0.00000000000E+00  0.10559998763E+01  0.10560000000E+01  0.51109989000E-03 0. -1.
     -623   -1    0    0    0    0  0.00000000000E+00  0.00000000000E+00  0.47855275298E-10  0.17124000000E+03  0.17124000000E+03 0.  1.
       11    1    1    2    0    0 -0.83123666234E-03 -0.10435517988E-02  0.98337956283E+00  0.98338060067E+00  0.51109989000E-03 0. -1.
     -623    1    1    2    0    0  0.11589335145E-03  0.20264111589E-03  0.93068598759E-05  0.17124000000E+03  0.17124000000E+03 0.  1.
       22    1    1    2    0    0  0.71534330678E-03  0.84091067572E-03  0.72611044180E-01  0.72619436680E-01  0.00000000000E+00 0.  1.
</event>
<event>
 5   1  0.2192208E+09  0.9118800E+02  0.7818608E-02  0.1180000E+00
       11   -1    0    0    0    0  0.00000000000E+00  0.00000000000E+00  0.10559998763E+01  0.10560000000E+01  0.51109989000E-03 0. -1.
     -623   -1    0    0    0    0  0.00000000000E+00  0.00000000000E+00  0.47855275298E-10  0.17124000000E+03  0.17124000000E+03 0. -1.
       11    1    1    2    0    0  0.81903828849E-03 -0.11533935262E-01  0.99386497335E+00  0.99393236639E+00  0.51109989000E-03 0. -1.
     -623    1    1    2    0    0 -0.91012066953E-03  0.12258532613E-01  0.72007213537E-04  0.17124000044E+03  0.17124000000E+03 0. -1.
       22    1    1    2    0    0  0.91082354999E-04 -0.72459700001E-03  0.62062865585E-01  0.62067162183E-01  0.00000000000E+00 0.  1.
</event>
<event>
 5   1  0.2192208E+09  0.9118800E+02  0.7818608E-02  0.1180000E+00
       11   -1    0    0    0    0  0.00000000000E+00  0.00000000000E+00  0.10559998763E+01  0.10560000000E+01  0.51109989000E-03 0.  1.
     -623   -1    0    0    0    0  0.00000000000E+00  0.00000000000E+00  0.47855275298E-10  0.17124000000E+03  0.17124000000E+03 0. -1.
       11    1    1    2    0    0  0.43514708573E-03 -0.11534741279E-02  0.99802735372E+00  0.99802824602E+00  0.51109989000E-03 0.  1.
     -623    1    1    2    0    0  0.14998027241E-04  0.38145862625E-04  0.13246667405E-04  0.17124000000E+03  0.17124000000E+03 0. -1.
       22    1    1    2    0    0 -0.45014511319E-03  0.11153282647E-02  0.57959291095E-01  0.57971769095E-01  0.00000000000E+00 0. -1.
</event>
<event>
 5   1  0.2192208E+09  0.9118800E+02  0.7818608E-02  0.1180000E+00
       11   -1    0    0    0    0  0.00000000000E+00  0.00000000000E+00  0.10559998763E+01  0.10560000000E+01  0.51109989000E-03 0. -1.
     -623   -1    0    0    0    0  0.00000000000E+00  0.00000000000E+00  0.47855275298E-10  0.17124000000E+03  0.17124000000E+03 0. -1.
       11    1    1    2    0    0  0.13559491882E-04 -0.19126607434E-02  0.94674957746E+00  0.94675164753E+00  0.51109989000E-03 0. -1.
     -623    1    1    2    0    0  0.66105554245E-04  0.36099197968E-03  0.12995704904E-04  0.17124000000E+03  0.17124000000E+03 0. -1.
       22    1    1    2    0    0 -0.79665048275E-04  0.15516687520E-02  0.10923733753E+00  0.10924838641E+00  0.00000000000E+00 0. -1.
</event>
<event>
 5   1  0.2192208E+09  0.9118800E+02  0.7818608E-02  0.1180000E+00
       11   -1    0    0    0    0  0.00000000000E+00  0.00000000000E+00  0.10559998763E+01  0.10560000000E+01  0.51109989000E-03 0. -1.
     -623   -1    0    0    0    0  0.00000000000E+00  0.00000000000E+00  0.47855275298E-10  0.17124000000E+03  0.17124000000E+03 0.  1.
       11    1    1    2    0    0 -0.33553782158E-04  0.96490437924E-03  0.98787812644E+00  0.98787873046E+00  0.51109989000E-03 0. -1.
     -623    1    1    2    0    0  0.54779430601E-04 -0.16991751522E-03  0.51227539415E-05  0.17124000000E+03  0.17124000000E+03 0.  1.
       22    1    1    2    0    0 -0.21225648430E-04 -0.79498686406E-03  0.68116626914E-01  0.68121269196E-01  0.00000000000E+00 0. -1.
</event>
<event>
 5   1  0.2192208E+09  0.9118800E+02  0.7818608E-02  0.1180000E+00
       11   -1    0    0    0    0  0.00000000000E+00  0.00000000000E+00  0.10559998763E+01  0.10560000000E+01  0.51109989000E-03 0.  1.
     -623   -1    0    0    0    0  0.00000000000E+00  0.00000000000E+00  0.47855275298E-10  0.17124000000E+03  0.17124000000E+03 0.  1.
       11    1    1    2    0    0  0.35932482593E-01 -0.12896667824E-01  0.72523588368E+00  0.72624019136E+00  0.51109989000E-03 0.  1.
     -623    1    1    2    0    0 -0.52199744564E-01  0.17639680263E-01  0.14487014647E-02  0.17124000887E+03  0.17124000000E+03 0.  1.
       22    1    1    2    0    0  0.16267269329E-01 -0.47430149255E-02  0.32931543987E+00  0.32975108670E+00  0.00000000000E+00 0.  1.
</event>
<event>
 5   1  0.2192208E+09  0.9118800E+02  0.7818608E-02  0.1180000E+00
       11   -1    0    0    0    0  0.00000000000E+00  0.00000000000E+00  0.10559998763E+01  0.10560000000E+01  0.51109989000E-03 0. -1.
     -623   -1    0    0    0    0  0.00000000000E+00  0.00000000000E+00  0.47855275298E-10  0.17124000000E+03  0.17124000000E+03 0.  1.
       11    1    1    2    0    0  0.22062756874E-01 -0.35379661711E-02  0.97018031344E+00  0.97043772816E+00  0.51109989000E-03 0. -1.
     -623    1    1    2    0    0 -0.22680694175E-01  0.22176026657E-02  0.27122787149E-03  0.17124000152E+03  0.17124000000E+03 0.  1.
       22    1    1    2    0    0  0.61793768160E-03  0.13203634681E-02  0.85548352799E-01  0.85560772982E-01  0.00000000000E+00 0.  1.
</event>
<event>
 5   1  0.2192208E+09  0.9118800E+02  0.7818608E-02  0.1180000E+00
       11   -1    0    0    0    0  0.00000000000E+00  0.00000000000E+00  0.10559998763E+01  0.10560000000E+01  0.51109989000E-03 0.  1.
     -623   -1    0    0    0    0  0.00000000000E+00  0.00000000000E+00  0.47855275298E-10  0.17124000000E+03  0.17124000000E+03 0. -1.
       11    1    1    2    0    0 -0.82971115421E-02 -0.17196264808E-01  0.83549328289E+00  0.83571157738E+00  0.51109989000E-03 0.  1.
     -623    1    1    2    0    0  0.12766286375E-01  0.20080730109E-01  0.28405379601E-03  0.17124000165E+03  0.17124000000E+03 0. -1.
       22    1    1    2    0    0 -0.44691746211E-02 -0.28844649684E-02  0.22022252217E+00  0.22028675160E+00  0.00000000000E+00 0. -1.
</event>
<event>
 5   1  0.2192208E+09  0.9118800E+02  0.7818608E-02  0.1180000E+00
       11   -1    0    0    0    0  0.00000000000E+00  0.00000000000E+00  0.10559998763E+01  0.10560000000E+01  0.51109989000E-03 0. -1.
     -623   -1    0    0    0    0  0.00000000000E+00  0.00000000000E+00  0.47855275298E-10  0.17124000000E+03  0.17124000000E+03 0.  1.
       11    1    1    2    0    0 -0.25239952153E-02  0.10499881087E-01  0.54364441321E+00  0.54375189865E+00  0.51109989000E-03 0. -1.
     -623    1    1    2    0    0 -0.11209962926E-02 -0.41125678654E-02  0.16020822919E-03  0.17124000005E+03  0.17124000000E+03 0.  1.
       22    1    1    2    0    0  0.36449915068E-02 -0.63873132253E-02  0.51219525388E+00  0.51224804717E+00  0.00000000000E+00 0. -1.
</event>
<event>
 5   1  0.2192208E+09  0.9118800E+02  0.7818608E-02  0.1180000E+00
       11   -1    0    0    0    0  0.00000000000E+00  0.00000000000E+00  0.10559998763E+01  0.10560000000E+01  0.51109989000E-03 0. -1.
     -623   -1    0    0    0    0  0.00000000000E+00  0.00000000000E+00  0.47855275298E-10  0.17124000000E+03  0.17124000000E+03 0.  1.
       11    1    1    2    0    0  0.51458040560E-03 -0.32426759622E-02  0.72841685040E+00  0.72842442910E+00  0.51109989000E-03 0. -1.
     -623    1    1    2    0    0  0.58332357464E-04 -0.60916442701E-04  0.24614862146E-04  0.17124000000E+03  0.17124000000E+03 0.  1.
       22    1    1    2    0    0 -0.57291276232E-03  0.33035924041E-02  0.32755839756E+00  0.32757555734E+00  0.00000000000E+00 0.  1.
</event>
<event>
 5   1  0.2192208E+09  0.9118800E+02  0.7818608E-02  0.1180000E+00
       11   -1    0    0    0    0  0.00000000000E+00  0.00000000000E+00  0.10559998763E+01  0.10560000000E+01  0.51109989000E-03 0.  1.
     -623   -1    0    0    0    0  0.00000000000E+00  0.00000000000E+00  0.47855275298E-10  0.17124000000E+03  0.17124000000E+03 0.  1.
       11    1    1    2    0    0  0.16299768533E-03  0.73796630991E-02  0.86392193954E+00  0.86395362424E+00  0.51109989000E-03 0.  1.
     -623    1    1    2    0    0  0.33790623855E-03 -0.99099201941E-02  0.49170575326E-04  0.17124000029E+03  0.17124000000E+03 0.  1.
       22    1    1    2    0    0 -0.50090388938E-03  0.25302560830E-02  0.19202865842E+00  0.19204598084E+00  0.00000000000E+00 0.  1.
</event>
<event>
 5   1  0.2192208E+09  0.9118800E+02  0.7818608E-02  0.1180000E+00
       11   -1    0    0    0    0  0.00000000000E+00  0.00000000000E+00  0.10559998763E+01  0.10560000000E+01  0.51109989000E-03 0.  1.
     -623   -1    0    0    0    0  0.00000000000E+00  0.00000000000E+00  0.47855275298E-10  0.17124000000E+03  0.17124000000E+03 0. -1.
       11    1    1    2    0    0  0.72432539321E-02 -0.81016443901E-02  0.77628365835E+00  0.77635989130E+00  0.51109989000E-03 0.  1.
     -623    1    1    2    0    0 -0.94898960052E-02  0.11167253834E-01  0.10256616893E-03  0.17124000063E+03  0.17124000000E+03 0. -1.
       22    1    1    2    0    0  0.22466309317E-02 -0.30655963335E-02  0.27961241218E+00  0.27963824180E+00  0.00000000000E+00 0.  1.
</event>
<event>
 5   1  0.2192208E+09  0.9118800E+02  0.7818608E-02  0.1180000E+00
       11   -1    0    0    0    0  0.00000000000E+00  0.00000000000E+00  0.10559998763E+01  0.10560000000E+01  0.51109989000E-03 0. -1.
     -623   -1    0    0    0    0  0.00000000000E+00  0.00000000000E+00  0.47855275298E-10  0.17124000000E+03  0.17124000000E+03 0. -1.
       11    1    1    2    0    0 -0.14888097538E-02  0.34416646712E-01  0.99551758384E+00  0.99611356937E+00  0.51109989000E-03 0. -1.
     -623    1    1    2    0    0  0.23277259239E-02 -0.35238221208E-01  0.61101780899E-03  0.17124000364E+03  0.17124000000E+03 0. -1.
       22    1    1    2    0    0 -0.83891622444E-03  0.82157531827E-03  0.59871299336E-01  0.59882812648E-01  0.00000000000E+00 0.  1.
</event>
<event>
 5   1  0.2192208E+09  0.9118800E+02  0.7818608E-02  0.1180000E+00
       11   -1    0    0    0    0  0.00000000000E+00  0.00000000000E+00  0.10559998763E+01  0.10560000000E+01  0.51109989000E-03 0. -1.
     -623   -1    0    0    0    0  0.00000000000E+00  0.00000000000E+00  0.47855275298E-10  0.17124000000E+03  0.17124000000E+03 0.  1.
       11    1    1    2    0    0  0.99365170895E-03  0.18539666352E-01  0.91847964985E+00  0.91866742349E+00  0.51109989000E-03 0. -1.
     -623    1    1    2    0    0 -0.14874764438E-02 -0.23724718437E-01  0.28810674910E-03  0.17124000165E+03  0.17124000000E+03 0.  1.
       22    1    1    2    0    0  0.49382473303E-03  0.51850520557E-02  0.13723211846E+00  0.13733092501E+00  0.00000000000E+00 0. -1.
</event>
<event>
 5   1  0.2192208E+09  0.9118800E+02  0.7818608E-02  0.1180000E+00
       11   -1    0    0    0    0  0.00000000000E+00  0.00000000000E+00  0.10559998763E+01  0.10560000000E+01  0.51109989000E-03 0. -1.
     -623   -1    0    0    0    0  0.00000000000E+00  0.00000000000E+00  0.47855275298E-10  0.17124000000E+03  0.17124000000E+03 0.  1.
       11    1    1    2    0    0 -0.84090141606E-02  0.14288064515E-01  0.59491964507E+00  0.59515082594E+00  0.51109989000E-03 0. -1.
     -623    1    1    2    0    0 -0.20673678374E-02 -0.69712522554E-02  0.40840866089E-03  0.17124000015E+03  0.17124000000E+03 0.  1.
       22    1    1    2    0    0  0.10476382000E-01 -0.73168122530E-02  0.46067182358E+00  0.46084902014E+00  0.00000000000E+00 0.  1.
</event>
<event>
 5   1  0.2192208E+09  0.9118800E+02  0.7818608E-02  0.1180000E+00
       11   -1    0    0    0    0  0.00000000000E+00  0.00000000000E+00  0.10559998763E+01  0.10560000000E+01  0.51109989000E-03 0.  1.
     -623   -1    0    0    0    0  0.00000000000E+00  0.00000000000E+00  0.47855275298E-10  0.17124000000E+03  0.17124000000E+03 0. -1.
       11    1    1    2    0    0  0.64057315122E-03  0.12970767828E-02  0.96210080667E+00  0.96210203002E+00  0.51109989000E-03 0.  1.
     -623    1    1    2    0    0  0.29695828237E-04  0.82412051042E-06  0.12462773780E-04  0.17124000000E+03  0.17124000000E+03 0. -1.
       22    1    1    2    0    0 -0.67026897887E-03 -0.12979009033E-02  0.93886586148E-01  0.93897949210E-01  0.00000000000E+00 0.  1.
</event>
<event>
 5   1  0.2192208E+09  0.9118800E+02  0.7818608E-02  0.1180000E+00
       11   -1    0    0    0    0  0.00000000000E+00  0.00000000000E+00  0.10559998763E+01  0.10560000000E+01  0.51109989000E-03 0.  1.
     -623   -1    0    0    0    0  0.00000000000E+00  0.00000000000E+00  0.47855275298E-10  0.17124000000E+03  0.17124000000E+03 0.  1.
       11    1    1    2    0    0  0.46525734917E-03  0.85725907824E-03  0.98226469401E+00  0.98226531125E+00  0.51109989000E-03 0.  1.
     -623    1    1    2    0    0  0.94182067500E-06  0.10969685822E-04  0.70794202545E-05  0.17124000000E+03  0.17124000000E+03 0.  1.
       22    1    1    2    0    0 -0.46619916982E-03 -0.86822876370E-03  0.73728068071E-01  0.73734653890E-01  0.00000000000E+00 0. -1.
</event>
<event>
 5   1  0.2192208E+09  0.9118800E+02  0.7818608E-02  0.1180000E+00
       11   -1    0    0    0    0  0.00000000000E+00  0.00000000000E+00  0.10559998763E+01  0.10560000000E+01  0.51109989000E-03 0. -1.
     -623   -1    0    0    0    0  0.00000000000E+00  0.00000000000E+00  0.47855275298E-10  0.17124000000E+03  0.17124000000E+03 0.  1.
       11    1    1    2    0    0 -0.20574126497E-02  0.66108997337E-02  0.74922838907E+00  0.74926055358E+00  0.51109989000E-03 0. -1.
     -623    1    1    2    0    0  0.15395576475E-02 -0.97442553223E-02  0.48766313762E-04  0.17124000028E+03  0.17124000000E+03 0.  1.
       22    1    1    2    0    0  0.51785490368E-03  0.31333562124E-02  0.30672278858E+00  0.30673922985E+00  0.00000000000E+00 0. -1.
</event>
<event>
 5   1  0.2192208E+09  0.9118800E+02  0.7818608E-02  0.1180000E+00
       11   -1    0    0    0    0  0.00000000000E+00  0.00000000000E+00  0.10559998763E+01  0.10560000000E+01  0.51109989000E-03 0. -1.
     -623   -1    0    0    0    0  0.00000000000E+00  0.00000000000E+00  0.47855275298E-10  0.17124000000E+03  0.17124000000E+03 0. -1.
       11    1    1    2    0    0  0.84218804423E-03 -0.11671845250E-01  0.96573524296E+00  0.96580627559E+00  0.51109989000E-03 0. -1.
     -623    1    1    2    0    0 -0.84840106472E-03  0.12864223184E-01  0.79276651933E-04  0.17124000049E+03  0.17124000000E+03 0. -1.
       22    1    1    2    0    0  0.62115406749E-05 -0.11923554957E-02  0.90183514971E-01  0.90191397166E-01  0.00000000000E+00 0. -1.
</event>
<event>
 5   1  0.2192208E+09  0.9118800E+02  0.7818608E-02  0.1180000E+00
       11   -1    0    0    0    0  0.00000000000E+00  0.00000000000E+00  0.10559998763E+01  0.10560000000E+01  0.51109989000E-03 0. -1.
     -623   -1    0    0    0    0  0.00000000000E+00  0.00000000000E+00  0.47855275298E-10  0.17124000000E+03  0.17124000000E+03 0.  1.
       11    1    1    2    0    0  0.29840616109E-03 -0.13743772709E-02  0.96158719943E+00  0.96158836374E+00  0.51109989000E-03 0. -1.
     -623    1    1    2    0    0  0.30513230158E-05 -0.19346252300E-04  0.11809781416E-04  0.17124000000E+03  0.17124000000E+03 0.  1.
       22    1    1    2    0    0 -0.30145748420E-03  0.13937235238E-02  0.94400901750E-01  0.94411670852E-01  0.00000000000E+00 0. -1.
</event>
<event>
 5   1  0.2192208E+09  0.9118800E+02  0.7818608E-02  0.1180000E+00
       11   -1    0    0    0    0  0.00000000000E+00  0.00000000000E+00  0.10559998763E+01  0.10560000000E+01  0.51109989000E-03 0. -1.
     -623   -1    0    0    0    0  0.00000000000E+00  0.00000000000E+00  0.47855275298E-10  0.17124000000E+03  0.17124000000E+03 0.  1.
       11    1    1    2    0    0 -0.75037320935E-03  0.11883204306E-02  0.93944500665E+00  0.93944619692E+00  0.51109989000E-03 0. -1.
     -623    1    1    2    0    0  0.24487185266E-02  0.20854924081E-03  0.21830280780E-04  0.17124000002E+03  0.17124000000E+03 0.  1.
       22    1    1    2    0    0 -0.16983453136E-02 -0.13968696711E-02  0.11653303785E+00  0.11655378386E+00  0.00000000000E+00 0. -1.
</event>
<event>
 5   1  0.2192208E+09  0.9118800E+02  0.7818608E-02  0.1180000E+00
       11   -1    0    0    0    0  0.00000000000E+00  0.00000000000E+00  0.10559998763E+01  0.10560000000E+01  0.51109989000E-03 0. -1.
     -623   -1    0    0    0    0  0.00000000000E+00  0.00000000000E+00  0.47855275298E-10  0.17124000000E+03  0.17124000000E+03 0.  1.
       11    1    1    2    0    0 -0.61285851700E-02  0.15366566768E-01  0.96213886520E+00  0.96228122090E+00  0.51109989000E-03 0. -1.
     -623    1    1    2    0    0  0.60762901206E-02 -0.16605165519E-01  0.15134479542E-03  0.17124000091E+03  0.17124000000E+03 0.  1.
       22    1    1    2    0    0  0.52295127852E-04  0.12385985370E-02  0.93709652735E-01  0.93717852498E-01  0.00000000000E+00 0. -1.
</event>
<event>
 5   1  0.2192208E+09  0.9118800E+02  0.7818608E-02  0.1180000E+00
       11   -1    0    0    0    0  0.00000000000E+00  0.00000000000E+00  0.10559998763E+01  0.10560000000E+01  0.51109989000E-03 0.  1.
     -623   -1    0    0    0    0  0.00000000000E+00  0.00000000000E+00  0.47855275298E-10  0.17124000000E+03  0.17124000000E+03 0.  1.
       11    1    1    2    0    0  0.39980761209E-02  0.29595326140E-02  0.88225925136E+00  0.88227342207E+00  0.51109989000E-03 0.  1.
     -623    1    1    2    0    0 -0.44807313824E-02 -0.47443525730E-02  0.24010544713E-04  0.17124000012E+03  0.17124000000E+03 0.  1.
       22    1    1    2    0    0  0.48265554496E-03  0.17848202591E-02  0.17371668125E+00  0.17372652038E+00  0.00000000000E+00 0. -1.
</event>
<event>
 5   1  0.2192208E+09  0.9118800E+02  0.7818608E-02  0.1180000E+00
       11   -1    0    0    0    0  0.00000000000E+00  0.00000000000E+00  0.10559998763E+01  0.10560000000E+01  0.51109989000E-03 0.  1.
     -623   -1    0    0    0    0  0.00000000000E+00  0.00000000000E+00  0.47855275298E-10  0.17124000000E+03  0.17124000000E+03 0. -1.
       11    1    1    2    0    0  0.46952991541E-03  0.12333132173E-02  0.98098252541E+00  0.98098354620E+00  0.51109989000E-03 0.  1.
     -623    1    1    2    0    0 -0.28872463588E-04  0.12585634808E-04  0.12538447428E-04  0.17124000000E+03  0.17124000000E+03 0. -1.
       22    1    1    2    0    0 -0.44065745097E-03 -0.12458988525E-02  0.75004843676E-01  0.75016484973E-01  0.00000000000E+00 0. -1.
</event>
<event>
 5   1  0.2192208E+09  0.9118800E+02  0.7818608E-02  0.1180000E+00
       11   -1    0    0    0    0  0.00000000000E+00  0.00000000000E+00  0.10559998763E+01  0.10560000000E+01  0.51109989000E-03 0.  1.
     -623   -1    0    0    0    0  0.00000000000E+00  0.00000000000E+00  0.47855275298E-10  0.17124000000E+03  0.17124000000E+03 0. -1.
       11    1    1    2    0    0 -0.19925867166E-02  0.46544175575E-02  0.64004384884E+00  0.64006407778E+00  0.51109989000E-03 0.  1.
     -623    1    1    2    0    0  0.19365133368E-02  0.23795507135E-02  0.79617203063E-04  0.17124000003E+03  0.17124000000E+03 0. -1.
       22    1    1    2    0    0  0.56073379287E-04 -0.70339682716E-02  0.41587641061E+00  0.41593589500E+00  0.00000000000E+00 0.  1.
</event>
<event>
 5   1  0.2192208E+09  0.9118800E+02  0.7818608E-02  0.1180000E+00
       11   -1    0    0    0    0  0.00000000000E+00  0.00000000000E+00  0.10559998763E+01  0.10560000000E+01  0.51109989000E-03 0.  1.
     -623   -1    0    0    0    0  0.00000000000E+00  0.00000000000E+00  0.47855275298E-10  0.17124000000E+03  0.17124000000E+03 0.  1.
       11    1    1    2    0    0  0.23378072361E-02  0.72369260153E-02  0.81994116954E+00  0.81997659794E+00  0.51109989000E-03 0.  1.
     -623    1    1    2    0    0 -0.11398732980E-02 -0.65781679625E-03  0.13006467671E-03  0.17124000001E+03  0.17124000000E+03 0.  1.
       22    1    1    2    0    0 -0.11979339385E-02 -0.65791092193E-02  0.23592864176E+00  0.23602339657E+00  0.00000000000E+00 0. -1.
</event>
<event>
 5   1  0.2192208E+09  0.9118800E+02  0.7818608E-02  0.1180000E+00
       11   -1    0    0    0    0  0.00000000000E+00  0.00000000000E+00  0.10559998763E+01  0.10560000000E+01  0.51109989000E-03 0. -1.
     -623   -1    0    0    0    0  0.00000000000E+00  0.00000000000E+00  0.47855275298E-10  0.17124000000E+03  0.17124000000E+03 0. -1.
       11    1    1    2    0    0  0.85446809042E-02  0.57779932579E-02  0.41195671990E+00  0.41208615249E+00  0.51109989000E-03 0. -1.
     -623    1    1    2    0    0  0.13562657325E-02  0.11302593521E-02  0.24250534569E-03  0.17124000001E+03  0.17124000000E+03 0. -1.
       22    1    1    2    0    0 -0.99009466387E-02 -0.69082526116E-02  0.64380065262E+00  0.64391383974E+00  0.00000000000E+00 0.  1.
</event>
<event>
 5   1  0.2192208E+09  0.9118800E+02  0.7818608E-02  0.1180000E+00
       11   -1    0    0    0    0  0.00000000000E+00  0.00000000000E+00  0.10559998763E+01  0.10560000000E+01  0.51109989000E-03 0.  1.
     -623   -1    0    0    0    0  0.00000000000E+00  0.00000000000E+00  0.47855275298E-10  0.17124000000E+03  0.17124000000E+03 0. -1.
       11    1    1    2    0    0 -0.13675056710E-02  0.21534831929E-02  0.96592706801E+00  0.96593057178E+00  0.51109989000E-03 0.  1.
     -623    1    1    2    0    0  0.73504277085E-04 -0.55789701297E-04  0.37109116485E-04  0.17124000000E+03  0.17124000000E+03 0. -1.
       22    1    1    2    0    0  0.12940013939E-02 -0.20976934917E-02  0.90035698401E-01  0.90069427355E-01  0.00000000000E+00 0.  1.
</event>
<event>
 5   1  0.2192208E+09  0.9118800E+02  0.7818608E-02  0.1180000E+00
       11   -1    0    0    0    0  0.00000000000E+00  0.00000000000E+00  0.10559998763E+01  0.10560000000E+01  0.51109989000E-03 0. -1.
     -623   -1    0    0    0    0  0.00000000000E+00  0.00000000000E+00  0.47855275298E-10  0.17124000000E+03  0.17124000000E+03 0. -1.
       11    1    1    2    0    0  0.36392708349E-03  0.16116486781E-02  0.90511420785E+00  0.90511586017E+00  0.51109989000E-03 0. -1.
     -623    1    1    2    0    0  0.29417924099E-03  0.51335791166E-04  0.12128907526E-04  0.17124000000E+03  0.17124000000E+03 0. -1.
       22    1    1    2    0    0 -0.65810633092E-03 -0.16629844704E-02  0.15087356274E+00  0.15088416270E+00  0.00000000000E+00 0.  1.
</event>
<event>
 5   1  0.2192208E+09  0.9118800E+02  0.7818608E-02  0.1180000E+00
       11   -1    0    0    0    0  0.00000000000E+00  0.00000000000E+00  0.10559998763E+01  0.10560000000E+01  0.51109989000E-03 0. -1.
     -623   -1    0    0    0    0  0.00000000000E+00  0.00000000000E+00  0.47855275298E-10  0.17124000000E+03  0.17124000000E+03 0.  1.
       11    1    1    2    0    0 -0.44197961770E-02  0.18484103842E-01  0.66506725192E+00  0.66533894181E+00  0.51109989000E-03 0. -1.
     -623    1    1    2    0    0  0.78071216576E-02 -0.28779850840E-01  0.42454906098E-03  0.17124000260E+03  0.17124000000E+03 0.  1.
       22    1    1    2    0    0 -0.33873270126E-02  0.10295752646E-01  0.39050828253E+00  0.39065866844E+00  0.00000000000E+00 0. -1.
</event>
<event>
 5   1  0.2192208E+09  0.9118800E+02  0.7818608E-02  0.1180000E+00
       11   -1    0    0    0    0  0.00000000000E+00  0.00000000000E+00  0.10559998763E+01  0.10560000000E+01  0.51109989000E-03 0.  1.
     -623   -1    0    0    0    0  0.00000000000E+00  0.00000000000E+00  0.47855275298E-10  0.17124000000E+03  0.17124000000E+03 0. -1.
       11    1    1    2    0    0  0.40539228363E-05 -0.19236983719E-02  0.95543051931E+00  0.95543259265E+00  0.51109989000E-03 0.  1.
     -623    1    1    2    0    0 -0.69196957340E-03  0.16627696088E-03  0.19661045791E-04  0.17124000000E+03  0.17124000000E+03 0. -1.
       22    1    1    2    0    0  0.68791565439E-03  0.17574214101E-02  0.10054970185E+00  0.10056741172E+00  0.00000000000E+00 0.  1.
</event>
<event>
 5   1  0.2192208E+09  0.9118800E+02  0.7818608E-02  0.1180000E+00
       11   -1    0    0    0    0  0.00000000000E+00  0.00000000000E+00  0.10559998763E+01  0.10560000000E+01  0.51109989000E-03 0.  1.
     -623   -1    0    0    0    0  0.00000000000E+00  0.00000000000E+00  0.47855275298E-10  0.17124000000E+03  0.17124000000E+03 0.  1.
       11    1    1    2    0    0  0.61675940863E-02 -0.12052471173E-01  0.52040827147E+00  0.52058460553E+00  0.51109989000E-03 0.  1.
     -623    1    1    2    0    0  0.36052530868E-02 -0.20933783914E-02  0.45239305042E-03  0.17124000005E+03  0.17124000000E+03 0.  1.
       22    1    1    2    0    0 -0.97728471768E-02  0.14145849567E-01  0.53513921294E+00  0.53541534422E+00  0.00000000000E+00 0.  1.
</event>
<event>
 5   1  0.2192208E+09  0.9118800E+02  0.7818608E-02  0.1180000E+00
       11   -1    0    0    0    0  0.00000000000E+00  0.00000000000E+00  0.10559998763E+01  0.10560000000E+01  0.51109989000E-03 0.  1.
     -623   -1    0    0    0    0  0.00000000000E+00  0.00000000000E+00  0.47855275298E-10  0.17124000000E+03  0.17124000000E+03 0.  1.
       11    1    1    2    0    0 -0.73017668207E-02  0.14378789104E-01  0.45381773026E+00  0.45410445813E+00  0.51109989000E-03 0.  1.
     -623    1    1    2    0    0 -0.29315148769E-02 -0.29560037950E-02  0.48207006429E-03  0.17124000005E+03  0.17124000000E+03 0.  1.
       22    1    1    2    0    0  0.10233281700E-01 -0.11422785306E-01  0.60170007690E+00  0.60189549144E+00  0.00000000000E+00 0.  1.
</event>
<event>
 5   1  0.2192208E+09  0.9118800E+02  0.7818608E-02  0.1180000E+00
       11   -1    0    0    0    0  0.00000000000E+00  0.00000000000E+00  0.10559998763E+01  0.10560000000E+01  0.51109989000E-03 0. -1.
     -623   -1    0    0    0    0  0.00000000000E+00  0.00000000000E+00  0.47855275298E-10  0.17124000000E+03  0.17124000000E+03 0.  1.
       11    1    1    2    0    0 -0.23303573321E-04 -0.52348011410E-03  0.98173999897E-01  0.98176728675E-01  0.51109989000E-03 0. -1.
     -623    1    1    2    0    0  0.96616331760E-02  0.10361411862E-01  0.10221376640E-03  0.17124000059E+03  0.17124000000E+03 0.  1.
       22    1    1    2    0    0 -0.96383298748E-02 -0.98379320394E-02  0.95772369244E+00  0.95782271500E+00  0.00000000000E+00 0. -1.
</event>
<event>
 5   1  0.2192208E+09  0.9118800E+02  0.7818608E-02  0.1180000E+00
       11   -1    0    0    0    0  0.00000000000E+00  0.00000000000E+00  0.10559998763E+01  0.10560000000E+01  0.51109989000E-03 0.  1.
     -623   -1    0    0    0    0  0.00000000000E+00  0.00000000000E+00  0.47855275298E-10  0.17124000000E+03  0.17124000000E+03 0. -1.
       11    1    1    2    0    0  0.12419103386E-01  0.75594166381E-02  0.48684064043E+00  0.48705795272E+00  0.51109989000E-03 0.  1.
     -623    1    1    2    0    0 -0.23401594586E-02  0.14911287148E-02  0.37849643415E-03  0.17124000002E+03  0.17124000000E+03 0. -1.
       22    1    1    2    0    0 -0.10078943926E-01 -0.90505453536E-02  0.56878073995E+00  0.56894202484E+00  0.00000000000E+00 0. -1.
</event>
<event>
 5   1  0.2192208E+09  0.9118800E+02  0.7818608E-02  0.1180000E+00
       11   -1    0    0    0    0  0.00000000000E+00  0.00000000000E+00  0.10559998763E+01  0.10560000000E+01  0.51109989000E-03 0.  1.
     -623   -1    0    0    0    0  0.00000000000E+00  0.00000000000E+00  0.47855275298E-10  0.17124000000E+03  0.17124000000E+03 0.  1.
       11    1    1    2    0    0 -0.50295411777E-03  0.28039018513E-02  0.60890846642E+00  0.60891534430E+00  0.51109989000E-03 0.  1.
     -623    1    1    2    0    0  0.60628609182E-02  0.30174439771E-02  0.79364279751E-04  0.17124000013E+03  0.17124000000E+03 0.  1.
       22    1    1    2    0    0 -0.55599067959E-02 -0.58213458262E-02  0.44701204488E+00  0.44708452098E+00  0.00000000000E+00 0.  1.
</event>
<event>
 5   1  0.2192208E+09  0.9118800E+02  0.7818608E-02  0.1180000E+00
       11   -1    0    0    0    0  0.00000000000E+00  0.00000000000E+00  0.10559998763E+01  0.10560000000E+01  0.51109989000E-03 0.  1.
     -623   -1    0    0    0    0  0.00000000000E+00  0.00000000000E+00  0.47855275298E-10  0.17124000000E+03  0.17124000000E+03 0. -1.
       11    1    1    2    0    0 -0.24911585653E-02 -0.34833549295E-02  0.89802244468E+00  0.89803280118E+00  0.51109989000E-03 0.  1.
     -623    1    1    2    0    0  0.21250079344E-02 -0.19526412125E-03  0.53508881448E-04  0.17124000001E+03  0.17124000000E+03 0. -1.
       22    1    1    2    0    0  0.36615063925E-03  0.36786190500E-02  0.15792391867E+00  0.15796718137E+00  0.00000000000E+00 0.  1.
</event>
<event>
 5   1  0.2192208E+09  0.9118800E+02  0.7818608E-02  0.1180000E+00
       11   -1    0    0    0    0  0.00000000000E+00  0.00000000000E+00  0.10559998763E+01  0.10560000000E+01  0.51109989000E-03 0.  1.
     -623   -1    0    0    0    0  0.00000000000E+00  0.00000000000E+00  0.47855275298E-10  0.17124000000E+03  0.17124000000E+03 0.  1.
       11    1    1    2    0    0  0.24494947358E-04  0.11738017982E-02  0.95603965177E+00  0.95604050929E+00  0.51109989000E-03 0.  1.
     -623    1    1    2    0    0  0.28241747347E-04 -0.10147529576E-03  0.64997393279E-05  0.17124000000E+03  0.17124000000E+03 0.  1.
       22    1    1    2    0    0 -0.52736693785E-04 -0.10723265058E-02  0.99953690412E-01  0.99959456243E-01  0.00000000000E+00 0. -1.
</event>
<event>
 5   1  0.2192208E+09  0.9118800E+02  0.7818608E-02  0.1180000E+00
       11   -1    0    0    0    0  0.00000000000E+00  0.00000000000E+00  0.10559998763E+01  0.10560000000E+01  0.51109989000E-03 0.  1.
     -623   -1    0    0    0    0  0.00000000000E+00  0.00000000000E+00  0.47855275298E-10  0.17124000000E+03  0.17124000000E+03 0.  1.
       11    1    1    2    0    0 -0.29690545778E-03 -0.98398942227E-03  0.99333714658E+00  0.99333780980E+00  0.51109989000E-03 0.  1.
     -623    1    1    2    0    0  0.20646757127E-04  0.93374284809E-05  0.87289930246E-05  0.17124000000E+03  0.17124000000E+03 0.  1.
       22    1    1    2    0    0  0.27625870012E-03  0.97465199355E-03  0.62654028306E-01  0.62662217710E-01  0.00000000000E+00 0.  1.
</event>
<event>
 5   1  0.2192208E+09  0.9118800E+02  0.7818608E-02  0.1180000E+00
       11   -1    0    0    0    0  0.00000000000E+00  0.00000000000E+00  0.10559998763E+01  0.10560000000E+01  0.51109989000E-03 0. -1.
     -623   -1    0    0    0    0  0.00000000000E+00  0.00000000000E+00  0.47855275298E-10  0.17124000000E+03  0.17124000000E+03 0. -1.
       11    1    1    2    0    0  0.24100127469E-02  0.32878470295E-02  0.54293481071E+00  0.54295035501E+00  0.51109989000E-03 0. -1.
     -623    1    1    2    0    0 -0.46611323566E-02  0.35990560173E-02  0.66686185193E-04  0.17124000010E+03  0.17124000000E+03 0. -1.
       22    1    1    2    0    0  0.22511195671E-02 -0.68869030138E-02  0.51299836980E+00  0.51304953405E+00  0.00000000000E+00 0. -1.
</event>
<event>
 5   1  0.2192208E+09  0.9118800E+02  0.7818608E-02  0.1180000E+00
       11   -1    0    0    0    0  0.00000000000E+00  0.00000000000E+00  0.10559998763E+01  0.10560000000E+01  0.51109989000E-03 0. -1.
     -623   -1    0    0    0    0  0.00000000000E+00  0.00000000000E+00  0.47855275298E-10  0.17124000000E+03  0.17124000000E+03 0.  1.
       11    1    1    2    0    0  0.37069019873E-02  0.88967527700E-02  0.95387449186E+00  0.95392332017E+00  0.51109989000E-03 0. -1.
     -623    1    1    2    0    0 -0.41073675769E-02 -0.99818909331E-02  0.55598505000E-04  0.17124000034E+03  0.17124000000E+03 0.  1.
       22    1    1    2    0    0  0.40047176056E-03  0.10851531600E-02  0.10207137246E+00  0.10207792617E+00  0.00000000000E+00 0.  1.
</event>
<event>
 5   1  0.2192208E+09  0.9118800E+02  0.7818608E-02  0.1180000E+00
       11   -1    0    0    0    0  0.00000000000E+00  0.00000000000E+00  0.10559998763E+01  0.10560000000E+01  0.51109989000E-03 0. -1.
     -623   -1    0    0    0    0  0.00000000000E+00  0.00000000000E+00  0.47855275298E-10  0.17124000000E+03  0.17124000000E+03 0. -1.
       11    1    1    2    0    0 -0.83509820191E-02 -0.47385111385E-02  0.93584107865E+00  0.93589047335E+00  0.51109989000E-03 0. -1.
     -623    1    1    2    0    0  0.97610648426E-02  0.59758396920E-02  0.64304923423E-04  0.17124000038E+03  0.17124000000E+03 0. -1.
       22    1    1    2    0    0 -0.14100847785E-02 -0.12373297503E-02  0.12009470428E+00  0.12010935567E+00  0.00000000000E+00 0.  1.
</event>
<event>
 5   1  0.2192208E+09  0.9118800E+02  0.7818608E-02  0.1180000E+00
       11   -1    0    0    0    0  0.00000000000E+00  0.00000000000E+00  0.10559998763E+01  0.10560000000E+01  0.51109989000E-03 0.  1.
     -623   -1    0    0    0    0  0.00000000000E+00  0.00000000000E+00  0.47855275298E-10  0.17124000000E+03  0.17124000000E+03 0. -1.
       11    1    1    2    0    0  0.13501262696E-03  0.25780955990E-02  0.82702903271E+00  0.82703322000E+00  0.51109989000E-03 0.  1.
     -623    1    1    2    0    0  0.52865458698E-04  0.28143878265E-04  0.18974128402E-04  0.17124000000E+03  0.17124000000E+03 0. -1.
       22    1    1    2    0    0 -0.18787808595E-03 -0.26062394774E-02  0.22895187544E+00  0.22896678591E+00  0.00000000000E+00 0.  1.
</event>
<event>
 5   1  0.2192208E+09  0.9118800E+02  0.7818608E-02  0.1180000E+00
       11   -1    0    0    0    0  0.00000000000E+00  0.00000000000E+00  0.10559998763E+01  0.10560000000E+01  0.51109989000E-03 0.  1.
     -623   -1    0    0    0    0  0.00000000000E+00  0.00000000000E+00  0.47855275298E-10  0.17124000000E+03  0.17124000000E+03 0.  1.
       11    1    1    2    0    0  0.18703535028E-02 -0.57539923761E-02  0.83089171060E+00  0.83091389603E+00  0.51109989000E-03 0.  1.
     -623    1    1    2    0    0  0.10678940024E-03  0.10539640334E-02  0.79826755414E-04  0.17124000000E+03  0.17124000000E+03 0.  1.
       22    1    1    2    0    0 -0.19771429034E-02  0.47000283389E-02  0.22502834285E+00  0.22508610452E+00  0.00000000000E+00 0.  1.
</event>
<event>
 5   1  0.2192208E+09  0.9118800E+02  0.7818608E-02  0.1180000E+00
       11   -1    0    0    0    0  0.00000000000E+00  0.00000000000E+00  0.10559998763E+01  0.10560000000E+01  0.51109989000E-03 0.  1.
     -623   -1    0    0    0    0  0.00000000000E+00  0.00000000000E+00  0.47855275298E-10  0.17124000000E+03  0.17124000000E+03 0. -1.
       11    1    1    2    0    0  0.10111170688E-02 -0.54389641289E-02  0.93148309746E+00  0.93149966546E+00  0.51109989000E-03 0.  1.
     -623    1    1    2    0    0 -0.15575232986E-02  0.66961944795E-02  0.24129534516E-04  0.17124000014E+03  0.17124000000E+03 0. -1.
       22    1    1    2    0    0  0.54640639584E-03 -0.12572310644E-02  0.12449276195E+00  0.12450030910E+00  0.00000000000E+00 0.  1.
</event>
<event>
 5   1  0.2192208E+09  0.9118800E+02  0.7818608E-02  0.1180000E+00
       11   -1    0    0    0    0  0.00000000000E+00  0.00000000000E+00  0.10559998763E+01  0.10560000000E+01  0.51109989000E-03 0. -1.
     -623   -1    0    0    0    0  0.00000000000E+00  0.00000000000E+00  0.47855275298E-10  0.17124000000E+03  0.17124000000E+03 0. -1.
       11    1    1    2    0    0 -0.28678896954E-03 -0.22603989630E-03  0.97918465890E+00  0.97918486037E+00  0.51109989000E-03 0. -1.
     -623    1    1    2    0    0  0.43060670026E-04  0.10588237680E-02  0.49822132011E-05  0.17124000000E+03  0.17124000000E+03 0. -1.
       22    1    1    2    0    0  0.24372829973E-03 -0.83278386643E-03  0.76810230017E-01  0.76815131112E-01  0.00000000000E+00 0. -1.
</event>
<event>
 5   1  0.2192208E+09  0.9118800E+02  0.7818608E-02  0.1180000E+00
       11   -1    0    0    0    0  0.00000000000E+00  0.00000000000E+00  0.10559998763E+01  0.10560000000E+01  0.51109989000E-03 0. -1.
     -623   -1    0    0    0    0  0.00000000000E+00  0.00000000000E+00  0.47855275298E-10  0.17124000000E+03  0.17124000000E+03 0.  1.
       11    1    1    2    0    0 -0.32520304651E-01  0.17799419456E-01  0.90211407664E+00  0.90287566035E+00  0.51109989000E-03 0. -1.
     -623    1    1    2    0    0  0.39380436201E-01 -0.14153884019E-01  0.96377592554E-03  0.17124000512E+03  0.17124000000E+03 0.  1.
       22    1    1    2    0    0 -0.68601316106E-02 -0.36455354157E-02  0.15292202542E+00  0.15311922542E+00  0.00000000000E+00 0.  1.
</event>
<event>
 5   1  0.2192208E+09  0.9118800E+02  0.7818608E-02  0.1180000E+00
       11   -1    0    0    0    0  0.00000000000E+00  0.00000000000E+00  0.10559998763E+01  0.10560000000E+01  0.51109989000E-03 0. -1.
     -623   -1    0    0    0    0  0.00000000000E+00  0.00000000000E+00  0.47855275298E-10  0.17124000000E+03  0.17124000000E+03 0. -1.
       11    1    1    2    0    0 -0.10812685559E-01  0.12274299640E-01  0.99653232907E+00  0.99666670292E+00  0.51109989000E-03 0. -1.
     -623    1    1    2    0    0  0.11392612522E-01 -0.12968084185E-01  0.14201111938E-03  0.17124000087E+03  0.17124000000E+03 0. -1.
       22    1    1    2    0    0 -0.57992025096E-03  0.69377690505E-03  0.59324914089E-01  0.59331804840E-01  0.00000000000E+00 0.  1.
</event>
<event>
 5   1  0.2192208E+09  0.9118800E+02  0.7818608E-02  0.1180000E+00
       11   -1    0    0    0    0  0.00000000000E+00  0.00000000000E+00  0.10559998763E+01  0.10560000000E+01  0.51109989000E-03 0.  1.
     -623   -1    0    0    0    0  0.00000000000E+00  0.00000000000E+00  0.47855275298E-10  0.17124000000E+03  0.17124000000E+03 0.  1.
       11    1    1    2    0    0  0.23637977243E-02 -0.88942003978E-02  0.80877956453E+00  0.80883208366E+00  0.51109989000E-03 0.  1.
     -623    1    1    2    0    0 -0.21132927876E-02  0.15121706017E-01  0.13166830647E-03  0.17124000068E+03  0.17124000000E+03 0.  1.
       22    1    1    2    0    0 -0.25050491127E-03 -0.62275058009E-02  0.24708865624E+00  0.24716724828E+00  0.00000000000E+00 0. -1.
</event>
<event>
 5   1  0.2192208E+09  0.9118800E+02  0.7818608E-02  0.1180000E+00
       11   -1    0    0    0    0  0.00000000000E+00  0.00000000000E+00  0.10559998763E+01  0.10560000000E+01  0.51109989000E-03 0. -1.
     -623   -1    0    0    0    0  0.00000000000E+00  0.00000000000E+00  0.47855275298E-10  0.17124000000E+03  0.17124000000E+03 0.  1.
       11    1    1    2    0    0  0.17326183049E-03 -0.18651311731E-02  0.90447069405E+00  0.90447277811E+00  0.51109989000E-03 0. -1.
     -623    1    1    2    0    0  0.24414359698E-03 -0.73107694777E-03  0.24779995847E-04  0.17124000000E+03  0.17124000000E+03 0.  1.
       22    1    1    2    0    0 -0.41740542594E-03  0.25962081163E-02  0.15150439567E+00  0.15152721350E+00  0.00000000000E+00 0. -1.
</event>
<event>
 5   1  0.2192208E+09  0.9118800E+02  0.7818608E-02  0.1180000E+00
       11   -1    0    0    0    0  0.00000000000E+00  0.00000000000E+00  0.10559998763E+01  0.10560000000E+01  0.51109989000E-03 0. -1.
     -623   -1    0    0    0    0  0.00000000000E+00  0.00000000000E+00  0.47855275298E-10  0.17124000000E+03  0.17124000000E+03 0.  1.
       11    1    1    2    0    0 -0.63602306035E-03  0.89402090387E-03  0.97569695792E+00  0.97569770868E+00  0.51109989000E-03 0. -1.
     -623    1    1    2    0    0  0.31351574991E-04  0.71429054951E-04  0.87077665467E-05  0.17124000000E+03  0.17124000000E+03 0.  1.
       22    1    1    2    0    0  0.60467148458E-03 -0.96544996059E-03  0.80294236780E-01  0.80302317410E-01  0.00000000000E+00 0. -1.
</event>
<event>
 5   1  0.2192208E+09  0.9118800E+02  0.7818608E-02  0.1180000E+00
       11   -1    0    0    0    0  0.00000000000E+00  0.00000000000E+00  0.10559998763E+01  0.10560000000E+01  0.51109989000E-03 0. -1.
     -623   -1    0    0    0    0  0.00000000000E+00  0.00000000000E+00  0.47855275298E-10  0.17124000000E+03  0.17124000000E+03 0.  1.
       11    1    1    2    0    0 -0.23133895442E-02  0.31856651351E-02  0.87038921744E+00  0.87039827165E+00  0.51109989000E-03 0. -1.
     -623    1    1    2    0    0 -0.98358057502E-05  0.54270105597E-03  0.60926634423E-04  0.17124000000E+03  0.17124000000E+03 0.  1.
       22    1    1    2    0    0  0.23232253499E-02 -0.37283661911E-02  0.18554973215E+00  0.18560172734E+00  0.00000000000E+00 0.  1.
</event>
<event>
 5   1  0.2192208E+09  0.9118800E+02  0.7818608E-02  0.1180000E+00
       11   -1    0    0    0    0  0.00000000000E+00  0.00000000000E+00  0.10559998763E+01  0.10560000000E+01  0.51109989000E-03 0.  1.
     -623   -1    0    0    0    0  0.00000000000E+00  0.00000000000E+00  0.47855275298E-10  0.17124000000E+03  0.17124000000E+03 0. -1.
       11    1    1    2    0    0  0.33977209106E-04 -0.93675912291E-03  0.40282234197E-02  0.41673107781E-02  0.51109989000E-03 0.  1.
     -623    1    1    2    0    0 -0.49811887931E-03  0.13099287690E-01  0.20988913837E-03  0.17124000050E+03  0.17124000000E+03 0. -1.
       22    1    1    2    0    0  0.46414167109E-03 -0.12162528590E-01  0.10517617657E+01  0.10518321892E+01  0.00000000000E+00 0.  1.
</event>
<event>
 5   1  0.2192208E+09  0.9118800E+02  0.7818608E-02  0.1180000E+00
       11   -1    0    0    0    0  0.00000000000E+00  0.00000000000E+00  0.10559998763E+01  0.10560000000E+01  0.51109989000E-03 0.  1.
     -623   -1    0    0    0    0  0.00000000000E+00  0.00000000000E+00  0.47855275298E-10  0.17124000000E+03  0.17124000000E+03 0. -1.
       11    1    1    2    0    0 -0.67353279230E-02  0.14816500262E-01  0.92427097682E+00  0.92441440552E+00  0.51109989000E-03 0.  1.
     -623    1    1    2    0    0  0.77664660972E-02 -0.16674976259E-01  0.16145881048E-03  0.17124000099E+03  0.17124000000E+03 0. -1.
       22    1    1    2    0    0 -0.10311386882E-02  0.18584771001E-02  0.13156751061E+00  0.13158467628E+00  0.00000000000E+00 0. -1.
</event>
<event>
 5   1  0.2192208E+09  0.9118800E+02  0.7818608E-02  0.1180000E+00
       11   -1    0    0    0    0  0.00000000000E+00  0.00000000000E+00  0.10559998763E+01  0.10560000000E+01  0.51109989000E-03 0.  1.
     -623   -1    0    0    0    0  0.00000000000E+00  0.00000000000E+00  0.47855275298E-10  0.17124000000E+03  0.17124000000E+03 0.  1.
       11    1    1    2    0    0 -0.10478492865E-02  0.12073029718E-02  0.96453049362E+00  0.96453195381E+00  0.51109989000E-03 0.  1.
     -623    1    1    2    0    0  0.31068690330E-04 -0.16473418208E-05  0.14934930171E-04  0.17124000000E+03  0.17124000000E+03 0.  1.
       22    1    1    2    0    0  0.10167805968E-02 -0.12056556300E-02  0.91454424440E-01  0.91468022816E-01  0.00000000000E+00 0.  1.
</event>
<event>
 5   1  0.2192208E+09  0.9118800E+02  0.7818608E-02  0.1180000E+00
       11   -1    0    0    0    0  0.00000000000E+00  0.00000000000E+00  0.10559998763E+01  0.10560000000E+01  0.51109989000E-03 0. -1.
     -623   -1    0    0    0    0  0.00000000000E+00  0.00000000000E+00  0.47855275298E-10  0.17124000000E+03  0.17124000000E+03 0. -1.
       11    1    1    2    0    0 -0.47090205860E-02 -0.38291107262E-02  0.16472038441E+00  0.16483295552E+00  0.51109989000E-03 0. -1.
     -623    1    1    2    0    0  0.14831564090E-01 -0.83100886968E-02  0.25347067772E-03  0.17124000084E+03  0.17124000000E+03 0. -1.
       22    1    1    2    0    0 -0.10122543469E-01  0.12139199404E-01  0.89102601881E+00  0.89116619788E+00  0.00000000000E+00 0. -1.
</event>
<event>
 5   1  0.2192208E+09  0.9118800E+02  0.7818608E-02  0.1180000E+00
       11   -1    0    0    0    0  0.00000000000E+00  0.00000000000E+00  0.10559998763E+01  0.10560000000E+01  0.51109989000E-03 0.  1.
     -623   -1    0    0    0    0  0.00000000000E+00  0.00000000000E+00  0.47855275298E-10  0.17124000000E+03  0.17124000000E+03 0.  1.
       11    1    1    2    0    0  0.16886339356E-02  0.10799500100E-01  0.86218658190E+00  0.86225601994E+00  0.51109989000E-03 0.  1.
     -623    1    1    2    0    0 -0.20513777748E-02 -0.13094236456E-01  0.83757087818E-04  0.17124000051E+03  0.17124000000E+03 0.  1.
       22    1    1    2    0    0  0.36274201313E-03  0.22947247008E-02  0.19372859747E+00  0.19374252713E+00  0.00000000000E+00 0. -1.
</event>
<event>
 5   1  0.2192208E+09  0.9118800E+02  0.7818608E-02  0.1180000E+00
       11   -1    0    0    0    0  0.00000000000E+00  0.00000000000E+00  0.10559998763E+01  0.10560000000E+01  0.51109989000E-03 0. -1.
     -623   -1    0    0    0    0  0.00000000000E+00  0.00000000000E+00  0.47855275298E-10  0.17124000000E+03  0.17124000000E+03 0.  1.
       11    1    1    2    0    0  0.25969852904E-03 -0.11451944678E-02  0.95141617565E+00  0.95141703759E+00  0.51109989000E-03 0. -1.
     -623    1    1    2    0    0 -0.22403900078E-04 -0.36273202816E-05  0.73175079958E-05  0.17124000000E+03  0.17124000000E+03 0.  1.
       22    1    1    2    0    0 -0.23729462989E-03  0.11488217879E-02  0.10457633973E+00  0.10458291893E+00  0.00000000000E+00 0. -1.
</event>
<event>
 5   1  0.2192208E+09  0.9118800E+02  0.7818608E-02  0.1180000E+00
       11   -1    0    0    0    0  0.00000000000E+00  0.00000000000E+00  0.10559998763E+01  0.10560000000E+01  0.51109989000E-03 0.  1.
     -623   -1    0    0    0    0  0.00000000000E+00  0.00000000000E+00  0.47855275298E-10  0.17124000000E+03  0.17124000000E+03 0.  1.
       11    1    1    2    0    0 -0.60603553820E-02 -0.51767017694E-02  0.67652628186E+00  0.67657342352E+00  0.51109989000E-03 0.  1.
     -623    1    1    2    0    0  0.62480302672E-02  0.92770690550E-02  0.69586225891E-04  0.17124000037E+03  0.17124000000E+03 0.  1.
       22    1    1    2    0    0 -0.18767503882E-03 -0.41003675138E-02  0.37940403425E+00  0.37942623716E+00  0.00000000000E+00 0.  1.
</event>
<event>
 5   1  0.2192208E+09  0.9118800E+02  0.7818608E-02  0.1180000E+00
       11   -1    0    0    0    0  0.00000000000E+00  0.00000000000E+00  0.10559998763E+01  0.10560000000E+01  0.51109989000E-03 0.  1.
     -623   -1    0    0    0    0  0.00000000000E+00  0.00000000000E+00  0.47855275298E-10  0.17124000000E+03  0.17124000000E+03 0.  1.
       11    1    1    2    0    0 -0.18149153273E-02 -0.11769980426E-01  0.84552157056E+00  0.84560559002E+00  0.51109989000E-03 0.  1.
     -623    1    1    2    0    0  0.21046631845E-02  0.14750909399E-01  0.10586211112E-03  0.17124000065E+03  0.17124000000E+03 0.  1.
       22    1    1    2    0    0 -0.28975006915E-03 -0.29809444768E-02  0.21037355344E+00  0.21039487154E+00  0.00000000000E+00 0. -1.
</event>
<event>
 5   1  0.2192208E+09  0.9118800E+02  0.7818608E-02  0.1180000E+00
       11   -1    0    0    0    0  0.00000000000E+00  0.00000000000E+00  0.10559998763E+01  0.10560000000E+01  0.51109989000E-03 0. -1.
     -623   -1    0    0    0    0  0.00000000000E+00  0.00000000000E+00  0.47855275298E-10  0.17124000000E+03  0.17124000000E+03 0.  1.
       11    1    1    2    0    0 -0.23161708244E-02 -0.56174837872E-02  0.74703444634E+00  0.74705933233E+00  0.51109989000E-03 0. -1.
     -623    1    1    2    0    0  0.35939791604E-02  0.11034736613E-01  0.75297893622E-04  0.17124000039E+03  0.17124000000E+03 0.  1.
       22    1    1    2    0    0 -0.12778084421E-02 -0.54172531515E-02  0.30889016329E+00  0.30894030557E+00  0.00000000000E+00 0.  1.
</event>
<event>
 5   1  0.2192208E+09  0.9118800E+02  0.7818608E-02  0.1180000E+00
       11   -1    0    0    0    0  0.00000000000E+00  0.00000000000E+00  0.10559998763E+01  0.10560000000E+01  0.51109989000E-03 0. -1.
     -623   -1    0    0    0    0  0.00000000000E+00  0.00000000000E+00  0.47855275298E-10  0.17124000000E+03  0.17124000000E+03 0.  1.
       11    1    1    2    0    0 -0.59680826904E-03 -0.43348414941E-02  0.64555273460E+00  0.64556776670E+00  0.51109989000E-03 0. -1.
     -623    1    1    2    0    0  0.24786001995E-02 -0.10645623780E-02  0.54761253355E-04  0.17124000002E+03  0.17124000000E+03 0.  1.
       22    1    1    2    0    0 -0.18817919565E-02  0.53994038834E-02  0.41039239164E+00  0.41043222317E+00  0.00000000000E+00 0. -1.
</event>
<event>
 5   1  0.2192208E+09  0.9118800E+02  0.7818608E-02  0.1180000E+00
       11   -1    0    0    0    0  0.00000000000E+00  0.00000000000E+00  0.10559998763E+01  0.10560000000E+01  0.51109989000E-03 0.  1.
     -623   -1    0    0    0    0  0.00000000000E+00  0.00000000000E+00  0.47855275298E-10  0.17124000000E+03  0.17124000000E+03 0.  1.
       11    1    1    2    0    0  0.13538349577E-01 -0.20394931524E-01  0.91046928745E+00  0.91079845452E+00  0.51109989000E-03 0.  1.
     -623    1    1    2    0    0 -0.16601402607E-01  0.28111411799E-01  0.56970316216E-03  0.17124000311E+03  0.17124000000E+03 0.  1.
       22    1    1    2    0    0  0.30630530729E-02 -0.77164803472E-02  0.14496088847E+00  0.14519843508E+00  0.00000000000E+00 0.  1.
</event>
<event>
 5   1  0.2192208E+09  0.9118800E+02  0.7818608E-02  0.1180000E+00
       11   -1    0    0    0    0  0.00000000000E+00  0.00000000000E+00  0.10559998763E+01  0.10560000000E+01  0.51109989000E-03 0. -1.
     -623   -1    0    0    0    0  0.00000000000E+00  0.00000000000E+00  0.47855275298E-10  0.17124000000E+03  0.17124000000E+03 0.  1.
       11    1    1    2    0    0  0.69505206299E-03  0.28023954263E-02  0.82447791442E+00  0.82448312846E+00  0.51109989000E-03 0. -1.
     -623    1    1    2    0    0 -0.15603925614E-03  0.28537427030E-04  0.23026611908E-04  0.17124000000E+03  0.17124000000E+03 0.  1.
       22    1    1    2    0    0 -0.53901280727E-03 -0.28309328533E-02  0.23149893245E+00  0.23151686859E+00  0.00000000000E+00 0.  1.
</event>
<event>
 5   1  0.2192208E+09  0.9118800E+02  0.7818608E-02  0.1180000E+00
       11   -1    0    0    0    0  0.00000000000E+00  0.00000000000E+00  0.10559998763E+01  0.10560000000E+01  0.51109989000E-03 0.  1.
     -623   -1    0    0    0    0  0.00000000000E+00  0.00000000000E+00  0.47855275298E-10  0.17124000000E+03  0.17124000000E+03 0. -1.
       11    1    1    2    0    0 -0.31349829544E-02  0.33052163799E-03  0.90681804025E+00  0.90682366352E+00  0.51109989000E-03 0.  1.
     -623    1    1    2    0    0  0.25154528565E-02  0.14666910666E-02  0.17637361960E-04  0.17124000002E+03  0.17124000000E+03 0. -1.
       22    1    1    2    0    0  0.61953016841E-03 -0.17972126635E-02  0.14916416915E+00  0.14917628213E+00  0.00000000000E+00 0.  1.
</event>
<event>
 5   1  0.2192208E+09  0.9118800E+02  0.7818608E-02  0.1180000E+00
       11   -1    0    0    0    0  0.00000000000E+00  0.00000000000E+00  0.10559998763E+01  0.10560000000E+01  0.51109989000E-03 0. -1.
     -623   -1    0    0    0    0  0.00000000000E+00  0.00000000000E+00  0.47855275298E-10  0.17124000000E+03  0.17124000000E+03 0. -1.
       11    1    1    2    0    0 -0.21488729839E-02 -0.84025266369E-03  0.93913167664E+00  0.93913465007E+00  0.51109989000E-03 0. -1.
     -623    1    1    2    0    0  0.22187931039E-02 -0.55760628867E-03  0.11246391042E-04  0.17124000002E+03  0.17124000000E+03 0. -1.
       22    1    1    2    0    0 -0.69920061511E-04  0.13978589377E-02  0.11685692552E+00  0.11686530683E+00  0.00000000000E+00 0.  1.
</event>
<event>
 5   1  0.2192208E+09  0.9118800E+02  0.7818608E-02  0.1180000E+00
       11   -1    0    0    0    0  0.00000000000E+00  0.00000000000E+00  0.10559998763E+01  0.10560000000E+01  0.51109989000E-03 0. -1.
     -623   -1    0    0    0    0  0.00000000000E+00  0.00000000000E+00  0.47855275298E-10  0.17124000000E+03  0.17124000000E+03 0. -1.
       11    1    1    2    0    0  0.57371850176E-02  0.14102518991E-01  0.85460277424E+00  0.85473853270E+00  0.51109989000E-03 0. -1.
     -623    1    1    2    0    0 -0.69158878002E-02 -0.11687380380E-01  0.15411666290E-03  0.17124000054E+03  0.17124000000E+03 0. -1.
       22    1    1    2    0    0  0.11787027849E-02 -0.24151386071E-02  0.20124298582E+00  0.20126092908E+00  0.00000000000E+00 0. -1.
</event>
<event>
 5   1  0.2192208E+09  0.9118800E+02  0.7818608E-02  0.1180000E+00
       11   -1    0    0    0    0  0.00000000000E+00  0.00000000000E+00  0.10559998763E+01  0.10560000000E+01  0.51109989000E-03 0.  1.
     -623   -1    0    0    0    0  0.00000000000E+00  0.00000000000E+00  0.47855275298E-10  0.17124000000E+03  0.17124000000E+03 0. -1.
       11    1    1    2    0    0 -0.21405641295E-02  0.70937019090E-02  0.65129844334E+00  0.65134079109E+00  0.51109989000E-03 0.  1.
     -623    1    1    2    0    0 -0.11448671214E-02 -0.16603904539E-01  0.16814305531E-03  0.17124000081E+03  0.17124000000E+03 0. -1.
       22    1    1    2    0    0  0.32854312582E-02  0.95102027343E-02  0.40453329661E+00  0.40465840666E+00  0.00000000000E+00 0.  1.
</event>
<event>
 5   1  0.2192208E+09  0.9118800E+02  0.7818608E-02  0.1180000E+00
       11   -1    0    0    0    0  0.00000000000E+00  0.00000000000E+00  0.10559998763E+01  0.10560000000E+01  0.51109989000E-03 0.  1.
     -623   -1    0    0    0    0  0.00000000000E+00  0.00000000000E+00  0.47855275298E-10  0.17124000000E+03  0.17124000000E+03 0.  1.
       11    1    1    2    0    0  0.20133366428E-02  0.83437470330E-03  0.95703705930E+00  0.95703967724E+00  0.51109989000E-03 0.  1.
     -623    1    1    2    0    0 -0.28015229828E-03  0.34632419852E-03  0.24718289040E-04  0.17124000000E+03  0.17124000000E+03 0.  1.
       22    1    1    2    0    0 -0.17331843434E-02 -0.11806989031E-02  0.98938102678E-01  0.98960326088E-01  0.00000000000E+00 0. -1.
</event>
<event>
 5   1  0.2192208E+09  0.9118800E+02  0.7818608E-02  0.1180000E+00
       11   -1    0    0    0    0  0.00000000000E+00  0.00000000000E+00  0.10559998763E+01  0.10560000000E+01  0.51109989000E-03 0.  1.
     -623   -1    0    0    0    0  0.00000000000E+00  0.00000000000E+00  0.47855275298E-10  0.17124000000E+03  0.17124000000E+03 0. -1.
       11    1    1    2    0    0 -0.25327911155E-03 -0.95253434023E-03  0.98855051876E+00  0.98855114225E+00  0.51109989000E-03 0.  1.
     -623    1    1    2    0    0 -0.19460941235E-03 -0.48058367373E-04  0.94094572414E-05  0.17124000000E+03  0.17124000000E+03 0. -1.
       22    1    1    2    0    0  0.44788851752E-03  0.10005927060E-02  0.67439913539E-01  0.67448823029E-01  0.00000000000E+00 0.  1.
</event>
<event>
 5   1  0.2192208E+09  0.9118800E+02  0.7818608E-02  0.1180000E+00
       11   -1    0    0    0    0  0.00000000000E+00  0.00000000000E+00  0.10559998763E+01  0.10560000000E+01  0.51109989000E-03 0.  1.
     -623   -1    0    0    0    0  0.00000000000E+00  0.00000000000E+00  0.47855275298E-10  0.17124000000E+03  0.17124000000E+03 0.  1.
       11    1    1    2    0    0  0.17705640943E-02  0.64340579240E-02  0.56501071704E+00  0.56505035492E+00  0.51109989000E-03 0.  1.
     -623    1    1    2    0    0 -0.28902297353E-03 -0.83995594112E-03  0.73624033701E-04  0.17124000000E+03  0.17124000000E+03 0.  1.
       22    1    1    2    0    0 -0.14815411204E-02 -0.55941019818E-02  0.49091553658E+00  0.49094964405E+00  0.00000000000E+00 0. -1.
</event>
<event>
 5   1  0.2192208E+09  0.9118800E+02  0.7818608E-02  0.1180000E+00
       11   -1    0    0    0    0  0.00000000000E+00  0.00000000000E+00  0.10559998763E+01  0.10560000000E+01  0.51109989000E-03 0. -1.
     -623   -1    0    0    0    0  0.00000000000E+00  0.00000000000E+00  0.47855275298E-10  0.17124000000E+03  0.17124000000E+03 0. -1.
       11    1    1    2    0    0  0.29167303174E-01  0.80525945201E-02  0.65766671571E+00  0.65836262502E+00  0.51109989000E-03 0. -1.
     -623    1    1    2    0    0 -0.46513596487E-01 -0.14077296126E-01  0.11269118684E-02  0.17124000690E+03  0.17124000000E+03 0. -1.
       22    1    1    2    0    0  0.17346298954E-01  0.60247033133E-02  0.39720637671E+00  0.39763060350E+00  0.00000000000E+00 0. -1.
</event>
<event>
 5   1  0.2192208E+09  0.9118800E+02  0.7818608E-02  0.1180000E+00
       11   -1    0    0    0    0  0.00000000000E+00  0.00000000000E+00  0.10559998763E+01  0.10560000000E+01  0.51109989000E-03 0. -1.
     -623   -1    0    0    0    0  0.00000000000E+00  0.00000000000E+00  0.47855275298E-10  0.17124000000E+03  0.17124000000E+03 0.  1.
       11    1    1    2    0    0 -0.11656506052E-01  0.90106190282E-02  0.25270292105E+00  0.25313255997E+00  0.51109989000E-03 0. -1.
     -623    1    1    2    0    0  0.16883182110E-01  0.12621373013E-02  0.51309059431E-03  0.17124000084E+03  0.17124000000E+03 0.  1.
       22    1    1    2    0    0 -0.52266760484E-02 -0.10272756329E-01  0.80278386407E+00  0.80286660167E+00  0.00000000000E+00 0.  1.
</event>
<event>
 5   1  0.2192208E+09  0.9118800E+02  0.7818608E-02  0.1180000E+00
       11   -1    0    0    0    0  0.00000000000E+00  0.00000000000E+00  0.10559998763E+01  0.10560000000E+01  0.51109989000E-03 0. -1.
     -623   -1    0    0    0    0  0.00000000000E+00  0.00000000000E+00  0.47855275298E-10  0.17124000000E+03  0.17124000000E+03 0.  1.
       11    1    1    2    0    0 -0.51680897569E-02 -0.12170690937E-01  0.88296163844E+00  0.88306078559E+00  0.51109989000E-03 0. -1.
     -623    1    1    2    0    0  0.45777135069E-02  0.13992825888E-01  0.11026377446E-03  0.17124000063E+03  0.17124000000E+03 0.  1.
       22    1    1    2    0    0  0.59037619413E-03 -0.18221351209E-02  0.17292798704E+00  0.17293859437E+00  0.00000000000E+00 0.  1.
</event>
<event>
 5   1  0.2192208E+09  0.9118800E+02  0.7818608E-02  0.1180000E+00
       11   -1    0    0    0    0  0.00000000000E+00  0.00000000000E+00  0.10559998763E+01  0.10560000000E+01  0.51109989000E-03 0. -1.
     -623   -1    0    0    0    0  0.00000000000E+00  0.00000000000E+00  0.47855275298E-10  0.17124000000E+03  0.17124000000E+03 0.  1.
       11    1    1    2    0    0 -0.37390038763E-02  0.15561197040E-01  0.10136886935E+00  0.10262572728E+00  0.51109989000E-03 0. -1.
     -623    1    1    2    0    0  0.43868062788E-02 -0.28253035829E-02  0.13421107996E-02  0.17124000008E+03  0.17124000000E+03 0.  1.
       22    1    1    2    0    0 -0.64780240284E-03 -0.12735893457E-01  0.95328889631E+00  0.95337418806E+00  0.00000000000E+00 0. -1.
</event>
<event>
 5   1  0.2192208E+09  0.9118800E+02  0.7818608E-02  0.1180000E+00
       11   -1    0    0    0    0  0.00000000000E+00  0.00000000000E+00  0.10559998763E+01  0.10560000000E+01  0.51109989000E-03 0. -1.
     -623   -1    0    0    0    0  0.00000000000E+00  0.00000000000E+00  0.47855275298E-10  0.17124000000E+03  0.17124000000E+03 0.  1.
       11    1    1    2    0    0 -0.26537411507E-02  0.39083230606E-02  0.61205986643E+00  0.61207831088E+00  0.51109989000E-03 0. -1.
     -623    1    1    2    0    0  0.24319253459E-02  0.12929419397E-02  0.48870080564E-04  0.17124000002E+03  0.17124000000E+03 0.  1.
       22    1    1    2    0    0  0.22181581671E-03 -0.52012649940E-02  0.44389113469E+00  0.44392166180E+00  0.00000000000E+00 0.  1.
</event>
<event>
 5   1  0.2192208E+09  0.9118800E+02  0.7818608E-02  0.1180000E+00
       11   -1    0    0    0    0  0.00000000000E+00  0.00000000000E+00  0.10559998763E+01  0.10560000000E+01  0.51109989000E-03 0. -1.
     -623   -1    0    0    0    0  0.00000000000E+00  0.00000000000E+00  0.47855275298E-10  0.17124000000E+03  0.17124000000E+03 0. -1.
       11    1    1    2    0    0  0.63076743912E-03  0.10732865346E-02  0.97878606835E+00  0.97878699349E+00  0.51109989000E-03 0. -1.
     -623    1    1    2    0    0 -0.18460628877E-04  0.10721999860E-04  0.10839289634E-04  0.17124000000E+03  0.17124000000E+03 0. -1.
       22    1    1    2    0    0 -0.61230681005E-03 -0.10840085345E-02  0.77202979503E-01  0.77213017285E-01  0.00000000000E+00 0. -1.
</event>
<event>
 5   1  0.2192208E+09  0.9118800E+02  0.7818608E-02  0.1180000E+00
       11   -1    0    0    0    0  0.00000000000E+00  0.00000000000E+00  0.10559998763E+01  0.10560000000E+01  0.51109989000E-03 0. -1.
     -623   -1    0    0    0    0  0.00000000000E+00  0.00000000000E+00  0.47855275298E-10  0.17124000000E+03  0.17124000000E+03 0. -1.
       11    1    1    2    0    0 -0.88277966164E-02 -0.83646258303E-02  0.99910371500E+00  0.99917785780E+00  0.51109989000E-03 0. -1.
     -623    1    1    2    0    0  0.94311838289E-02  0.89553390056E-02  0.80787584223E-04  0.17124000049E+03  0.17124000000E+03 0. -1.
       22    1    1    2    0    0 -0.60338888771E-03 -0.59071476594E-03  0.56815561330E-01  0.56821835868E-01  0.00000000000E+00 0.  1.
</event>
<event>
 5   1  0.2192208E+09  0.9118800E+02  0.7818608E-02  0.1180000E+00
       11   -1    0    0    0    0  0.00000000000E+00  0.00000000000E+00  0.10559998763E+01  0.10560000000E+01  0.51109989000E-03 0.  1.
     -623   -1    0    0    0    0  0.00000000000E+00  0.00000000000E+00  0.47855275298E-10  0.17124000000E+03  0.17124000000E+03 0. -1.
       11    1    1    2    0    0 -0.15935429829E-02  0.64060318814E-02  0.87693573279E+00  0.87696072734E+00  0.51109989000E-03 0.  1.
     -623    1    1    2    0    0  0.13498174302E-02 -0.97488951766E-02  0.56529933981E-04  0.17124000028E+03  0.17124000000E+03 0. -1.
       22    1    1    2    0    0  0.24372555091E-03  0.33428633085E-02  0.17900761507E+00  0.17903899126E+00  0.00000000000E+00 0.  1.
</event>
<event>
 5   1  0.2192208E+09  0.9118800E+02  0.7818608E-02  0.1180000E+00
       11   -1    0    0    0    0  0.00000000000E+00  0.00000000000E+00  0.10559998763E+01  0.10560000000E+01  0.51109989000E-03 0.  1.
     -623   -1    0    0    0    0  0.00000000000E+00  0.00000000000E+00  0.47855275298E-10  0.17124000000E+03  0.17124000000E+03 0. -1.
       11    1    1    2    0    0  0.35992802981E-03  0.15377904477E-02  0.73471706460E+00  0.73471893986E+00  0.51109989000E-03 0.  1.
     -623    1    1    2    0    0 -0.33212284387E-02  0.23643153954E-02  0.39146160522E-04  0.17124000005E+03  0.17124000000E+03 0. -1.
       22    1    1    2    0    0  0.29613004071E-02 -0.39021058418E-02  0.32124366504E+00  0.32128101104E+00  0.00000000000E+00 0.  1.
</event>
<event>
 5   1  0.2192208E+09  0.9118800E+02  0.7818608E-02  0.1180000E+00
       11   -1    0    0    0    0  0.00000000000E+00  0.00000000000E+00  0.10559998763E+01  0.10560000000E+01  0.51109989000E-03 0.  1.
     -623   -1    0    0    0    0  0.00000000000E+00  0.00000000000E+00  0.47855275298E-10  0.17124000000E+03  0.17124000000E+03 0. -1.
       11    1    1    2    0    0 -0.31041336204E-03  0.18067922305E-02  0.88468705777E+00  0.88468910487E+00  0.51109989000E-03 0.  1.
     -623    1    1    2    0    0  0.17562441951E-04 -0.13180189364E-04  0.11563530801E-04  0.17124000000E+03  0.17124000000E+03 0. -1.
       22    1    1    2    0    0  0.29285092027E-03 -0.17936120412E-02  0.17130124425E+00  0.17131088433E+00  0.00000000000E+00 0.  1.
</event>
<event>
 5   1  0.2192208E+09  0.9118800E+02  0.7818608E-02  0.1180000E+00
       11   -1    0    0    0    0  0.00000000000E+00  0.00000000000E+00  0.10559998763E+01  0.10560000000E+01  0.51109989000E-03 0. -1.
     -623   -1    0    0    0    0  0.00000000000E+00  0.00000000000E+00  0.47855275298E-10  0.17124000000E+03  0.17124000000E+03 0.  1.
       11    1    1    2    0    0 -0.12025200220E-01 -0.88077145145E-02  0.10029146739E+01  0.10030255657E+01  0.51109989000E-03 0. -1.
     -623    1    1    2    0    0  0.12703062352E-01  0.93518577987E-02  0.11862704720E-03  0.17124000073E+03  0.17124000000E+03 0.  1.
       22    1    1    2    0    0 -0.67785338041E-03 -0.54413684175E-03  0.52965848068E-01  0.52972980203E-01  0.00000000000E+00 0. -1.
</event>
<event>
 5   1  0.2192208E+09  0.9118800E+02  0.7818608E-02  0.1180000E+00
       11   -1    0    0    0    0  0.00000000000E+00  0.00000000000E+00  0.10559998763E+01  0.10560000000E+01  0.51109989000E-03 0.  1.
     -623   -1    0    0    0    0  0.00000000000E+00  0.00000000000E+00  0.47855275298E-10  0.17124000000E+03  0.17124000000E+03 0. -1.
       11    1    1    2    0    0 -0.38139319882E-02  0.24998150399E-02  0.87450837418E+00  0.87452041308E+00  0.51109989000E-03 0.  1.
     -623    1    1    2    0    0 -0.20236832280E-03  0.15348779070E-02  0.10123644609E-03  0.17124000001E+03  0.17124000000E+03 0. -1.
       22    1    1    2    0    0  0.40163003113E-02 -0.40346929496E-02  0.18139026759E+00  0.18147958175E+00  0.00000000000E+00 0.  1.
</event>
<event>
 5   1  0.2192208E+09  0.9118800E+02  0.7818608E-02  0.1180000E+00
       11   -1    0    0    0    0  0.00000000000E+00  0.00000000000E+00  0.10559998763E+01  0.10560000000E+01  0.51109989000E-03 0. -1.
     -623   -1    0    0    0    0  0.00000000000E+00  0.00000000000E+00  0.47855275298E-10  0.17124000000E+03  0.17124000000E+03 0. -1.
       11    1    1    2    0    0 -0.32631832133E-02 -0.75251368621E-02  0.50296810396E+00  0.50303523820E+00  0.51109989000E-03 0. -1.
     -623    1    1    2    0    0  0.18018386293E-02  0.22241831506E-01  0.26626789212E-03  0.17124000145E+03  0.17124000000E+03 0. -1.
       22    1    1    2    0    0  0.14613445818E-02 -0.14716694670E-01  0.55276550576E+00  0.55296330890E+00  0.00000000000E+00 0. -1.
</event>
<event>
 5   1  0.2192208E+09  0.9118800E+02  0.7818608E-02  0.1180000E+00
       11   -1    0    0    0    0  0.00000000000E+00  0.00000000000E+00  0.10559998763E+01  0.10560000000E+01  0.51109989000E-03 0.  1.
     -623   -1    0    0    0    0  0.00000000000E+00  0.00000000000E+00  0.47855275298E-10  0.17124000000E+03  0.17124000000E+03 0.  1.
       11    1    1    2    0    0  0.24209976686E-02  0.17162602752E-01  0.10016543404E+01  0.10018044196E+01  0.51109989000E-03 0.  1.
     -623    1    1    2    0    0 -0.22809577638E-02 -0.18156440750E-01  0.16022773130E-03  0.17124000098E+03  0.17124000000E+03 0.  1.
       22    1    1    2    0    0 -0.14004098110E-03  0.99382943079E-03  0.54184809988E-01  0.54194104309E-01  0.00000000000E+00 0. -1.
</event>
<event>
 5   1  0.2192208E+09  0.9118800E+02  0.7818608E-02  0.1180000E+00
       11   -1    0    0    0    0  0.00000000000E+00  0.00000000000E+00  0.10559998763E+01  0.10560000000E+01  0.51109989000E-03 0. -1.
     -623   -1    0    0    0    0  0.00000000000E+00  0.00000000000E+00  0.47855275298E-10  0.17124000000E+03  0.17124000000E+03 0. -1.
       11    1    1    2    0    0 -0.89181515691E-03 -0.49576848928E-03  0.95124820888E+00  0.95124889343E+00  0.51109989000E-03 0. -1.
     -623    1    1    2    0    0  0.29676191700E-03 -0.67791439918E-03  0.88282345274E-05  0.17124000000E+03  0.17124000000E+03 0. -1.
       22    1    1    2    0    0  0.59505324027E-03  0.11736828876E-02  0.10474283794E+00  0.10475110367E+00  0.00000000000E+00 0. -1.
</event>
<event>
 5   1  0.2192208E+09  0.9118800E+02  0.7818608E-02  0.1180000E+00
       11   -1    0    0    0    0  0.00000000000E+00  0.00000000000E+00  0.10559998763E+01  0.10560000000E+01  0.51109989000E-03 0.  1.
     -623   -1    0    0    0    0  0.00000000000E+00  0.00000000000E+00  0.47855275298E-10  0.17124000000E+03  0.17124000000E+03 0. -1.
       11    1    1    2    0    0  0.45476681559E-02 -0.96183456680E-02  0.38209365579E+00  0.38224209197E+00  0.51109989000E-03 0.  1.
     -623    1    1    2    0    0  0.57783848231E-03  0.20439967244E-02  0.21039965621E-03  0.17124000001E+03  0.17124000000E+03 0. -1.
       22    1    1    2    0    0 -0.51255066391E-02  0.75743489405E-02  0.67369582253E+00  0.67375789633E+00  0.00000000000E+00 0.  1.
</event>
<event>
 5   1  0.2192208E+09  0.9118800E+02  0.7818608E-02  0.1180000E+00
       11   -1    0    0    0    0  0.00000000000E+00  0.00000000000E+00  0.10559998763E+01  0.10560000000E+01  0.51109989000E-03 0.  1.
     -623   -1    0    0    0    0  0.00000000000E+00  0.00000000000E+00  0.47855275298E-10  0.17124000000E+03  0.17124000000E+03 0. -1.
       11    1    1    2    0    0 -0.31102530675E-03  0.96515234886E-03  0.98926588931E+00  0.98926654104E+00  0.51109989000E-03 0.  1.
     -623    1    1    2    0    0 -0.21645297215E-04 -0.10440818368E-04  0.81869477535E-05  0.17124000000E+03  0.17124000000E+03 0. -1.
       22    1    1    2    0    0  0.33267060359E-03 -0.95471153068E-03  0.66725781580E-01  0.66733440428E-01  0.00000000000E+00 0. -1.
</event>
<event>
 5   1  0.2192208E+09  0.9118800E+02  0.7818608E-02  0.1180000E+00
       11   -1    0    0    0    0  0.00000000000E+00  0.00000000000E+00  0.10559998763E+01  0.10560000000E+01  0.51109989000E-03 0. -1.
     -623   -1    0    0    0    0  0.00000000000E+00  0.00000000000E+00  0.47855275298E-10  0.17124000000E+03  0.17124000000E+03 0. -1.
       11    1    1    2    0    0  0.97728512770E-02  0.12299477030E-01  0.70347647164E+00  0.70365203981E+00  0.51109989000E-03 0. -1.
     -623    1    1    2    0    0 -0.14288214618E-01 -0.18566859049E-01  0.26173077355E-03  0.17124000160E+03  0.17124000000E+03 0. -1.
       22    1    1    2    0    0  0.45153525735E-02  0.62673680272E-02  0.35226087838E+00  0.35234556156E+00  0.00000000000E+00 0. -1.
</event>
<event>
 5   1  0.2192208E+09  0.9118800E+02  0.7818608E-02  0.1180000E+00
       11   -1    0    0    0    0  0.00000000000E+00  0.00000000000E+00  0.10559998763E+01  0.10560000000E+01  0.51109989000E-03 0.  1.
     -623   -1    0    0    0    0  0.00000000000E+00  0.00000000000E+00  0.47855275298E-10  0.17124000000E+03  0.17124000000E+03 0. -1.
       11    1    1    2    0    0  0.38582146083E-03 -0.97486760685E-03  0.17848484994E-01  0.17886555419E-01  0.51109989000E-03 0.  1.
     -623    1    1    2    0    0 -0.99417497974E-02 -0.14799765831E-01  0.20272129671E-03  0.17124000093E+03  0.17124000000E+03 0. -1.
       22    1    1    2    0    0  0.95559283514E-02  0.15774633460E-01  0.10379486716E+01  0.10381125179E+01  0.00000000000E+00 0.  1.
</event>
<event>
 5   1  0.2192208E+09  0.9118800E+02  0.7818608E-02  0.1180000E+00
       11   -1    0    0    0    0  0.00000000000E+00  0.00000000000E+00  0.10559998763E+01  0.10560000000E+01  0.51109989000E-03 0.  1.
     -623   -1    0    0    0    0  0.00000000000E+00  0.00000000000E+00  0.47855275298E-10  0.17124000000E+03  0.17124000000E+03 0. -1.
       11    1    1    2    0    0 -0.85396744325E-02 -0.26615942802E-02  0.88289118252E+00  0.88293664072E+00  0.51109989000E-03 0.  1.
     -623    1    1    2    0    0  0.97514958375E-02  0.50987812134E-02  0.67093200558E-04  0.17124000035E+03  0.17124000000E+03 0. -1.
       22    1    1    2    0    0 -0.12118216187E-02 -0.24371870450E-02  0.17304162379E+00  0.17306302885E+00  0.00000000000E+00 0.  1.
</event>
<event>
 5   1  0.2192208E+09  0.9118800E+02  0.7818608E-02  0.1180000E+00
       11   -1    0    0    0    0  0.00000000000E+00  0.00000000000E+00  0.10559998763E+01  0.10560000000E+01  0.51109989000E-03 0. -1.
     -623   -1    0    0    0    0  0.00000000000E+00  0.00000000000E+00  0.47855275298E-10  0.17124000000E+03  0.17124000000E+03 0.  1.
       11    1    1    2    0    0  0.56988984865E-02 -0.72350575917E-02  0.71604962097E+00  0.71610903110E+00  0.51109989000E-03 0. -1.
     -623    1    1    2    0    0  0.20682591676E-03  0.48961460310E-03  0.17754969445E-03  0.17124000000E+03  0.17124000000E+03 0.  1.
       22    1    1    2    0    0 -0.59057244033E-02  0.67454429883E-02  0.33977270620E+00  0.33989096849E+00  0.00000000000E+00 0.  1.
</event>
<event>
 5   1  0.2192208E+09  0.9118800E+02  0.7818608E-02  0.1180000E+00
       11   -1    0    0    0    0  0.00000000000E+00  0.00000000000E+00  0.10559998763E+01  0.10560000000E+01  0.51109989000E-03 0. -1.
     -623   -1    0    0    0    0  0.00000000000E+00  0.00000000000E+00  0.47855275298E-10  0.17124000000E+03  0.17124000000E+03 0. -1.
       11    1    1    2    0    0 -0.45443518030E-02  0.23100990212E-01  0.76743773978E+00  0.76779896623E+00  0.51109989000E-03 0. -1.
     -623    1    1    2    0    0 -0.78205530564E-02 -0.33853991835E-03  0.15278027597E-02  0.17124000019E+03  0.17124000000E+03 0. -1.
       22    1    1    2    0    0  0.12364904859E-01 -0.22762450293E-01  0.28703433374E+00  0.28820084795E+00  0.00000000000E+00 0. -1.
</event>
<event>
 5   1  0.2192208E+09  0.9118800E+02  0.7818608E-02  0.1180000E+00
       11   -1    0    0    0    0  0.00000000000E+00  0.00000000000E+00  0.10559998763E+01  0.10560000000E+01  0.51109989000E-03 0.  1.
     -623   -1    0    0    0    0  0.00000000000E+00  0.00000000000E+00  0.47855275298E-10  0.17124000000E+03  0.17124000000E+03 0. -1.
       11    1    1    2    0    0 -0.51777436210E-04  0.37043913698E-02  0.72775899112E+00  0.72776860029E+00  0.51109989000E-03 0.  1.
     -623    1    1    2    0    0 -0.10545813888E-03  0.38802933568E-04  0.30867876721E-04  0.17124000000E+03  0.17124000000E+03 0. -1.
       22    1    1    2    0    0  0.15723557516E-03 -0.37431943034E-02  0.32821001802E+00  0.32823140032E+00  0.00000000000E+00 0. -1.
</event>
<event>
 5   1  0.2192208E+09  0.9118800E+02  0.7818608E-02  0.1180000E+00
       11   -1    0    0    0    0  0.00000000000E+00  0.00000000000E+00  0.10559998763E+01  0.10560000000E+01  0.51109989000E-03 0. -1.
     -623   -1    0    0    0    0  0.00000000000E+00  0.00000000000E+00  0.47855275298E-10  0.17124000000E+03  0.17124000000E+03 0. -1.
       11    1    1    2    0    0  0.42802815529E-02  0.21693480609E-02  0.98164469230E+00  0.98165655401E+00  0.51109989000E-03 0. -1.
     -623    1    1    2    0    0 -0.43730055229E-02 -0.32228146307E-02  0.19346399691E-04  0.17124000009E+03  0.17124000000E+03 0. -1.
       22    1    1    2    0    0  0.92724086573E-04  0.10534666558E-02  0.74335865823E-01  0.74343387987E-01  0.00000000000E+00 0. -1.
</event>
<event>
 5   1  0.2192208E+09  0.9118800E+02  0.7818608E-02  0.1180000E+00
       11   -1    0    0    0    0  0.00000000000E+00  0.00000000000E+00  0.10559998763E+01  0.10560000000E+01  0.51109989000E-03 0. -1.
     -623   -1    0    0    0    0  0.00000000000E+00  0.00000000000E+00  0.47855275298E-10  0.17124000000E+03  0.17124000000E+03 0. -1.
       11    1    1    2    0    0 -0.83816195031E-03 -0.29520102728E-02  0.84515792113E+00  0.84516364673E+00  0.51109989000E-03 0. -1.
     -623    1    1    2    0    0 -0.64644694778E-04 -0.48128844959E-04  0.28881737159E-04  0.17124000000E+03  0.17124000000E+03 0. -1.
       22    1    1    2    0    0  0.90280664479E-03  0.30001391176E-02  0.21081306872E+00  0.21083634847E+00  0.00000000000E+00 0.  1.
</event>
<event>
 5   1  0.2192208E+09  0.9118800E+02  0.7818608E-02  0.1180000E+00
       11   -1    0    0    0    0  0.00000000000E+00  0.00000000000E+00  0.10559998763E+01  0.10560000000E+01  0.51109989000E-03 0.  1.
     -623   -1    0    0    0    0  0.00000000000E+00  0.00000000000E+00  0.47855275298E-10  0.17124000000E+03  0.17124000000E+03 0. -1.
       11    1    1    2    0    0  0.58357479306E-02 -0.53054617935E-02  0.97453412937E+00  0.97456617754E+00  0.51109989000E-03 0.  1.
     -623    1    1    2    0    0  0.20854772023E-02  0.41574772914E-02  0.42629123425E-03  0.17124000006E+03  0.17124000000E+03 0. -1.
       22    1    1    2    0    0 -0.79212251330E-02  0.11479845018E-02  0.81039455831E-01  0.81433758831E-01  0.00000000000E+00 0.  1.
</event>
<event>
 5   1  0.2192208E+09  0.9118800E+02  0.7818608E-02  0.1180000E+00
       11   -1    0    0    0    0  0.00000000000E+00  0.00000000000E+00  0.10559998763E+01  0.10560000000E+01  0.51109989000E-03 0. -1.
     -623   -1    0    0    0    0  0.00000000000E+00  0.00000000000E+00  0.47855275298E-10  0.17124000000E+03  0.17124000000E+03 0.  1.
       11    1    1    2    0    0  0.24043630217E-02 -0.12938763741E-02  0.92392884903E+00  0.92393302483E+00  0.51109989000E-03 0. -1.
     -623    1    1    2    0    0 -0.32083780457E-03 -0.49997872521E-03  0.32674325563E-04  0.17124000000E+03  0.17124000000E+03 0.  1.
       22    1    1    2    0    0 -0.20835252137E-02  0.17938551045E-02  0.13203836411E+00  0.13206698524E+00  0.00000000000E+00 0. -1.
</event>
<event>
 5   1  0.2192208E+09  0.9118800E+02  0.7818608E-02  0.1180000E+00
       11   -1    0    0    0    0  0.00000000000E+00  0.00000000000E+00  0.10559998763E+01  0.10560000000E+01  0.51109989000E-03 0.  1.
     -623   -1    0    0    0    0  0.00000000000E+00  0.00000000000E+00  0.47855275298E-10  0.17124000000E+03  0.17124000000E+03 0.  1.
       11    1    1    2    0    0 -0.30477839511E-02  0.12912807561E-01  0.90429657610E+00  0.90439404484E+00  0.51109989000E-03 0.  1.
     -623    1    1    2    0    0  0.21607770230E-02 -0.14538666422E-01  0.10928930647E-03  0.17124000063E+03  0.17124000000E+03 0.  1.
       22    1    1    2    0    0  0.88700700208E-03  0.16258583635E-02  0.15159397480E+00  0.15160528814E+00  0.00000000000E+00 0.  1.
</event>
<event>
 5   1  0.2192208E+09  0.9118800E+02  0.7818608E-02  0.1180000E+00
       11   -1    0    0    0    0  0.00000000000E+00  0.00000000000E+00  0.10559998763E+01  0.10560000000E+01  0.51109989000E-03 0. -1.
     -623   -1    0    0    0    0  0.00000000000E+00  0.00000000000E+00  0.47855275298E-10  0.17124000000E+03  0.17124000000E+03 0.  1.
       11    1    1    2    0    0 -0.43734442537E-02 -0.13070203969E-01  0.99675746547E+00  0.99685287954E+00  0.51109989000E-03 0. -1.
     -623    1    1    2    0    0  0.41541398916E-02  0.13930107646E-01  0.10256525439E-03  0.17124000062E+03  0.17124000000E+03 0.  1.
       22    1    1    2    0    0  0.21930363883E-03 -0.85990610145E-03  0.59140029462E-01  0.59146687289E-01  0.00000000000E+00 0. -1.
</event>
<event>
 5   1  0.2192208E+09  0.9118800E+02  0.7818608E-02  0.1180000E+00
       11   -1    0    0    0    0  0.00000000000E+00  0.00000000000E+00  0.10559998763E+01  0.10560000000E+01  0.51109989000E-03 0. -1.
     -623   -1    0    0    0    0  0.00000000000E+00  0.00000000000E+00  0.47855275298E-10  0.17124000000E+03  0.17124000000E+03 0. -1.
       11    1    1    2    0    0  0.12253025652E-02 -0.17865698813E-01  0.91427050357E+00  0.91444600687E+00  0.51109989000E-03 0. -1.
     -623    1    1    2    0    0 -0.13585146148E-02  0.20029783062E-01  0.19316270056E-03  0.17124000118E+03  0.17124000000E+03 0. -1.
       22    1    1    2    0    0  0.13321180580E-03 -0.21640806541E-02  0.14153602058E+00  0.14155262665E+00  0.00000000000E+00 0. -1.
</event>
<event>
 5   1  0.2192208E+09  0.9118800E+02  0.7818608E-02  0.1180000E+00
       11   -1    0    0    0    0  0.00000000000E+00  0.00000000000E+00  0.10559998763E+01  0.10560000000E+01  0.51109989000E-03 0.  1.
     -623   -1    0    0    0    0  0.00000000000E+00  0.00000000000E+00  0.47855275298E-10  0.17124000000E+03  0.17124000000E+03 0.  1.
       11    1    1    2    0    0  0.38963005682E-02 -0.15885948923E-02  0.93517198502E+00  0.93518159070E+00  0.51109989000E-03 0.  1.
     -623    1    1    2    0    0 -0.53064270364E-02  0.16340892017E-03  0.26200426349E-04  0.17124000008E+03  0.17124000000E+03 0.  1.
       22    1    1    2    0    0  0.14101265104E-02  0.14251859708E-02  0.12080169932E+00  0.12081833540E+00  0.00000000000E+00 0.  1.
</event>
<event>
 5   1  0.2192208E+09  0.9118800E+02  0.7818608E-02  0.1180000E+00
       11   -1    0    0    0    0  0.00000000000E+00  0.00000000000E+00  0.10559998763E+01  0.10560000000E+01  0.51109989000E-03 0.  1.
     -623   -1    0    0    0    0  0.00000000000E+00  0.00000000000E+00  0.47855275298E-10  0.17124000000E+03  0.17124000000E+03 0. -1.
       11    1    1    2    0    0  0.46549612904E-02 -0.71964471248E-03  0.73130674850E+00  0.73132209605E+00  0.51109989000E-03 0.  1.
     -623    1    1    2    0    0 -0.37507062573E-02 -0.39982610261E-02  0.50850869907E-04  0.17124000009E+03  0.17124000000E+03 0. -1.
       22    1    1    2    0    0 -0.90425498255E-03  0.47179057924E-02  0.32464229121E+00  0.32467783041E+00  0.00000000000E+00 0.  1.
</event>
<event>
 5   1  0.2192208E+09  0.9118800E+02  0.7818608E-02  0.1180000E+00
       11   -1    0    0    0    0  0.00000000000E+00  0.00000000000E+00  0.10559998763E+01  0.10560000000E+01  0.51109989000E-03 0. -1.
     -623   -1    0    0    0    0  0.00000000000E+00  0.00000000000E+00  0.47855275298E-10  0.17124000000E+03  0.17124000000E+03 0. -1.
       11    1    1    2    0    0  0.94334965907E-02 -0.11089158317E-01  0.97675748794E+00  0.97686611762E+00  0.51109989000E-03 0. -1.
     -623    1    1    2    0    0 -0.10562206281E-01  0.11921630694E-01  0.12167619323E-03  0.17124000074E+03  0.17124000000E+03 0. -1.
       22    1    1    2    0    0  0.11287075417E-02 -0.83246995237E-03  0.79120497463E-01  0.79132926811E-01  0.00000000000E+00 0.  1.
</event>
<event>
 5   1  0.2192208E+09  0.9118800E+02  0.7818608E-02  0.1180000E+00
       11   -1    0    0    0    0  0.00000000000E+00  0.00000000000E+00  0.10559998763E+01  0.10560000000E+01  0.51109989000E-03 0. -1.
     -623   -1    0    0    0    0  0.00000000000E+00  0.00000000000E+00  0.47855275298E-10  0.17124000000E+03  0.17124000000E+03 0. -1.
       11    1    1    2    0    0 -0.62642001666E-02  0.10834033223E-01  0.62220807303E+00  0.62233412557E+00  0.51109989000E-03 0. -1.
     -623    1    1    2    0    0  0.11210730059E-01 -0.21246979500E-01  0.28086771776E-03  0.17124000169E+03  0.17124000000E+03 0. -1.
       22    1    1    2    0    0 -0.49465307440E-02  0.10412947891E-01  0.43351101580E+00  0.43366426931E+00  0.00000000000E+00 0. -1.
</event>
<event>
 5   1  0.2192208E+09  0.9118800E+02  0.7818608E-02  0.1180000E+00
       11   -1    0    0    0    0  0.00000000000E+00  0.00000000000E+00  0.10559998763E+01  0.10560000000E+01  0.51109989000E-03 0.  1.
     -623   -1    0    0    0    0  0.00000000000E+00  0.00000000000E+00  0.47855275298E-10  0.17124000000E+03  0.17124000000E+03 0. -1.
       11    1    1    2    0    0 -0.55500061524E-03 -0.34633159648E-02  0.90658991114E+00  0.90659684027E+00  0.51109989000E-03 0.  1.
     -623    1    1    2    0    0  0.35035896256E-03  0.55214034715E-02  0.21211198166E-04  0.17124000009E+03  0.17124000000E+03 0. -1.
       22    1    1    2    0    0  0.20464165517E-03 -0.20580874675E-02  0.14938874653E+00  0.14940306286E+00  0.00000000000E+00 0.  1.
</event>
<event>
 5   1  0.2192208E+09  0.9118800E+02  0.7818608E-02  0.1180000E+00
       11   -1    0    0    0    0  0.00000000000E+00  0.00000000000E+00  0.10559998763E+01  0.10560000000E+01  0.51109989000E-03 0.  1.
     -623   -1    0    0    0    0  0.00000000000E+00  0.00000000000E+00  0.47855275298E-10  0.17124000000E+03  0.17124000000E+03 0. -1.
       11    1    1    2    0    0  0.17435689865E-03  0.30846230125E-02  0.79483666411E+00  0.79484283298E+00  0.51109989000E-03 0.  1.
     -623    1    1    2    0    0  0.82888715567E-04  0.37088919452E-04  0.24830140431E-04  0.17124000000E+03  0.17124000000E+03 0. -1.
       22    1    1    2    0    0 -0.25724561350E-03 -0.31217119317E-02  0.26113837302E+00  0.26115715790E+00  0.00000000000E+00 0.  1.
</event>
<event>
 5   1  0.2192208E+09  0.9118800E+02  0.7818608E-02  0.1180000E+00
       11   -1    0    0    0    0  0.00000000000E+00  0.00000000000E+00  0.10559998763E+01  0.10560000000E+01  0.51109989000E-03 0.  1.
     -623   -1    0    0    0    0  0.00000000000E+00  0.00000000000E+00  0.47855275298E-10  0.17124000000E+03  0.17124000000E+03 0. -1.
       11    1    1    2    0    0  0.82667288070E-02  0.12152540657E-01  0.96062733370E+00  0.96073990159E+00  0.51109989000E-03 0.  1.
     -623    1    1    2    0    0 -0.92854711711E-02 -0.13339354605E-01  0.12605703061E-03  0.17124000077E+03  0.17124000000E+03 0. -1.
       22    1    1    2    0    0  0.10187368364E-02  0.11868060067E-02  0.95245857069E-01  0.95258698406E-01  0.00000000000E+00 0.  1.
</event>
<event>
 5   1  0.2192208E+09  0.9118800E+02  0.7818608E-02  0.1180000E+00
       11   -1    0    0    0    0  0.00000000000E+00  0.00000000000E+00  0.10559998763E+01  0.10560000000E+01  0.51109989000E-03 0. -1.
     -623   -1    0    0    0    0  0.00000000000E+00  0.00000000000E+00  0.47855275298E-10  0.17124000000E+03  0.17124000000E+03 0.  1.
       11    1    1    2    0    0  0.76720003246E-04 -0.25397076514E-02  0.90666917705E+00  0.90667288138E+00  0.51109989000E-03 0. -1.
     -623    1    1    2    0    0 -0.11129469085E-03 -0.10069916457E-03  0.26930471361E-04  0.17124000000E+03  0.17124000000E+03 0.  1.
       22    1    1    2    0    0  0.34574687480E-04  0.26404068158E-02  0.14930376763E+00  0.14932711734E+00  0.00000000000E+00 0.  1.
</event>
<event>
 5   1  0.2192208E+09  0.9118800E+02  0.7818608E-02  0.1180000E+00
       11   -1    0    0    0    0  0.00000000000E+00  0.00000000000E+00  0.10559998763E+01  0.10560000000E+01  0.51109989000E-03 0. -1.
     -623   -1    0    0    0    0  0.00000000000E+00  0.00000000000E+00  0.47855275298E-10  0.17124000000E+03  0.17124000000E+03 0. -1.
       11    1    1    2    0    0 -0.57270924535E-02 -0.16027654465E-02  0.62567246281E+00  0.62570093526E+00  0.51109989000E-03 0. -1.
     -623    1    1    2    0    0  0.33794260711E-02  0.93780014549E-02  0.10529701227E-03  0.17124000029E+03  0.17124000000E+03 0. -1.
       22    1    1    2    0    0  0.23476663612E-02 -0.77752360670E-02  0.43022212315E+00  0.43029878117E+00  0.00000000000E+00 0. -1.
</event>
<event>
 5   1  0.2192208E+09  0.9118800E+02  0.7818608E-02  0.1180000E+00
       11   -1    0    0    0    0  0.00000000000E+00  0.00000000000E+00  0.10559998763E+01  0.10560000000E+01  0.51109989000E-03 0. -1.
     -623   -1    0    0    0    0  0.00000000000E+00  0.00000000000E+00  0.47855275298E-10  0.17124000000E+03  0.17124000000E+03 0.  1.
       11    1    1    2    0    0  0.18156091788E-02  0.16096560240E-02  0.97409436273E+00  0.97409751881E+00  0.51109989000E-03 0. -1.
     -623    1    1    2    0    0  0.25674824043E-03  0.17631953642E-03  0.48736252602E-04  0.17124000000E+03  0.17124000000E+03 0.  1.
       22    1    1    2    0    0 -0.20723574187E-02 -0.17859755601E-02  0.81856775312E-01  0.81902478830E-01  0.00000000000E+00 0. -1.
</event>
<event>
 5   1  0.2192208E+09  0.9118800E+02  0.7818608E-02  0.1180000E+00
       11   -1    0    0    0    0  0.00000000000E+00  0.00000000000E+00  0.10559998763E+01  0.10560000000E+01  0.51109989000E-03 0.  1.
     -623   -1    0    0    0    0  0.00000000000E+00  0.00000000000E+00  0.47855275298E-10  0.17124000000E+03  0.17124000000E+03 0. -1.
       11    1    1    2    0    0 -0.30113496453E-02 -0.13630977818E-01  0.98009408172E+00  0.98019362476E+00  0.51109989000E-03 0.  1.
     -623    1    1    2    0    0  0.32983356115E-02  0.14705617137E-01  0.10824349112E-03  0.17124000066E+03  0.17124000000E+03 0. -1.
       22    1    1    2    0    0 -0.28697810420E-03 -0.10746042659E-02  0.75795034318E-01  0.75803194907E-01  0.00000000000E+00 0.  1.
</event>
<event>
 5   1  0.2192208E+09  0.9118800E+02  0.7818608E-02  0.1180000E+00
       11   -1    0    0    0    0  0.00000000000E+00  0.00000000000E+00  0.10559998763E+01  0.10560000000E+01  0.51109989000E-03 0.  1.
     -623   -1    0    0    0    0  0.00000000000E+00  0.00000000000E+00  0.47855275298E-10  0.17124000000E+03  0.17124000000E+03 0. -1.
       11    1    1    2    0    0 -0.67115191046E-03 -0.61978277928E-03  0.98739898302E+00  0.98739953791E+00  0.51109989000E-03 0.  1.
     -623    1    1    2    0    0  0.15827716069E-03 -0.45913787651E-03  0.10834338418E-04  0.17124000000E+03  0.17124000000E+03 0. -1.
       22    1    1    2    0    0  0.51287474751E-03  0.10789206623E-02  0.68590074063E-01  0.68600476458E-01  0.00000000000E+00 0. -1.
</event>
<event>
 5   1  0.2192208E+09  0.9118800E+02  0.7818608E-02  0.1180000E+00
       11   -1    0    0    0    0  0.00000000000E+00  0.00000000000E+00  0.10559998763E+01  0.10560000000E+01  0.51109989000E-03 0.  1.
     -623   -1    0    0    0    0  0.00000000000E+00  0.00000000000E+00  0.47855275298E-10  0.17124000000E+03  0.17124000000E+03 0. -1.
       11    1    1    2    0    0  0.15720519741E-01  0.17235392673E-01  0.96956886693E+00  0.96984959785E+00  0.51109989000E-03 0.  1.
     -623    1    1    2    0    0 -0.16045867653E-01 -0.18600488984E-01  0.29380017636E-03  0.17124000176E+03  0.17124000000E+03 0. -1.
       22    1    1    2    0    0  0.32534809722E-03  0.13650965264E-02  0.86137221451E-01  0.86148652103E-01  0.00000000000E+00 0.  1.
</event>
<event>
 5   1  0.2192208E+09  0.9118800E+02  0.7818608E-02  0.1180000E+00
       11   -1    0    0    0    0  0.00000000000E+00  0.00000000000E+00  0.10559998763E+01  0.10560000000E+01  0.51109989000E-03 0. -1.
     -623   -1    0    0    0    0  0.00000000000E+00  0.00000000000E+00  0.47855275298E-10  0.17124000000E+03  0.17124000000E+03 0.  1.
       11    1    1    2    0    0  0.12872957601E-02 -0.62019133246E-02  0.65115983162E+00  0.65119083869E+00  0.51109989000E-03 0. -1.
     -623    1    1    2    0    0 -0.61188969390E-03  0.46217675635E-03  0.72142204554E-04  0.17124000000E+03  0.17124000000E+03 0.  1.
       22    1    1    2    0    0 -0.67540607015E-03  0.57397365712E-02  0.40476789576E+00  0.40480915279E+00  0.00000000000E+00 0. -1.
</event>
<event>
 5   1  0.2192208E+09  0.9118800E+02  0.7818608E-02  0.1180000E+00
       11   -1    0    0    0    0  0.00000000000E+00  0.00000000000E+00  0.10559998763E+01  0.10560000000E+01  0.51109989000E-03 0. -1.
     -623   -1    0    0    0    0  0.00000000000E+00  0.00000000000E+00  0.47855275298E-10  0.17124000000E+03  0.17124000000E+03 0. -1.
       11    1    1    2    0    0 -0.28568987322E-02 -0.78726339079E-02  0.91384106438E+00  0.91387958310E+00  0.51109989000E-03 0. -1.
     -623    1    1    2    0    0  0.40161556542E-03  0.10780260430E-01  0.89696406319E-04  0.17124000034E+03  0.17124000000E+03 0. -1.
       22    1    1    2    0    0  0.24552831657E-02 -0.29076265514E-02  0.14206911845E+00  0.14212007995E+00  0.00000000000E+00 0. -1.
</event>
<event>
 5   1  0.2192208E+09  0.9118800E+02  0.7818608E-02  0.1180000E+00
       11   -1    0    0    0    0  0.00000000000E+00  0.00000000000E+00  0.10559998763E+01  0.10560000000E+01  0.51109989000E-03 0. -1.
     -623   -1    0    0    0    0  0.00000000000E+00  0.00000000000E+00  0.47855275298E-10  0.17124000000E+03  0.17124000000E+03 0.  1.
       11    1    1    2    0    0 -0.12038119520E-01  0.14083007399E-01  0.89545100785E+00  0.89564279493E+00  0.51109989000E-03 0. -1.
     -623    1    1    2    0    0  0.15963656387E-01 -0.18833855490E-01  0.31191297456E-03  0.17124000178E+03  0.17124000000E+03 0.  1.
       22    1    1    2    0    0 -0.39255367806E-02  0.47508479890E-02  0.16023694980E+00  0.16035541923E+00  0.00000000000E+00 0. -1.
</event>
<event>
 5   1  0.2192208E+09  0.9118800E+02  0.7818608E-02  0.1180000E+00
       11   -1    0    0    0    0  0.00000000000E+00  0.00000000000E+00  0.10559998763E+01  0.10560000000E+01  0.51109989000E-03 0.  1.
     -623   -1    0    0    0    0  0.00000000000E+00  0.00000000000E+00  0.47855275298E-10  0.17124000000E+03  0.17124000000E+03 0.  1.
       11    1    1    2    0    0  0.22690816231E-01  0.10270243945E-01  0.79450661307E+00  0.79489708169E+00  0.51109989000E-03 0.  1.
     -623    1    1    2    0    0 -0.29663068332E-01 -0.13796965458E-01  0.51040639004E-03  0.17124000313E+03  0.17124000000E+03 0.  1.
       22    1    1    2    0    0  0.69722663700E-02  0.35267281505E-02  0.26098336465E+00  0.26110030052E+00  0.00000000000E+00 0.  1.
</event>
<event>
 5   1  0.2192208E+09  0.9118800E+02  0.7818608E-02  0.1180000E+00
       11   -1    0    0    0    0  0.00000000000E+00  0.00000000000E+00  0.10559998763E+01  0.10560000000E+01  0.51109989000E-03 0. -1.
     -623   -1    0    0    0    0  0.00000000000E+00  0.00000000000E+00  0.47855275298E-10  0.17124000000E+03  0.17124000000E+03 0. -1.
       11    1    1    2    0    0  0.22539330178E-02 -0.92858174480E-02  0.65400326078E+00  0.65407326268E+00  0.51109989000E-03 0. -1.
     -623    1    1    2    0    0 -0.25928366279E-02  0.14414983210E-01  0.10337671043E-03  0.17124000063E+03  0.17124000000E+03 0. -1.
       22    1    1    2    0    0  0.33890354387E-03 -0.51291653936E-02  0.40189321191E+00  0.40192608396E+00  0.00000000000E+00 0. -1.
</event>
<event>
 5   1  0.2192208E+09  0.9118800E+02  0.7818608E-02  0.1180000E+00
       11   -1    0    0    0    0  0.00000000000E+00  0.00000000000E+00  0.10559998763E+01  0.10560000000E+01  0.51109989000E-03 0. -1.
     -623   -1    0    0    0    0  0.00000000000E+00  0.00000000000E+00  0.47855275298E-10  0.17124000000E+03  0.17124000000E+03 0.  1.
       11    1    1    2    0    0  0.27726290980E-04 -0.12129977464E-02  0.99621382111E+00  0.99621469108E+00  0.51109989000E-03 0. -1.
     -623    1    1    2    0    0  0.92125657063E-04  0.48252157112E-03  0.53299440181E-05  0.17124000000E+03  0.17124000000E+03 0.  1.
       22    1    1    2    0    0 -0.11985194935E-03  0.73047616844E-03  0.59780740292E-01  0.59785323197E-01  0.00000000000E+00 0. -1.
</event>
<event>
 5   1  0.2192208E+09  0.9118800E+02  0.7818608E-02  0.1180000E+00
       11   -1    0    0    0    0  0.00000000000E+00  0.00000000000E+00  0.10559998763E+01  0.10560000000E+01  0.51109989000E-03 0. -1.
     -623   -1    0    0    0    0  0.00000000000E+00  0.00000000000E+00  0.47855275298E-10  0.17124000000E+03  0.17124000000E+03 0. -1.
       11    1    1    2    0    0 -0.19553450163E-02 -0.49673427148E-02  0.52937641873E+00  0.52940358121E+00  0.51109989000E-03 0. -1.
     -623    1    1    2    0    0  0.41007527173E-02  0.10935948268E-01  0.65633883790E-04  0.17124000040E+03  0.17124000000E+03 0. -1.
       22    1    1    2    0    0 -0.21454074231E-02 -0.59686048124E-02  0.52655775218E+00  0.52659594890E+00  0.00000000000E+00 0. -1.
</event>
<event>
 5   1  0.2192208E+09  0.9118800E+02  0.7818608E-02  0.1180000E+00
       11   -1    0    0    0    0  0.00000000000E+00  0.00000000000E+00  0.10559998763E+01  0.10560000000E+01  0.51109989000E-03 0. -1.
     -623   -1    0    0    0    0  0.00000000000E+00  0.00000000000E+00  0.47855275298E-10  0.17124000000E+03  0.17124000000E+03 0.  1.
       11    1    1    2    0    0  0.10850205994E-02 -0.96777367633E-03  0.99104356929E+00  0.99104476756E+00  0.51109989000E-03 0. -1.
     -623    1    1    2    0    0 -0.42496930130E-03 -0.66860372481E-03  0.25046614520E-04  0.17124000000E+03  0.17124000000E+03 0.  1.
       22    1    1    2    0    0 -0.66005129367E-03  0.16363774081E-02  0.64931271532E-01  0.64955241679E-01  0.00000000000E+00 0.  1.
</event>
<event>
 5   1  0.2192208E+09  0.9118800E+02  0.7818608E-02  0.1180000E+00
       11   -1    0    0    0    0  0.00000000000E+00  0.00000000000E+00  0.10559998763E+01  0.10560000000E+01  0.51109989000E-03 0.  1.
     -623   -1    0    0    0    0  0.00000000000E+00  0.00000000000E+00  0.47855275298E-10  0.17124000000E+03  0.17124000000E+03 0.  1.
       11    1    1    2    0    0 -0.64953868998E-02  0.22373807799E-01  0.86090346575E+00  0.86121879676E+00  0.51109989000E-03 0.  1.
     -623    1    1    2    0    0  0.93706491159E-02 -0.28077484351E-01  0.42252618664E-03  0.17124000256E+03  0.17124000000E+03 0.  1.
       22    1    1    2    0    0 -0.28752625435E-02  0.57036775327E-02  0.19467392130E+00  0.19477868135E+00  0.00000000000E+00 0.  1.
</event>
<event>
 5   1  0.2192208E+09  0.9118800E+02  0.7818608E-02  0.1180000E+00
       11   -1    0    0    0    0  0.00000000000E+00  0.00000000000E+00  0.10559998763E+01  0.10560000000E+01  0.51109989000E-03 0. -1.
     -623   -1    0    0    0    0  0.00000000000E+00  0.00000000000E+00  0.47855275298E-10  0.17124000000E+03  0.17124000000E+03 0. -1.
       11    1    1    2    0    0  0.19555764979E-01  0.16725591817E-01  0.97272171716E+00  0.97306216329E+00  0.51109989000E-03 0. -1.
     -623    1    1    2    0    0 -0.19926415742E-01 -0.17909644180E-01  0.35169976119E-03  0.17124000210E+03  0.17124000000E+03 0. -1.
       22    1    1    2    0    0  0.37065081790E-03  0.11840524121E-02  0.82926462333E-01  0.82935743303E-01  0.00000000000E+00 0. -1.
</event>
<event>
 5   1  0.2192208E+09  0.9118800E+02  0.7818608E-02  0.1180000E+00
       11   -1    0    0    0    0  0.00000000000E+00  0.00000000000E+00  0.10559998763E+01  0.10560000000E+01  0.51109989000E-03 0.  1.
     -623   -1    0    0    0    0  0.00000000000E+00  0.00000000000E+00  0.47855275298E-10  0.17124000000E+03  0.17124000000E+03 0. -1.
       11    1    1    2    0    0 -0.17561893777E-03  0.52601031464E-03  0.10045819416E+01  0.10045822247E+01  0.51109989000E-03 0.  1.
     -623    1    1    2    0    0  0.14788551483E-04  0.28653133819E-03  0.68318316404E-05  0.17124000000E+03  0.17124000000E+03 0. -1.
       22    1    1    2    0    0  0.16083038552E-03 -0.81254166766E-03  0.51411157568E-01  0.51417829718E-01  0.00000000000E+00 0. -1.
</event>
<event>
 5   1  0.2192208E+09  0.9118800E+02  0.7818608E-02  0.1180000E+00
       11   -1    0    0    0    0  0.00000000000E+00  0.00000000000E+00  0.10559998763E+01  0.10560000000E+01  0.51109989000E-03 0. -1.
     -623   -1    0    0    0    0  0.00000000000E+00  0.00000000000E+00  0.47855275298E-10  0.17124000000E+03  0.17124000000E+03 0. -1.
       11    1    1    2    0    0  0.10909196371E-02 -0.60867202428E-02  0.24489581613E+00  0.24497440733E+00  0.51109989000E-03 0. -1.
     -623    1    1    2    0    0  0.53517701432E-02 -0.21099922180E-01  0.56125170865E-03  0.17124000138E+03  0.17124000000E+03 0. -1.
       22    1    1    2    0    0 -0.64426897806E-02  0.27186642424E-01  0.81054280859E+00  0.81102420822E+00  0.00000000000E+00 0. -1.
</event>
<event>
 5   1  0.2192208E+09  0.9118800E+02  0.7818608E-02  0.1180000E+00
       11   -1    0    0    0    0  0.00000000000E+00  0.00000000000E+00  0.10559998763E+01  0.10560000000E+01  0.51109989000E-03 0. -1.
     -623   -1    0    0    0    0  0.00000000000E+00  0.00000000000E+00  0.47855275298E-10  0.17124000000E+03  0.17124000000E+03 0.  1.
       11    1    1    2    0    0 -0.15335633586E-02 -0.53180402653E-02  0.81304625305E+00  0.81306525211E+00  0.51109989000E-03 0. -1.
     -623    1    1    2    0    0 -0.16812349261E-03  0.28219023753E-02  0.37683222593E-04  0.17124000002E+03  0.17124000000E+03 0.  1.
       22    1    1    2    0    0  0.17016868513E-02  0.24961378896E-02  0.24291594027E+00  0.24293472473E+00  0.00000000000E+00 0. -1.
</event>
<event>
 5   1  0.2192208E+09  0.9118800E+02  0.7818608E-02  0.1180000E+00
       11   -1    0    0    0    0  0.00000000000E+00  0.00000000000E+00  0.10559998763E+01  0.10560000000E+01  0.51109989000E-03 0.  1.
     -623   -1    0    0    0    0  0.00000000000E+00  0.00000000000E+00  0.47855275298E-10  0.17124000000E+03  0.17124000000E+03 0. -1.
       11    1    1    2    0    0 -0.85781499846E-03  0.65304518164E-02  0.97579559661E+00  0.97581795958E+00  0.51109989000E-03 0.  1.
     -623    1    1    2    0    0 -0.32114347365E-02 -0.47544681260E-02  0.14535600296E-03  0.17124000010E+03  0.17124000000E+03 0. -1.
       22    1    1    2    0    0  0.40692497451E-02 -0.17759836754E-02  0.80058927065E-01  0.80181947559E-01  0.00000000000E+00 0.  1.
</event>
<event>
 5   1  0.2192208E+09  0.9118800E+02  0.7818608E-02  0.1180000E+00
       11   -1    0    0    0    0  0.00000000000E+00  0.00000000000E+00  0.10559998763E+01  0.10560000000E+01  0.51109989000E-03 0.  1.
     -623   -1    0    0    0    0  0.00000000000E+00  0.00000000000E+00  0.47855275298E-10  0.17124000000E+03  0.17124000000E+03 0. -1.
       11    1    1    2    0    0 -0.29624144471E-02  0.13338189329E-02  0.20738447858E+00  0.20741055458E+00  0.51109989000E-03 0.  1.
     -623    1    1    2    0    0  0.12218773216E-01 -0.15358929622E-01  0.19347802256E-03  0.17124000112E+03  0.17124000000E+03 0. -1.
       22    1    1    2    0    0 -0.92563589562E-02  0.14025110924E-01  0.84842193597E+00  0.84858833680E+00  0.00000000000E+00 0.  1.
</event>
<event>
 5   1  0.2192208E+09  0.9118800E+02  0.7818608E-02  0.1180000E+00
       11   -1    0    0    0    0  0.00000000000E+00  0.00000000000E+00  0.10559998763E+01  0.10560000000E+01  0.51109989000E-03 0.  1.
     -623   -1    0    0    0    0  0.00000000000E+00  0.00000000000E+00  0.47855275298E-10  0.17124000000E+03  0.17124000000E+03 0.  1.
       11    1    1    2    0    0  0.25953808871E-03 -0.96951274949E-03  0.99049423806E+00  0.99049487841E+00  0.51109989000E-03 0.  1.
     -623    1    1    2    0    0 -0.12997572946E-04  0.11697441703E-03  0.65288023099E-05  0.17124000000E+03  0.17124000000E+03 0.  1.
       22    1    1    2    0    0 -0.24654051500E-03  0.85253832564E-03  0.65499171101E-01  0.65505183144E-01  0.00000000000E+00 0.  1.
</event>
<event>
 5   1  0.2192208E+09  0.9118800E+02  0.7818608E-02  0.1180000E+00
       11   -1    0    0    0    0  0.00000000000E+00  0.00000000000E+00  0.10559998763E+01  0.10560000000E+01  0.51109989000E-03 0.  1.
     -623   -1    0    0    0    0  0.00000000000E+00  0.00000000000E+00  0.47855275298E-10  0.17124000000E+03  0.17124000000E+03 0. -1.
       11    1    1    2    0    0  0.58080810939E-02 -0.94478118608E-02  0.97805725911E+00  0.97812026780E+00  0.51109989000E-03 0.  1.
     -623    1    1    2    0    0 -0.77249230921E-02  0.85773394785E-02  0.91733643271E-04  0.17124000039E+03  0.17124000000E+03 0. -1.
       22    1    1    2    0    0  0.19168419594E-02  0.87047242549E-03  0.77850878292E-01  0.77879337800E-01  0.00000000000E+00 0.  1.
</event>
<event>
 5   1  0.2192208E+09  0.9118800E+02  0.7818608E-02  0.1180000E+00
       11   -1    0    0    0    0  0.00000000000E+00  0.00000000000E+00  0.10559998763E+01  0.10560000000E+01  0.51109989000E-03 0. -1.
     -623   -1    0    0    0    0  0.00000000000E+00  0.00000000000E+00  0.47855275298E-10  0.17124000000E+03  0.17124000000E+03 0.  1.
       11    1    1    2    0    0 -0.32486422153E-02 -0.11959982166E-01  0.92626998648E+00  0.92635303418E+00  0.51109989000E-03 0. -1.
     -623    1    1    2    0    0  0.32995787460E-02  0.13398946851E-01  0.91475978673E-04  0.17124000056E+03  0.17124000000E+03 0.  1.
       22    1    1    2    0    0 -0.50935771056E-04 -0.14389615992E-02  0.12963817079E+00  0.12964616667E+00  0.00000000000E+00 0.  1.
</event>
<event>
 5   1  0.2192208E+09  0.9118800E+02  0.7818608E-02  0.1180000E+00
       11   -1    0    0    0    0  0.00000000000E+00  0.00000000000E+00  0.10559998763E+01  0.10560000000E+01  0.51109989000E-03 0.  1.
     -623   -1    0    0    0    0  0.00000000000E+00  0.00000000000E+00  0.47855275298E-10  0.17124000000E+03  0.17124000000E+03 0. -1.
       11    1    1    2    0    0  0.68370202528E-02 -0.54873021924E-02  0.99956665184E+00  0.99960522609E+00  0.51109989000E-03 0.  1.
     -623    1    1    2    0    0 -0.71067421428E-02  0.63774241099E-02  0.46387151244E-04  0.17124000027E+03  0.17124000000E+03 0. -1.
       22    1    1    2    0    0  0.26972133830E-03 -0.89012142245E-03  0.56386755396E-01  0.56394425699E-01  0.00000000000E+00 0.  1.
</event>
<event>
 5   1  0.2192208E+09  0.9118800E+02  0.7818608E-02  0.1180000E+00
       11   -1    0    0    0    0  0.00000000000E+00  0.00000000000E+00  0.10559998763E+01  0.10560000000E+01  0.51109989000E-03 0. -1.
     -623   -1    0    0    0    0  0.00000000000E+00  0.00000000000E+00  0.47855275298E-10  0.17124000000E+03  0.17124000000E+03 0. -1.
       11    1    1    2    0    0  0.35580864722E-02 -0.10167919925E-01  0.93552210607E+00  0.93558426598E+00  0.51109989000E-03 0. -1.
     -623    1    1    2    0    0 -0.36090087125E-02  0.11468214705E-01  0.69489874490E-04  0.17124000042E+03  0.17124000000E+03 0. -1.
       22    1    1    2    0    0  0.50921284039E-04 -0.13002917413E-02  0.12040800062E+00  0.12041503214E+00  0.00000000000E+00 0. -1.
</event>
<event>
 5   1  0.2192208E+09  0.9118800E+02  0.7818608E-02  0.1180000E+00
       11   -1    0    0    0    0  0.00000000000E+00  0.00000000000E+00  0.10559998763E+01  0.10560000000E+01  0.51109989000E-03 0.  1.
     -623   -1    0    0    0    0  0.00000000000E+00  0.00000000000E+00  0.47855275298E-10  0.17124000000E+03  0.17124000000E+03 0.  1.
       11    1    1    2    0    0  0.92212551047E-03 -0.11005639556E-02  0.96418830723E+00  0.96418951175E+00  0.51109989000E-03 0.  1.
     -623    1    1    2    0    0 -0.66084056561E-03 -0.30130855865E-03  0.12157630883E-04  0.17124000000E+03  0.17124000000E+03 0.  1.
       22    1    1    2    0    0 -0.26128495365E-03  0.14018725103E-02  0.91799397469E-01  0.91810472671E-01  0.00000000000E+00 0.  1.
</event>
<event>
 5   1  0.2192208E+09  0.9118800E+02  0.7818608E-02  0.1180000E+00
       11   -1    0    0    0    0  0.00000000000E+00  0.00000000000E+00  0.10559998763E+01  0.10560000000E+01  0.51109989000E-03 0.  1.
     -623   -1    0    0    0    0  0.00000000000E+00  0.00000000000E+00  0.47855275298E-10  0.17124000000E+03  0.17124000000E+03 0.  1.
       11    1    1    2    0    0 -0.20031729455E-02  0.21276836910E-01  0.99361254127E+00  0.99384247237E+00  0.51109989000E-03 0.  1.
     -623    1    1    2    0    0  0.21217276386E-02 -0.22484530293E-01  0.24314388169E-03  0.17124000149E+03  0.17124000000E+03 0.  1.
       22    1    1    2    0    0 -0.11855738516E-03  0.12077219122E-02  0.62145530796E-01  0.62157378049E-01  0.00000000000E+00 0. -1.
</event>
<event>
 5   1  0.2192208E+09  0.9118800E+02  0.7818608E-02  0.1180000E+00
       11   -1    0    0    0    0  0.00000000000E+00  0.00000000000E+00  0.10559998763E+01  0.10560000000E+01  0.51109989000E-03 0. -1.
     -623   -1    0    0    0    0  0.00000000000E+00  0.00000000000E+00  0.47855275298E-10  0.17124000000E+03  0.17124000000E+03 0.  1.
       11    1    1    2    0    0 -0.40023829555E-02 -0.25685824909E-01  0.94656749006E+00  0.94692452451E+00  0.51109989000E-03 0. -1.
     -623    1    1    2    0    0  0.44269757223E-02  0.28633676272E-01  0.40003138681E-03  0.17124000245E+03  0.17124000000E+03 0.  1.
       22    1    1    2    0    0 -0.42460214688E-03 -0.29479120339E-02  0.10903459158E+00  0.10907526132E+00  0.00000000000E+00 0. -1.
</event>
<event>
 5   1  0.2192208E+09  0.9118800E+02  0.7818608E-02  0.1180000E+00
       11   -1    0    0    0    0  0.00000000000E+00  0.00000000000E+00  0.10559998763E+01  0.10560000000E+01  0.51109989000E-03 0.  1.
     -623   -1    0    0    0    0  0.00000000000E+00  0.00000000000E+00  0.47855275298E-10  0.17124000000E+03  0.17124000000E+03 0.  1.
       11    1    1    2    0    0 -0.12524433466E-04  0.21513127577E-02  0.93331523078E+00  0.93331785022E+00  0.51109989000E-03 0.  1.
     -623    1    1    2    0    0 -0.31257598220E-03 -0.68728856643E-03  0.11664004174E-04  0.17124000000E+03  0.17124000000E+03 0.  1.
       22    1    1    2    0    0  0.32510040994E-03 -0.14640242039E-02  0.12267296225E+00  0.12268212879E+00  0.00000000000E+00 0. -1.
</event>
<event>
 5   1  0.2192208E+09  0.9118800E+02  0.7818608E-02  0.1180000E+00
       11   -1    0    0    0    0  0.00000000000E+00  0.00000000000E+00  0.10559998763E+01  0.10560000000E+01  0.51109989000E-03 0. -1.
     -623   -1    0    0    0    0  0.00000000000E+00  0.00000000000E+00  0.47855275298E-10  0.17124000000E+03  0.17124000000E+03 0. -1.
       11    1    1    2    0    0  0.26556246987E-02 -0.23092104265E-02  0.89426946932E+00  0.89427653988E+00  0.51109989000E-03 0. -1.
     -623    1    1    2    0    0  0.25148218827E-03 -0.15546643141E-03  0.51863114970E-04  0.17124000000E+03  0.17124000000E+03 0. -1.
       22    1    1    2    0    0 -0.29071068881E-02  0.24646768586E-02  0.16167854861E+00  0.16172346454E+00  0.00000000000E+00 0.  1.
</event>
<event>
 5   1  0.2192208E+09  0.9118800E+02  0.7818608E-02  0.1180000E+00
       11   -1    0    0    0    0  0.00000000000E+00  0.00000000000E+00  0.10559998763E+01  0.10560000000E+01  0.51109989000E-03 0.  1.
     -623   -1    0    0    0    0  0.00000000000E+00  0.00000000000E+00  0.47855275298E-10  0.17124000000E+03  0.17124000000E+03 0. -1.
       11    1    1    2    0    0  0.12163982274E-01  0.86495581487E-02  0.61725579753E+00  0.61743644056E+00  0.51109989000E-03 0.  1.
     -623    1    1    2    0    0 -0.27095304102E-01 -0.15378643158E-01  0.48926237032E-03  0.17124000283E+03  0.17124000000E+03 0. -1.
       22    1    1    2    0    0  0.14931322222E-01  0.67290852334E-02  0.43825483181E+00  0.43856073990E+00  0.00000000000E+00 0. -1.
</event>
<event>
 5   1  0.2192208E+09  0.9118800E+02  0.7818608E-02  0.1180000E+00
       11   -1    0    0    0    0  0.00000000000E+00  0.00000000000E+00  0.10559998763E+01  0.10560000000E+01  0.51109989000E-03 0.  1.
     -623   -1    0    0    0    0  0.00000000000E+00  0.00000000000E+00  0.47855275298E-10  0.17124000000E+03  0.17124000000E+03 0. -1.
       11    1    1    2    0    0  0.16001790648E-02  0.20261679812E-02  0.86995855441E+00  0.86996253571E+00  0.51109989000E-03 0.  1.
     -623    1    1    2    0    0 -0.59642795482E-03  0.19125714778E-04  0.17810027119E-04  0.17124000000E+03  0.17124000000E+03 0. -1.
       22    1    1    2    0    0 -0.10037510987E-02 -0.20452936963E-02  0.18602353189E+00  0.18603748321E+00  0.00000000000E+00 0. -1.
</event>
<event>
 5   1  0.2192208E+09  0.9118800E+02  0.7818608E-02  0.1180000E+00
       11   -1    0    0    0    0  0.00000000000E+00  0.00000000000E+00  0.10559998763E+01  0.10560000000E+01  0.51109989000E-03 0. -1.
     -623   -1    0    0    0    0  0.00000000000E+00  0.00000000000E+00  0.47855275298E-10  0.17124000000E+03  0.17124000000E+03 0. -1.
       11    1    1    2    0    0 -0.55321090534E-02 -0.19453755685E-02  0.72730876256E+00  0.72733258282E+00  0.51109989000E-03 0. -1.
     -623    1    1    2    0    0  0.50136423591E-02  0.74327348592E-02  0.70151440467E-04  0.17124000023E+03  0.17124000000E+03 0. -1.
       22    1    1    2    0    0  0.51846668454E-03 -0.54873593051E-02  0.32862096442E+00  0.32866718451E+00  0.00000000000E+00 0. -1.
</event>
<event>
 5   1  0.2192208E+09  0.9118800E+02  0.7818608E-02  0.1180000E+00
       11   -1    0    0    0    0  0.00000000000E+00  0.00000000000E+00  0.10559998763E+01  0.10560000000E+01  0.51109989000E-03 0.  1.
     -623   -1    0    0    0    0  0.00000000000E+00  0.00000000000E+00  0.47855275298E-10  0.17124000000E+03  0.17124000000E+03 0.  1.
       11    1    1    2    0    0  0.69249504362E-03  0.97267505678E-02  0.92628913423E+00  0.92634060185E+00  0.51109989000E-03 0.  1.
     -623    1    1    2    0    0 -0.67649631739E-03 -0.11164736354E-01  0.59684534631E-04  0.17124000037E+03  0.17124000000E+03 0.  1.
       22    1    1    2    0    0 -0.15997943340E-04  0.14379987073E-02  0.12965227961E+00  0.12966025491E+00  0.00000000000E+00 0.  1.
</event>
<event>
 5   1  0.2192208E+09  0.9118800E+02  0.7818608E-02  0.1180000E+00
       11   -1    0    0    0    0  0.00000000000E+00  0.00000000000E+00  0.10559998763E+01  0.10560000000E+01  0.51109989000E-03 0.  1.
     -623   -1    0    0    0    0  0.00000000000E+00  0.00000000000E+00  0.47855275298E-10  0.17124000000E+03  0.17124000000E+03 0. -1.
       11    1    1    2    0    0 -0.69278195265E-03 -0.17254958288E-02  0.98037862319E+00  0.98038051966E+00  0.51109989000E-03 0.  1.
     -623    1    1    2    0    0  0.95651611421E-03 -0.77759444193E-04  0.23739221021E-04  0.17124000000E+03  0.17124000000E+03 0. -1.
       22    1    1    2    0    0 -0.26373415999E-03  0.18032552729E-02  0.75597512204E-01  0.75619475909E-01  0.00000000000E+00 0.  1.
</event>
<event>
 5   1  0.2192208E+09  0.9118800E+02  0.7818608E-02  0.1180000E+00
       11   -1    0    0    0    0  0.00000000000E+00  0.00000000000E+00  0.10559998763E+01  0.10560000000E+01  0.51109989000E-03 0. -1.
     -623   -1    0    0    0    0  0.00000000000E+00  0.00000000000E+00  0.47855275298E-10  0.17124000000E+03  0.17124000000E+03 0.  1.
       11    1    1    2    0    0  0.12135625754E-02  0.64996932654E-03  0.97297268419E-01  0.97308349381E-01  0.51109989000E-03 0. -1.
     -623    1    1    2    0    0 -0.14696299374E-01 -0.13877337871E-01  0.19822822780E-03  0.17124000119E+03  0.17124000000E+03 0.  1.
       22    1    1    2    0    0  0.13482736878E-01  0.13227368619E-01  0.95850438540E+00  0.95869046324E+00  0.00000000000E+00 0. -1.
</event>
<event>
 5   1  0.2192208E+09  0.9118800E+02  0.7818608E-02  0.1180000E+00
       11   -1    0    0    0    0  0.00000000000E+00  0.00000000000E+00  0.10559998763E+01  0.10560000000E+01  0.51109989000E-03 0. -1.
     -623   -1    0    0    0    0  0.00000000000E+00  0.00000000000E+00  0.47855275298E-10  0.17124000000E+03  0.17124000000E+03 0.  1.
       11    1    1    2    0    0  0.33058075761E-01 -0.81296438156E-02  0.69142279261E+00  0.69226054838E+00  0.51109989000E-03 0. -1.
     -623    1    1    2    0    0 -0.29048449885E-01 -0.66798833805E-02  0.11639587404E-02  0.17124000260E+03  0.17124000000E+03 0.  1.
       22    1    1    2    0    0 -0.40096258807E-02  0.14809527195E-01  0.36341312485E+00  0.36373685338E+00  0.00000000000E+00 0. -1.
</event>
<event>
 5   1  0.2192208E+09  0.9118800E+02  0.7818608E-02  0.1180000E+00
       11   -1    0    0    0    0  0.00000000000E+00  0.00000000000E+00  0.10559998763E+01  0.10560000000E+01  0.51109989000E-03 0.  1.
     -623   -1    0    0    0    0  0.00000000000E+00  0.00000000000E+00  0.47855275298E-10  0.17124000000E+03  0.17124000000E+03 0.  1.
       11    1    1    2    0    0 -0.22508102835E-02 -0.61375980695E-02  0.60143863713E+00  0.60147438159E+00  0.51109989000E-03 0.  1.
     -623    1    1    2    0    0  0.48198583912E-02  0.11566684240E-01  0.75765307765E-04  0.17124000046E+03  0.17124000000E+03 0.  1.
       22    1    1    2    0    0 -0.25690481686E-02 -0.54290863166E-02  0.45448548728E+00  0.45452517327E+00  0.00000000000E+00 0.  1.
</event>
<event>
 5   1  0.2192208E+09  0.9118800E+02  0.7818608E-02  0.1180000E+00
       11   -1    0    0    0    0  0.00000000000E+00  0.00000000000E+00  0.10559998763E+01  0.10560000000E+01  0.51109989000E-03 0.  1.
     -623   -1    0    0    0    0  0.00000000000E+00  0.00000000000E+00  0.47855275298E-10  0.17124000000E+03  0.17124000000E+03 0. -1.
       11    1    1    2    0    0 -0.40461584158E-02  0.56635162814E-02  0.99684440516E+00  0.99686883598E+00  0.51109989000E-03 0.  1.
     -623    1    1    2    0    0  0.45401958857E-02 -0.62807972513E-02  0.29768584485E-04  0.17124000018E+03  0.17124000000E+03 0. -1.
       22    1    1    2    0    0 -0.49403789319E-03  0.61728155545E-03  0.59125801066E-01  0.59131087100E-01  0.00000000000E+00 0. -1.
</event>
<event>
 5   1  0.2192208E+09  0.9118800E+02  0.7818608E-02  0.1180000E+00
       11   -1    0    0    0    0  0.00000000000E+00  0.00000000000E+00  0.10559998763E+01  0.10560000000E+01  0.51109989000E-03 0.  1.
     -623   -1    0    0    0    0  0.00000000000E+00  0.00000000000E+00  0.47855275298E-10  0.17124000000E+03  0.17124000000E+03 0.  1.
       11    1    1    2    0    0 -0.19846206490E-01  0.10099578213E-01  0.98044392457E+00  0.98069690722E+00  0.51109989000E-03 0.  1.
     -623    1    1    2    0    0  0.21045086413E-01 -0.10975445663E-01  0.26914313038E-03  0.17124000165E+03  0.17124000000E+03 0.  1.
       22    1    1    2    0    0 -0.11988804162E-02  0.87586770625E-03  0.75286833380E-01  0.75301472355E-01  0.00000000000E+00 0. -1.
</event>
<event>
 5   1  0.2192208E+09  0.9118800E+02  0.7818608E-02  0.1180000E+00
       11   -1    0    0    0    0  0.00000000000E+00  0.00000000000E+00  0.10559998763E+01  0.10560000000E+01  0.51109989000E-03 0.  1.
     -623   -1    0    0    0    0  0.00000000000E+00  0.00000000000E+00  0.47855275298E-10  0.17124000000E+03  0.17124000000E+03 0. -1.
       11    1    1    2    0    0 -0.10168745573E-01  0.11961326562E-01  0.66908182538E+00  0.66926618546E+00  0.51109989000E-03 0.  1.
     -623    1    1    2    0    0  0.15213071557E-01 -0.18662095296E-01  0.27688869473E-03  0.17124000169E+03  0.17124000000E+03 0. -1.
       22    1    1    2    0    0 -0.50443249077E-02  0.67007674146E-02  0.38664108764E+00  0.38673204696E+00  0.00000000000E+00 0. -1.
</event>
<event>
 5   1  0.2192208E+09  0.9118800E+02  0.7818608E-02  0.1180000E+00
       11   -1    0    0    0    0  0.00000000000E+00  0.00000000000E+00  0.10559998763E+01  0.10560000000E+01  0.51109989000E-03 0.  1.
     -623   -1    0    0    0    0  0.00000000000E+00  0.00000000000E+00  0.47855275298E-10  0.17124000000E+03  0.17124000000E+03 0.  1.
       11    1    1    2    0    0  0.60464051871E-03 -0.19408529274E-03  0.93690624906E+00  0.93690660368E+00  0.51109989000E-03 0.  1.
     -623    1    1    2    0    0 -0.48723557945E-03 -0.11075023625E-02  0.74059506201E-05  0.17124000000E+03  0.17124000000E+03 0.  1.
       22    1    1    2    0    0 -0.11740492702E-03  0.13015876830E-02  0.11908624787E+00  0.11909341857E+00  0.00000000000E+00 0.  1.
</event>
<event>
 5   1  0.2192208E+09  0.9118800E+02  0.7818608E-02  0.1180000E+00
       11   -1    0    0    0    0  0.00000000000E+00  0.00000000000E+00  0.10559998763E+01  0.10560000000E+01  0.51109989000E-03 0. -1.
     -623   -1    0    0    0    0  0.00000000000E+00  0.00000000000E+00  0.47855275298E-10  0.17124000000E+03  0.17124000000E+03 0.  1.
       11    1    1    2    0    0  0.36841568386E-02 -0.33198627882E-02  0.85769228191E+00  0.85770677167E+00  0.51109989000E-03 0. -1.
     -623    1    1    2    0    0 -0.72738511144E-03  0.47347905825E-03  0.56846344346E-04  0.17124000000E+03  0.17124000000E+03 0.  1.
       22    1    1    2    0    0 -0.29567717255E-02  0.28463837289E-02  0.19825075050E+00  0.19829322851E+00  0.00000000000E+00 0. -1.
</event>
<event>
 5   1  0.2192208E+09  0.9118800E+02  0.7818608E-02  0.1180000E+00
       11   -1    0    0    0    0  0.00000000000E+00  0.00000000000E+00  0.10559998763E+01  0.10560000000E+01  0.51109989000E-03 0.  1.
     -623   -1    0    0    0    0  0.00000000000E+00  0.00000000000E+00  0.47855275298E-10  0.17124000000E+03  0.17124000000E+03 0. -1.
       11    1    1    2    0    0 -0.86540308824E-03 -0.10959887254E-01  0.61084712195E+00  0.61094626250E+00  0.51109989000E-03 0.  1.
     -623    1    1    2    0    0 -0.75669527473E-02 -0.24823027870E-02  0.38217653102E-03  0.17124000019E+03  0.17124000000E+03 0. -1.
       22    1    1    2    0    0  0.84323558297E-02  0.13442190039E-01  0.44477057708E+00  0.44505355108E+00  0.00000000000E+00 0.  1.
</event>
<event>
 5   1  0.2192208E+09  0.9118800E+02  0.7818608E-02  0.1180000E+00
       11   -1    0    0    0    0  0.00000000000E+00  0.00000000000E+00  0.10559998763E+01  0.10560000000E+01  0.51109989000E-03 0. -1.
     -623   -1    0    0    0    0  0.00000000000E+00  0.00000000000E+00  0.47855275298E-10  0.17124000000E+03  0.17124000000E+03 0.  1.
       11    1    1    2    0    0  0.10720193128E-01 -0.13913060608E-01  0.85993365873E+00  0.86011316374E+00  0.51109989000E-03 0. -1.
     -623    1    1    2    0    0 -0.13169464947E-01  0.16960362952E-01  0.21974682161E-03  0.17124000135E+03  0.17124000000E+03 0.  1.
       22    1    1    2    0    0  0.24492835562E-02 -0.30473174592E-02  0.19584741172E+00  0.19588643090E+00  0.00000000000E+00 0.  1.
</event>
<event>
 5   1  0.2192208E+09  0.9118800E+02  0.7818608E-02  0.1180000E+00
       11   -1    0    0    0    0  0.00000000000E+00  0.00000000000E+00  0.10559998763E+01  0.10560000000E+01  0.51109989000E-03 0.  1.
     -623   -1    0    0    0    0  0.00000000000E+00  0.00000000000E+00  0.47855275298E-10  0.17124000000E+03  0.17124000000E+03 0.  1.
       11    1    1    2    0    0 -0.53966477518E-02  0.63758822597E-02  0.66459872335E+00  0.66465141238E+00  0.51109989000E-03 0.  1.
     -623    1    1    2    0    0  0.86111923300E-02 -0.10733531686E-01  0.90583461918E-04  0.17124000055E+03  0.17124000000E+03 0.  1.
       22    1    1    2    0    0 -0.32145384118E-02  0.43576417403E-02  0.39130981344E+00  0.39134727850E+00  0.00000000000E+00 0. -1.
</event>
<event>
 5   1  0.2192208E+09  0.9118800E+02  0.7818608E-02  0.1180000E+00
       11   -1    0    0    0    0  0.00000000000E+00  0.00000000000E+00  0.10559998763E+01  0.10560000000E+01  0.51109989000E-03 0. -1.
     -623   -1    0    0    0    0  0.00000000000E+00  0.00000000000E+00  0.47855275298E-10  0.17124000000E+03  0.17124000000E+03 0.  1.
       11    1    1    2    0    0 -0.32026915022E-03 -0.92511221628E-03  0.95253645687E+00  0.95253709707E+00  0.51109989000E-03 0. -1.
     -623    1    1    2    0    0 -0.27441567418E-03 -0.19700947205E-03  0.83113263436E-05  0.17124000000E+03  0.17124000000E+03 0.  1.
       22    1    1    2    0    0  0.59468481193E-03  0.11221216794E-02  0.10345506015E+00  0.10346285458E+00  0.00000000000E+00 0.  1.
</event>
<event>
 5   1  0.2192208E+09  0.9118800E+02  0.7818608E-02  0.1180000E+00
       11   -1    0    0    0    0  0.00000000000E+00  0.00000000000E+00  0.10559998763E+01  0.10560000000E+01  0.51109989000E-03 0. -1.
     -623   -1    0    0    0    0  0.00000000000E+00  0.00000000000E+00  0.47855275298E-10  0.17124000000E+03  0.17124000000E+03 0. -1.
       11    1    1    2    0    0 -0.88193125814E-02 -0.85733698069E-02  0.97304613599E+00  0.97312400388E+00  0.51109989000E-03 0. -1.
     -623    1    1    2    0    0  0.94581272828E-02  0.94243884883E-02  0.85096533939E-04  0.17124000052E+03  0.17124000000E+03 0. -1.
       22    1    1    2    0    0 -0.63882678047E-03 -0.85103071737E-03  0.82869992353E-01  0.82876824177E-01  0.00000000000E+00 0.  1.
</event>
<event>
 5   1  0.2192208E+09  0.9118800E+02  0.7818608E-02  0.1180000E+00
       11   -1    0    0    0    0  0.00000000000E+00  0.00000000000E+00  0.10559998763E+01  0.10560000000E+01  0.51109989000E-03 0.  1.
     -623   -1    0    0    0    0  0.00000000000E+00  0.00000000000E+00  0.47855275298E-10  0.17124000000E+03  0.17124000000E+03 0. -1.
       11    1    1    2    0    0  0.29517890648E-02 -0.88197579143E-02  0.68710139419E+00  0.68716452783E+00  0.51109989000E-03 0.  1.
     -623    1    1    2    0    0 -0.41750404733E-02  0.13473733921E-01  0.94982859780E-04  0.17124000058E+03  0.17124000000E+03 0. -1.
       22    1    1    2    0    0  0.12232531496E-02 -0.46539816256E-02  0.36880393964E+00  0.36883533154E+00  0.00000000000E+00 0. -1.
</event>
<event>
 5   1  0.2192208E+09  0.9118800E+02  0.7818608E-02  0.1180000E+00
       11   -1    0    0    0    0  0.00000000000E+00  0.00000000000E+00  0.10559998763E+01  0.10560000000E+01  0.51109989000E-03 0.  1.
     -623   -1    0    0    0    0  0.00000000000E+00  0.00000000000E+00  0.47855275298E-10  0.17124000000E+03  0.17124000000E+03 0.  1.
       11    1    1    2    0    0 -0.66066447946E-02 -0.49422379488E-02  0.48363836844E+00  0.48370900976E+00  0.51109989000E-03 0.  1.
     -623    1    1    2    0    0  0.32031731489E-02  0.11793161201E-01  0.12208285991E-03  0.17124000044E+03  0.17124000000E+03 0.  1.
       22    1    1    2    0    0  0.34034716310E-02 -0.68509233059E-02  0.57223942989E+00  0.57229055897E+00  0.00000000000E+00 0.  1.
</event>
<event>
 5   1  0.2192208E+09  0.9118800E+02  0.7818608E-02  0.1180000E+00
       11   -1    0    0    0    0  0.00000000000E+00  0.00000000000E+00  0.10559998763E+01  0.10560000000E+01  0.51109989000E-03 0. -1.
     -623   -1    0    0    0    0  0.00000000000E+00  0.00000000000E+00  0.47855275298E-10  0.17124000000E+03  0.17124000000E+03 0. -1.
       11    1    1    2    0    0 -0.53296775729E-02  0.39882958660E-02  0.66834786862E+00  0.66838121359E+00  0.51109989000E-03 0. -1.
     -623    1    1    2    0    0  0.22520957968E-05 -0.70078689393E-04  0.89639004921E-04  0.17124000000E+03  0.17124000000E+03 0. -1.
       22    1    1    2    0    0  0.53274254771E-02 -0.39182171763E-02  0.38756237288E+00  0.38761879052E+00  0.00000000000E+00 0. -1.
</event>
<event>
 5   1  0.2192208E+09  0.9118800E+02  0.7818608E-02  0.1180000E+00
       11   -1    0    0    0    0  0.00000000000E+00  0.00000000000E+00  0.10559998763E+01  0.10560000000E+01  0.51109989000E-03 0.  1.
     -623   -1    0    0    0    0  0.00000000000E+00  0.00000000000E+00  0.47855275298E-10  0.17124000000E+03  0.17124000000E+03 0.  1.
       11    1    1    2    0    0 -0.52749156992E-02 -0.84649242521E-02  0.60163141767E+00  0.60171430399E+00  0.51109989000E-03 0.  1.
     -623    1    1    2    0    0  0.85246397425E-02  0.14893668120E-01  0.14073735580E-03  0.17124000086E+03  0.17124000000E+03 0.  1.
       22    1    1    2    0    0 -0.32497245068E-02 -0.64287446776E-02  0.45422777875E+00  0.45428489349E+00  0.00000000000E+00 0.  1.
</event>
<event>
 5   1  0.2192208E+09  0.9118800E+02  0.7818608E-02  0.1180000E+00
       11   -1    0    0    0    0  0.00000000000E+00  0.00000000000E+00  0.10559998763E+01  0.10560000000E+01  0.51109989000E-03 0. -1.
     -623   -1    0    0    0    0  0.00000000000E+00  0.00000000000E+00  0.47855275298E-10  0.17124000000E+03  0.17124000000E+03 0.  1.
       11    1    1    2    0    0 -0.37693965833E-03 -0.13774431723E-02  0.10026831049E+01  0.10026842521E+01  0.51109989000E-03 0. -1.
     -623    1    1    2    0    0 -0.40364426649E-04 -0.12658980387E-03  0.23876009175E-04  0.17124000000E+03  0.17124000000E+03 0.  1.
       22    1    1    2    0    0  0.41730408542E-03  0.15040329776E-02  0.53292907057E-01  0.53315759401E-01  0.00000000000E+00 0.  1.
</event>
<event>
 5   1  0.2192208E+09  0.9118800E+02  0.7818608E-02  0.1180000E+00
       11   -1    0    0    0    0  0.00000000000E+00  0.00000000000E+00  0.10559998763E+01  0.10560000000E+01  0.51109989000E-03 0.  1.
     -623   -1    0    0    0    0  0.00000000000E+00  0.00000000000E+00  0.47855275298E-10  0.17124000000E+03  0.17124000000E+03 0.  1.
       11    1    1    2    0    0 -0.56740035367E-02  0.27649983767E-02  0.81171801481E+00  0.81174271560E+00  0.51109989000E-03 0.  1.
     -623    1    1    2    0    0  0.59371469271E-02 -0.10164850166E-01  0.13723997649E-03  0.17124000040E+03  0.17124000000E+03 0.  1.
       22    1    1    2    0    0 -0.26314339178E-03  0.73998517918E-02  0.24414462182E+00  0.24425687997E+00  0.00000000000E+00 0. -1.
</event>
<event>
 5   1  0.2192208E+09  0.9118800E+02  0.7818608E-02  0.1180000E+00
       11   -1    0    0    0    0  0.00000000000E+00  0.00000000000E+00  0.10559998763E+01  0.10560000000E+01  0.51109989000E-03 0. -1.
     -623   -1    0    0    0    0  0.00000000000E+00  0.00000000000E+00  0.47855275298E-10  0.17124000000E+03  0.17124000000E+03 0. -1.
       11    1    1    2    0    0  0.12890370126E-01  0.10003920876E-01  0.91103001118E+00  0.91117626317E+00  0.51109989000E-03 0. -1.
     -623    1    1    2    0    0 -0.14313167820E-01 -0.12020128680E-01  0.16817382296E-03  0.17124000102E+03  0.17124000000E+03 0. -1.
       22    1    1    2    0    0  0.14227976476E-02  0.20162077655E-02  0.14480168794E+00  0.14482271327E+00  0.00000000000E+00 0. -1.
</event>
<event>
 5   1  0.2192208E+09  0.9118800E+02  0.7818608E-02  0.1180000E+00
       11   -1    0    0    0    0  0.00000000000E+00  0.00000000000E+00  0.10559998763E+01  0.10560000000E+01  0.51109989000E-03 0.  1.
     -623   -1    0    0    0    0  0.00000000000E+00  0.00000000000E+00  0.47855275298E-10  0.17124000000E+03  0.17124000000E+03 0. -1.
       11    1    1    2    0    0 -0.14459447739E-01  0.34322684328E-01  0.96265996252E+00  0.96338029196E+00  0.51109989000E-03 0.  1.
     -623    1    1    2    0    0  0.12707584344E-01 -0.37808373941E-01  0.80705256210E-03  0.17124000465E+03  0.17124000000E+03 0. -1.
       22    1    1    2    0    0  0.17518634398E-02  0.34856894777E-02  0.92532857515E-01  0.92615056965E-01  0.00000000000E+00 0.  1.
</event>
<event>
 5   1  0.2192208E+09  0.9118800E+02  0.7818608E-02  0.1180000E+00
       11   -1    0    0    0    0  0.00000000000E+00  0.00000000000E+00  0.10559998763E+01  0.10560000000E+01  0.51109989000E-03 0.  1.
     -623   -1    0    0    0    0  0.00000000000E+00  0.00000000000E+00  0.47855275298E-10  0.17124000000E+03  0.17124000000E+03 0. -1.
       11    1    1    2    0    0 -0.12127575339E-01  0.65264925472E-02  0.51783002960E+00  0.51801339169E+00  0.51109989000E-03 0.  1.
     -623    1    1    2    0    0  0.23416402722E-01 -0.12529379737E-01  0.33724994355E-03  0.17124000206E+03  0.17124000000E+03 0. -1.
       22    1    1    2    0    0 -0.11288823852E-01  0.60028853000E-02  0.53783243759E+00  0.53798438927E+00  0.00000000000E+00 0.  1.
</event>
<event>
 5   1  0.2192208E+09  0.9118800E+02  0.7818608E-02  0.1180000E+00
       11   -1    0    0    0    0  0.00000000000E+00  0.00000000000E+00  0.10559998763E+01  0.10560000000E+01  0.51109989000E-03 0. -1.
     -623   -1    0    0    0    0  0.00000000000E+00  0.00000000000E+00  0.47855275298E-10  0.17124000000E+03  0.17124000000E+03 0. -1.
       11    1    1    2    0    0  0.88639303240E-03  0.19563149173E-02  0.91072626181E+00  0.91072893774E+00  0.51109989000E-03 0. -1.
     -623    1    1    2    0    0 -0.14108000345E-03 -0.16035225372E-03  0.15566519567E-04  0.17124000000E+03  0.17124000000E+03 0. -1.
       22    1    1    2    0    0 -0.74531302799E-03 -0.17959626625E-02  0.14525805521E+00  0.14527106931E+00  0.00000000000E+00 0. -1.
</event>
<event>
 5   1  0.2192208E+09  0.9118800E+02  0.7818608E-02  0.1180000E+00
       11   -1    0    0    0    0  0.00000000000E+00  0.00000000000E+00  0.10559998763E+01  0.10560000000E+01  0.51109989000E-03 0. -1.
     -623   -1    0    0    0    0  0.00000000000E+00  0.00000000000E+00  0.47855275298E-10  0.17124000000E+03  0.17124000000E+03 0. -1.
       11    1    1    2    0    0 -0.34679286360E-02  0.17748262307E-01  0.88733339143E+00  0.88751779481E+00  0.51109989000E-03 0. -1.
     -623    1    1    2    0    0  0.60573747347E-02 -0.22860123581E-01  0.28338969723E-03  0.17124000163E+03  0.17124000000E+03 0. -1.
       22    1    1    2    0    0 -0.25894461647E-02  0.51118615225E-02  0.16838310675E+00  0.16848058344E+00  0.00000000000E+00 0.  1.
</event>
<event>
 5   1  0.2192208E+09  0.9118800E+02  0.7818608E-02  0.1180000E+00
       11   -1    0    0    0    0  0.00000000000E+00  0.00000000000E+00  0.10559998763E+01  0.10560000000E+01  0.51109989000E-03 0. -1.
     -623   -1    0    0    0    0  0.00000000000E+00  0.00000000000E+00  0.47855275298E-10  0.17124000000E+03  0.17124000000E+03 0. -1.
       11    1    1    2    0    0 -0.13939164310E-01 -0.74370221588E-02  0.86319647457E+00  0.86334119822E+00  0.51109989000E-03 0. -1.
     -623    1    1    2    0    0  0.16374343829E-01  0.95184695543E-02  0.17228343050E-03  0.17124000105E+03  0.17124000000E+03 0. -1.
       22    1    1    2    0    0 -0.24351806114E-02 -0.20814480304E-02  0.19263118878E+00  0.19265782471E+00  0.00000000000E+00 0. -1.
</event>
<event>
 5   1  0.2192208E+09  0.9118800E+02  0.7818608E-02  0.1180000E+00
       11   -1    0    0    0    0  0.00000000000E+00  0.00000000000E+00  0.10559998763E+01  0.10560000000E+01  0.51109989000E-03 0.  1.
     -623   -1    0    0    0    0  0.00000000000E+00  0.00000000000E+00  0.47855275298E-10  0.17124000000E+03  0.17124000000E+03 0.  1.
       11    1    1    2    0    0 -0.94596539761E-02  0.98938226641E-02  0.80768675295E+00  0.80780289978E+00  0.51109989000E-03 0.  1.
     -623    1    1    2    0    0  0.13214093538E-01 -0.12537262564E-01  0.15946935477E-03  0.17124000097E+03  0.17124000000E+03 0.  1.
       22    1    1    2    0    0 -0.37544382558E-02  0.26434386611E-02  0.24815354971E+00  0.24819602698E+00  0.00000000000E+00 0.  1.
</event>
<event>
 5   1  0.2192208E+09  0.9118800E+02  0.7818608E-02  0.1180000E+00
       11   -1    0    0    0    0  0.00000000000E+00  0.00000000000E+00  0.10559998763E+01  0.10560000000E+01  0.51109989000E-03 0.  1.
     -623   -1    0    0    0    0  0.00000000000E+00  0.00000000000E+00  0.47855275298E-10  0.17124000000E+03  0.17124000000E+03 0.  1.
       11    1    1    2    0    0  0.16904204281E-01 -0.32665878653E-01  0.99476320811E+00  0.99544307380E+00  0.51109989000E-03 0.  1.
     -623    1    1    2    0    0 -0.17974017831E-01  0.35103628449E-01  0.74283395612E-03  0.17124000454E+03  0.17124000000E+03 0.  1.
       22    1    1    2    0    0  0.10698164680E-02 -0.24377554947E-02  0.60494005605E-01  0.60552554638E-01  0.00000000000E+00 0.  1.
</event>
<event>
 5   1  0.2192208E+09  0.9118800E+02  0.7818608E-02  0.1180000E+00
       11   -1    0    0    0    0  0.00000000000E+00  0.00000000000E+00  0.10559998763E+01  0.10560000000E+01  0.51109989000E-03 0. -1.
     -623   -1    0    0    0    0  0.00000000000E+00  0.00000000000E+00  0.47855275298E-10  0.17124000000E+03  0.17124000000E+03 0. -1.
       11    1    1    2    0    0  0.45078378648E-03  0.11518332055E-02  0.96304664663E+00  0.96304757657E+00  0.51109989000E-03 0. -1.
     -623    1    1    2    0    0 -0.55183585759E-03 -0.15455514029E-03  0.62121948625E-05  0.17124000000E+03  0.17124000000E+03 0. -1.
       22    1    1    2    0    0  0.10105210513E-03 -0.99727805570E-03  0.92947082633E-01  0.92952487568E-01  0.00000000000E+00 0.  1.
</event>
<event>
 5   1  0.2192208E+09  0.9118800E+02  0.7818608E-02  0.1180000E+00
       11   -1    0    0    0    0  0.00000000000E+00  0.00000000000E+00  0.10559998763E+01  0.10560000000E+01  0.51109989000E-03 0. -1.
     -623   -1    0    0    0    0  0.00000000000E+00  0.00000000000E+00  0.47855275298E-10  0.17124000000E+03  0.17124000000E+03 0.  1.
       11    1    1    2    0    0  0.68079157634E-04 -0.14741285766E-02  0.96131636944E+00  0.96131763797E+00  0.51109989000E-03 0. -1.
     -623    1    1    2    0    0 -0.15881679640E-03 -0.11656525371E-04  0.12846872942E-04  0.17124000000E+03  0.17124000000E+03 0.  1.
       22    1    1    2    0    0  0.90737632723E-04  0.14857851015E-02  0.94670619870E-01  0.94682321778E-01  0.00000000000E+00 0. -1.
</event>
<event>
 5   1  0.2192208E+09  0.9118800E+02  0.7818608E-02  0.1180000E+00
       11   -1    0    0    0    0  0.00000000000E+00  0.00000000000E+00  0.10559998763E+01  0.10560000000E+01  0.51109989000E-03 0. -1.
     -623   -1    0    0    0    0  0.00000000000E+00  0.00000000000E+00  0.47855275298E-10  0.17124000000E+03  0.17124000000E+03 0. -1.
       11    1    1    2    0    0  0.28725317471E-02 -0.10064467104E-01  0.90936266666E+00  0.90942303999E+00  0.51109989000E-03 0. -1.
     -623    1    1    2    0    0 -0.32455275480E-02  0.11627145479E-01  0.69480052175E-04  0.17124000043E+03  0.17124000000E+03 0. -1.
       22    1    1    2    0    0  0.37300489495E-03 -0.15627109545E-02  0.14657068838E+00  0.14657949342E+00  0.00000000000E+00 0.  1.
</event>
<event>
 5   1  0.2192208E+09  0.9118800E+02  0.7818608E-02  0.1180000E+00
       11   -1    0    0    0    0  0.00000000000E+00  0.00000000000E+00  0.10559998763E+01  0.10560000000E+01  0.51109989000E-03 0.  1.
     -623   -1    0    0    0    0  0.00000000000E+00  0.00000000000E+00  0.47855275298E-10  0.17124000000E+03  0.17124000000E+03 0. -1.
       11    1    1    2    0    0 -0.80971653600E-02  0.13605569749E-01  0.91246290344E+00  0.91260039830E+00  0.51109989000E-03 0.  1.
     -623    1    1    2    0    0  0.97420870840E-02 -0.15387617648E-01  0.15884864409E-03  0.17124000097E+03  0.17124000000E+03 0. -1.
       22    1    1    2    0    0 -0.16449204256E-02  0.17820458479E-02  0.14337798357E+00  0.14339849240E+00  0.00000000000E+00 0. -1.
</event>
<event>
 5   1  0.2192208E+09  0.9118800E+02  0.7818608E-02  0.1180000E+00
       11   -1    0    0    0    0  0.00000000000E+00  0.00000000000E+00  0.10559998763E+01  0.10560000000E+01  0.51109989000E-03 0.  1.
     -623   -1    0    0    0    0  0.00000000000E+00  0.00000000000E+00  0.47855275298E-10  0.17124000000E+03  0.17124000000E+03 0. -1.
       11    1    1    2    0    0 -0.15483565565E-02  0.71246344916E-02  0.76070288707E+00  0.76073799790E+00  0.51109989000E-03 0.  1.
     -623    1    1    2    0    0  0.28156067493E-02 -0.10198441605E-01  0.54033981667E-04  0.17124000033E+03  0.17124000000E+03 0. -1.
       22    1    1    2    0    0 -0.12672495858E-02  0.30738049152E-02  0.29524272768E+00  0.29526144762E+00  0.00000000000E+00 0. -1.
</event>
<event>
 5   1  0.2192208E+09  0.9118800E+02  0.7818608E-02  0.1180000E+00
       11   -1    0    0    0    0  0.00000000000E+00  0.00000000000E+00  0.10559998763E+01  0.10560000000E+01  0.51109989000E-03 0.  1.
     -623   -1    0    0    0    0  0.00000000000E+00  0.00000000000E+00  0.47855275298E-10  0.17124000000E+03  0.17124000000E+03 0. -1.
       11    1    1    2    0    0 -0.10093185908E-03 -0.65248181663E-03  0.99383346276E+00  0.99383381349E+00  0.51109989000E-03 0.  1.
     -623    1    1    2    0    0 -0.14158397275E-04  0.25825924030E-04  0.34921647620E-05  0.17124000000E+03  0.17124000000E+03 0. -1.
       22    1    1    2    0    0  0.11509025783E-03  0.62665588990E-03  0.62163031839E-01  0.62166296904E-01  0.00000000000E+00 0.  1.
</event>
<event>
 5   1  0.2192208E+09  0.9118800E+02  0.7818608E-02  0.1180000E+00
       11   -1    0    0    0    0  0.00000000000E+00  0.00000000000E+00  0.10559998763E+01  0.10560000000E+01  0.51109989000E-03 0. -1.
     -623   -1    0    0    0    0  0.00000000000E+00  0.00000000000E+00  0.47855275298E-10  0.17124000000E+03  0.17124000000E+03 0. -1.
       11    1    1    2    0    0 -0.38560571981E-04 -0.16345130079E-02  0.98818390746E+00  0.98818539217E+00  0.51109989000E-03 0. -1.
     -623    1    1    2    0    0 -0.90494332613E-04  0.81811742056E-03  0.64001896953E-05  0.17124000000E+03  0.17124000000E+03 0. -1.
       22    1    1    2    0    0  0.12905490267E-03  0.81639560469E-03  0.67809546293E-01  0.67814583427E-01  0.00000000000E+00 0.  1.
</event>
<event>
 5   1  0.2192208E+09  0.9118800E+02  0.7818608E-02  0.1180000E+00
       11   -1    0    0    0    0  0.00000000000E+00  0.00000000000E+00  0.10559998763E+01  0.10560000000E+01  0.51109989000E-03 0.  1.
     -623   -1    0    0    0    0  0.00000000000E+00  0.00000000000E+00  0.47855275298E-10  0.17124000000E+03  0.17124000000E+03 0.  1.
       11    1    1    2    0    0  0.19765645869E-03  0.29969465057E-03  0.10054153438E+01  0.10054155378E+01  0.51109989000E-03 0.  1.
     -623    1    1    2    0    0 -0.16288762761E-03  0.21865078155E-03  0.27383815400E-05  0.17124000000E+03  0.17124000000E+03 0.  1.
       22    1    1    2    0    0 -0.34768838743E-04 -0.51834542183E-03  0.50581744547E-01  0.50584412345E-01  0.00000000000E+00 0.  1.
</event>
<event>
 5   1  0.2192208E+09  0.9118800E+02  0.7818608E-02  0.1180000E+00
       11   -1    0    0    0    0  0.00000000000E+00  0.00000000000E+00  0.10559998763E+01  0.10560000000E+01  0.51109989000E-03 0.  1.
     -623   -1    0    0    0    0  0.00000000000E+00  0.00000000000E+00  0.47855275298E-10  0.17124000000E+03  0.17124000000E+03 0. -1.
       11    1    1    2    0    0 -0.37937898878E-02  0.42124254542E-02  0.80926802090E+00  0.80928803788E+00  0.51109989000E-03 0.  1.
     -623    1    1    2    0    0  0.16803173775E-02 -0.11364890654E-03  0.63005727940E-04  0.17124000001E+03  0.17124000000E+03 0. -1.
       22    1    1    2    0    0  0.21134725026E-02 -0.40987765471E-02  0.24666885461E+00  0.24671195870E+00  0.00000000000E+00 0.  1.
</event>
<event>
 5   1  0.2192208E+09  0.9118800E+02  0.7818608E-02  0.1180000E+00
       11   -1    0    0    0    0  0.00000000000E+00  0.00000000000E+00  0.10559998763E+01  0.10560000000E+01  0.51109989000E-03 0.  1.
     -623   -1    0    0    0    0  0.00000000000E+00  0.00000000000E+00  0.47855275298E-10  0.17124000000E+03  0.17124000000E+03 0. -1.
       11    1    1    2    0    0 -0.35708008826E-02 -0.90491681156E-02  0.15199939343E+00  0.15231124347E+00  0.51109989000E-03 0.  1.
     -623    1    1    2    0    0  0.23571077553E-01  0.53782419149E-01  0.16512807958E-02  0.17124001008E+03  0.17124000000E+03 0. -1.
       22    1    1    2    0    0 -0.20000277176E-01 -0.44733252185E-01  0.90234922471E+00  0.90367870301E+00  0.00000000000E+00 0.  1.
</event>
<event>
 5   1  0.2192208E+09  0.9118800E+02  0.7818608E-02  0.1180000E+00
       11   -1    0    0    0    0  0.00000000000E+00  0.00000000000E+00  0.10559998763E+01  0.10560000000E+01  0.51109989000E-03 0.  1.
     -623   -1    0    0    0    0  0.00000000000E+00  0.00000000000E+00  0.47855275298E-10  0.17124000000E+03  0.17124000000E+03 0. -1.
       11    1    1    2    0    0  0.12296496503E-01  0.33196749940E-02  0.96298374821E+00  0.96306811006E+00  0.51109989000E-03 0.  1.
     -623    1    1    2    0    0 -0.13810849477E-01 -0.23487504423E-02  0.10222339938E-03  0.17124000057E+03  0.17124000000E+03 0. -1.
       22    1    1    2    0    0  0.15143537707E-02 -0.97092441621E-03  0.92913965695E-01  0.92931377816E-01  0.00000000000E+00 0. -1.
</event>
<event>
 5   1  0.2192208E+09  0.9118800E+02  0.7818608E-02  0.1180000E+00
       11   -1    0    0    0    0  0.00000000000E+00  0.00000000000E+00  0.10559998763E+01  0.10560000000E+01  0.51109989000E-03 0.  1.
     -623   -1    0    0    0    0  0.00000000000E+00  0.00000000000E+00  0.47855275298E-10  0.17124000000E+03  0.17124000000E+03 0.  1.
       11    1    1    2    0    0 -0.44077698208E-03  0.20080692398E-02  0.32807066165E-01  0.32875392620E-01  0.51109989000E-03 0.  1.
     -623    1    1    2    0    0 -0.17393995565E-01 -0.25909830959E-01  0.50577659384E-03  0.17124000284E+03  0.17124000000E+03 0.  1.
       22    1    1    2    0    0  0.17834772534E-01  0.23901761700E-01  0.10226870328E+01  0.10231217623E+01  0.00000000000E+00 0.  1.
</event>
<event>
 5   1  0.2192208E+09  0.9118800E+02  0.7818608E-02  0.1180000E+00
       11   -1    0    0    0    0  0.00000000000E+00  0.00000000000E+00  0.10559998763E+01  0.10560000000E+01  0.51109989000E-03 0.  1.
     -623   -1    0    0    0    0  0.00000000000E+00  0.00000000000E+00  0.47855275298E-10  0.17124000000E+03  0.17124000000E+03 0.  1.
       11    1    1    2    0    0  0.11104358218E-01  0.11960320926E-01  0.10052519859E+01  0.10053845893E+01  0.51109989000E-03 0.  1.
     -623    1    1    2    0    0 -0.11463503874E-01 -0.12628453447E-01  0.13901350986E-03  0.17124000085E+03  0.17124000000E+03 0.  1.
       22    1    1    2    0    0  0.35915535773E-03  0.66814320855E-03  0.50609770507E-01  0.50615454939E-01  0.00000000000E+00 0.  1.
</event>
<event>
 5   1  0.2192208E+09  0.9118800E+02  0.7818608E-02  0.1180000E+00
       11   -1    0    0    0    0  0.00000000000E+00  0.00000000000E+00  0.10559998763E+01  0.10560000000E+01  0.51109989000E-03 0.  1.
     -623   -1    0    0    0    0  0.00000000000E+00  0.00000000000E+00  0.47855275298E-10  0.17124000000E+03  0.17124000000E+03 0.  1.
       11    1    1    2    0    0  0.48425405121E-02  0.50852312821E-05  0.64071629944E+00  0.64073480303E+00  0.51109989000E-03 0.  1.
     -623    1    1    2    0    0 -0.77189196489E-02  0.54397668457E-02  0.64300414317E-04  0.17124000026E+03  0.17124000000E+03 0.  1.
       22    1    1    2    0    0  0.28763792075E-02 -0.54448521267E-02  0.41521928617E+00  0.41526494625E+00  0.00000000000E+00 0. -1.
</event>
<event>
 5   1  0.2192208E+09  0.9118800E+02  0.7818608E-02  0.1180000E+00
       11   -1    0    0    0    0  0.00000000000E+00  0.00000000000E+00  0.10559998763E+01  0.10560000000E+01  0.51109989000E-03 0.  1.
     -623   -1    0    0    0    0  0.00000000000E+00  0.00000000000E+00  0.47855275298E-10  0.17124000000E+03  0.17124000000E+03 0.  1.
       11    1    1    2    0    0  0.12687101348E-01 -0.20900806518E-01  0.97621614977E-01  0.10063819945E+00  0.51109989000E-03 0.  1.
     -623    1    1    2    0    0 -0.17911320134E-01  0.14371236690E-02  0.32300095607E-02  0.17124000097E+03  0.17124000000E+03 0.  1.
       22    1    1    2    0    0  0.52242187866E-02  0.19463682849E-01  0.95514825191E+00  0.95536082741E+00  0.00000000000E+00 0.  1.
</event>
<event>
 5   1  0.2192208E+09  0.9118800E+02  0.7818608E-02  0.1180000E+00
       11   -1    0    0    0    0  0.00000000000E+00  0.00000000000E+00  0.10559998763E+01  0.10560000000E+01  0.51109989000E-03 0.  1.
     -623   -1    0    0    0    0  0.00000000000E+00  0.00000000000E+00  0.47855275298E-10  0.17124000000E+03  0.17124000000E+03 0.  1.
       11    1    1    2    0    0  0.36645122513E-02  0.57898908169E-03  0.97538381462E+00  0.97539100413E+00  0.51109989000E-03 0.  1.
     -623    1    1    2    0    0 -0.42732380898E-02  0.75595168570E-03  0.20474161186E-04  0.17124000005E+03  0.17124000000E+03 0.  1.
       22    1    1    2    0    0  0.60872592843E-03 -0.13349407833E-02  0.80595609814E-01  0.80608963121E-01  0.00000000000E+00 0.  1.
</event>
<event>
 5   1  0.2192208E+09  0.9118800E+02  0.7818608E-02  0.1180000E+00
       11   -1    0    0    0    0  0.00000000000E+00  0.00000000000E+00  0.10559998763E+01  0.10560000000E+01  0.51109989000E-03 0. -1.
     -623   -1    0    0    0    0  0.00000000000E+00  0.00000000000E+00  0.47855275298E-10  0.17124000000E+03  0.17124000000E+03 0.  1.
       11    1    1    2    0    0  0.30315232265E-02 -0.22356631006E-02  0.89956101490E+00  0.89956904630E+00  0.51109989000E-03 0. -1.
     -623    1    1    2    0    0 -0.22699838454E-02  0.45019611881E-03  0.19966998228E-04  0.17124000002E+03  0.17124000000E+03 0.  1.
       22    1    1    2    0    0 -0.76153940628E-03  0.17854669868E-02  0.15641888277E+00  0.15643092636E+00  0.00000000000E+00 0. -1.
</event>
<event>
 5   1  0.2192208E+09  0.9118800E+02  0.7818608E-02  0.1180000E+00
       11   -1    0    0    0    0  0.00000000000E+00  0.00000000000E+00  0.10559998763E+01  0.10560000000E+01  0.51109989000E-03 0.  1.
     -623   -1    0    0    0    0  0.00000000000E+00  0.00000000000E+00  0.47855275298E-10  0.17124000000E+03  0.17124000000E+03 0. -1.
       11    1    1    2    0    0  0.59519514360E-02  0.78841546113E-02  0.58405910725E+00  0.58414286575E+00  0.51109989000E-03 0.  1.
     -623    1    1    2    0    0 -0.81952161208E-02 -0.15092428114E-01  0.14489066645E-03  0.17124000086E+03  0.17124000000E+03 0. -1.
       22    1    1    2    0    0  0.22432646224E-02  0.72082733882E-02  0.47179587041E+00  0.47185626496E+00  0.00000000000E+00 0. -1.
</event>
<event>
 5   1  0.2192208E+09  0.9118800E+02  0.7818608E-02  0.1180000E+00
       11   -1    0    0    0    0  0.00000000000E+00  0.00000000000E+00  0.10559998763E+01  0.10560000000E+01  0.51109989000E-03 0.  1.
     -623   -1    0    0    0    0  0.00000000000E+00  0.00000000000E+00  0.47855275298E-10  0.17124000000E+03  0.17124000000E+03 0.  1.
       11    1    1    2    0    0 -0.12127492468E-01  0.79736101876E-02  0.72420575144E+00  0.72435135548E+00  0.51109989000E-03 0.  1.
     -623    1    1    2    0    0  0.18775367936E-01 -0.12643506685E-01  0.24649820352E-03  0.17124000150E+03  0.17124000000E+03 0.  1.
       22    1    1    2    0    0 -0.66478755376E-02  0.46698965442E-02  0.33154763059E+00  0.33164715216E+00  0.00000000000E+00 0.  1.
</event>
<event>
 5   1  0.2192208E+09  0.9118800E+02  0.7818608E-02  0.1180000E+00
       11   -1    0    0    0    0  0.00000000000E+00  0.00000000000E+00  0.10559998763E+01  0.10560000000E+01  0.51109989000E-03 0.  1.
     -623   -1    0    0    0    0  0.00000000000E+00  0.00000000000E+00  0.47855275298E-10  0.17124000000E+03  0.17124000000E+03 0. -1.
       11    1    1    2    0    0  0.91907668847E-02 -0.12842597142E-01  0.45652580207E+00  0.45679915901E+00  0.51109989000E-03 0.  1.
     -623    1    1    2    0    0  0.69449613676E-03 -0.57625888964E-03  0.50507678682E-03  0.17124000000E+03  0.17124000000E+03 0. -1.
       22    1    1    2    0    0 -0.98852630216E-02  0.13418856032E-01  0.59896899766E+00  0.59920083802E+00  0.00000000000E+00 0.  1.
</event>
<event>
 5   1  0.2192208E+09  0.9118800E+02  0.7818608E-02  0.1180000E+00
       11   -1    0    0    0    0  0.00000000000E+00  0.00000000000E+00  0.10559998763E+01  0.10560000000E+01  0.51109989000E-03 0.  1.
     -623   -1    0    0    0    0  0.00000000000E+00  0.00000000000E+00  0.47855275298E-10  0.17124000000E+03  0.17124000000E+03 0.  1.
       11    1    1    2    0    0 -0.10344268124E-02 -0.17353088520E-02  0.98971298675E+00  0.98971518059E+00  0.51109989000E-03 0.  1.
     -623    1    1    2    0    0  0.75875656669E-03  0.10389582455E-02  0.63061494844E-05  0.17124000000E+03  0.17124000000E+03 0.  1.
       22    1    1    2    0    0  0.27567026583E-03  0.69635063406E-03  0.66280555462E-01  0.66284786570E-01  0.00000000000E+00 0. -1.
</event>
<event>
 5   1  0.2192208E+09  0.9118800E+02  0.7818608E-02  0.1180000E+00
       11   -1    0    0    0    0  0.00000000000E+00  0.00000000000E+00  0.10559998763E+01  0.10560000000E+01  0.51109989000E-03 0. -1.
     -623   -1    0    0    0    0  0.00000000000E+00  0.00000000000E+00  0.47855275298E-10  0.17124000000E+03  0.17124000000E+03 0.  1.
       11    1    1    2    0    0 -0.46288380937E-02 -0.21147336791E-02  0.98872671056E+00  0.98873993934E+00  0.51109989000E-03 0. -1.
     -623    1    1    2    0    0  0.53104835106E-02  0.28225874344E-02  0.20389972134E-04  0.17124000011E+03  0.17124000000E+03 0.  1.
       22    1    1    2    0    0 -0.68164564515E-03 -0.70785387664E-03  0.67252821206E-01  0.67260000432E-01  0.00000000000E+00 0. -1.
</event>
<event>
 5   1  0.2192208E+09  0.9118800E+02  0.7818608E-02  0.1180000E+00
       11   -1    0    0    0    0  0.00000000000E+00  0.00000000000E+00  0.10559998763E+01  0.10560000000E+01  0.51109989000E-03 0. -1.
     -623   -1    0    0    0    0  0.00000000000E+00  0.00000000000E+00  0.47855275298E-10  0.17124000000E+03  0.17124000000E+03 0.  1.
       11    1    1    2    0    0 -0.68863250236E-03 -0.65022687352E-02  0.74438113140E+00  0.74441002393E+00  0.51109989000E-03 0. -1.
     -623    1    1    2    0    0 -0.48271320280E-02 -0.56471824858E-02  0.31474601990E-03  0.17124000016E+03  0.17124000000E+03 0.  1.
       22    1    1    2    0    0  0.55157645241E-02  0.12149451214E-01  0.31130399758E+00  0.31158981327E+00  0.00000000000E+00 0.  1.
</event>
<event>
 5   1  0.2192208E+09  0.9118800E+02  0.7818608E-02  0.1180000E+00
       11   -1    0    0    0    0  0.00000000000E+00  0.00000000000E+00  0.10559998763E+01  0.10560000000E+01  0.51109989000E-03 0.  1.
     -623   -1    0    0    0    0  0.00000000000E+00  0.00000000000E+00  0.47855275298E-10  0.17124000000E+03  0.17124000000E+03 0. -1.
       11    1    1    2    0    0  0.33012857000E-02  0.43530421501E-02  0.88353970238E+00  0.88355674088E+00  0.51109989000E-03 0.  1.
     -623    1    1    2    0    0 -0.77775993949E-03 -0.15165415059E-02  0.58721649453E-04  0.17124000001E+03  0.17124000000E+03 0. -1.
       22    1    1    2    0    0 -0.25235257583E-02 -0.28365006399E-02  0.17240145535E+00  0.17244325363E+00  0.00000000000E+00 0.  1.
</event>
<event>
 5   1  0.2192208E+09  0.9118800E+02  0.7818608E-02  0.1180000E+00
       11   -1    0    0    0    0  0.00000000000E+00  0.00000000000E+00  0.10559998763E+01  0.10560000000E+01  0.51109989000E-03 0. -1.
     -623   -1    0    0    0    0  0.00000000000E+00  0.00000000000E+00  0.47855275298E-10  0.17124000000E+03  0.17124000000E+03 0.  1.
       11    1    1    2    0    0 -0.45099185660E-02 -0.73376721299E-02  0.91856920285E+00  0.91860972260E+00  0.51109989000E-03 0. -1.
     -623    1    1    2    0    0  0.38179589650E-02  0.97704306648E-02  0.64000287576E-04  0.17124000032E+03  0.17124000000E+03 0.  1.
       22    1    1    2    0    0  0.69195970745E-03 -0.24327582625E-02  0.13736664378E+00  0.13738992665E+00  0.00000000000E+00 0. -1.
</event>
<event>
 5   1  0.2192208E+09  0.9118800E+02  0.7818608E-02  0.1180000E+00
       11   -1    0    0    0    0  0.00000000000E+00  0.00000000000E+00  0.10559998763E+01  0.10560000000E+01  0.51109989000E-03 0.  1.
     -623   -1    0    0    0    0  0.00000000000E+00  0.00000000000E+00  0.47855275298E-10  0.17124000000E+03  0.17124000000E+03 0.  1.
       11    1    1    2    0    0  0.69331003160E-03  0.30184876695E-02  0.86268763600E+00  0.86269334673E+00  0.51109989000E-03 0.  1.
     -623    1    1    2    0    0  0.93533159107E-05 -0.10996414532E-03  0.28746647746E-04  0.17124000000E+03  0.17124000000E+03 0.  1.
       22    1    1    2    0    0 -0.70266334759E-03 -0.29085235233E-02  0.19328350271E+00  0.19330666223E+00  0.00000000000E+00 0.  1.
</event>
<event>
 5   1  0.2192208E+09  0.9118800E+02  0.7818608E-02  0.1180000E+00
       11   -1    0    0    0    0  0.00000000000E+00  0.00000000000E+00  0.10559998763E+01  0.10560000000E+01  0.51109989000E-03 0. -1.
     -623   -1    0    0    0    0  0.00000000000E+00  0.00000000000E+00  0.47855275298E-10  0.17124000000E+03  0.17124000000E+03 0.  1.
       11    1    1    2    0    0 -0.61303363351E-03 -0.12333565490E-02  0.96045698526E+00  0.96045810878E+00  0.51109989000E-03 0. -1.
     -623    1    1    2    0    0  0.37579786037E-04  0.11792995031E-03  0.92444401039E-05  0.17124000000E+03  0.17124000000E+03 0.  1.
       22    1    1    2    0    0  0.57545384637E-03  0.11154265952E-02  0.95533677726E-01  0.95541922231E-01  0.00000000000E+00 0. -1.
</event>
<event>
 5   1  0.2192208E+09  0.9118800E+02  0.7818608E-02  0.1180000E+00
       11   -1    0    0    0    0  0.00000000000E+00  0.00000000000E+00  0.10559998763E+01  0.10560000000E+01  0.51109989000E-03 0.  1.
     -623   -1    0    0    0    0  0.00000000000E+00  0.00000000000E+00  0.47855275298E-10  0.17124000000E+03  0.17124000000E+03 0. -1.
       11    1    1    2    0    0 -0.86789079995E-02  0.95189412222E-02  0.98061046267E+00  0.98069519954E+00  0.51109989000E-03 0.  1.
     -623    1    1    2    0    0  0.94892283254E-02 -0.10295776973E-01  0.93552845806E-04  0.17124000057E+03  0.17124000000E+03 0. -1.
       22    1    1    2    0    0 -0.81031590609E-03  0.77683095554E-03  0.75295369027E-01  0.75303736130E-01  0.00000000000E+00 0.  1.
</event>
<event>
 5   1  0.2192208E+09  0.9118800E+02  0.7818608E-02  0.1180000E+00
       11   -1    0    0    0    0  0.00000000000E+00  0.00000000000E+00  0.10559998763E+01  0.10560000000E+01  0.51109989000E-03 0.  1.
     -623   -1    0    0    0    0  0.00000000000E+00  0.00000000000E+00  0.47855275298E-10  0.17124000000E+03  0.17124000000E+03 0.  1.
       11    1    1    2    0    0  0.67625037130E-03  0.26260801663E-02  0.90121669986E+00  0.90122092460E+00  0.51109989000E-03 0.  1.
     -623    1    1    2    0    0 -0.41751514275E-04 -0.30374056781E-04  0.27168870211E-04  0.17124000000E+03  0.17124000000E+03 0.  1.
       22    1    1    2    0    0 -0.63449885729E-03 -0.25957061097E-02  0.15475600092E+00  0.15477906867E+00  0.00000000000E+00 0.  1.
</event>
<event>
 5   1  0.2192208E+09  0.9118800E+02  0.7818608E-02  0.1180000E+00
       11   -1    0    0    0    0  0.00000000000E+00  0.00000000000E+00  0.10559998763E+01  0.10560000000E+01  0.51109989000E-03 0.  1.
     -623   -1    0    0    0    0  0.00000000000E+00  0.00000000000E+00  0.47855275298E-10  0.17124000000E+03  0.17124000000E+03 0.  1.
       11    1    1    2    0    0 -0.64010814776E-03 -0.81478826616E-02  0.55953677482E+00  0.55959669524E+00  0.51109989000E-03 0.  1.
     -623    1    1    2    0    0  0.37871430276E-02  0.13475846418E-01  0.98938948332E-04  0.17124000057E+03  0.17124000000E+03 0.  1.
       22    1    1    2    0    0 -0.31470346975E-02 -0.53279631076E-02  0.49636411175E+00  0.49640268175E+00  0.00000000000E+00 0.  1.
</event>
<event>
 5   1  0.2192208E+09  0.9118800E+02  0.7818608E-02  0.1180000E+00
       11   -1    0    0    0    0  0.00000000000E+00  0.00000000000E+00  0.10559998763E+01  0.10560000000E+01  0.51109989000E-03 0.  1.
     -623   -1    0    0    0    0  0.00000000000E+00  0.00000000000E+00  0.47855275298E-10  0.17124000000E+03  0.17124000000E+03 0.  1.
       11    1    1    2    0    0 -0.10220411310E-02 -0.38077484513E-02  0.73335247160E+00  0.73336324720E+00  0.51109989000E-03 0.  1.
     -623    1    1    2    0    0  0.10521360560E-02 -0.13057063773E-02  0.51185582202E-04  0.17124000001E+03  0.17124000000E+03 0.  1.
       22    1    1    2    0    0 -0.30094927285E-04  0.51134548314E-02  0.32259622144E+00  0.32263674684E+00  0.00000000000E+00 0.  1.
</event>
<event>
 5   1  0.2192208E+09  0.9118800E+02  0.7818608E-02  0.1180000E+00
       11   -1    0    0    0    0  0.00000000000E+00  0.00000000000E+00  0.10559998763E+01  0.10560000000E+01  0.51109989000E-03 0.  1.
     -623   -1    0    0    0    0  0.00000000000E+00  0.00000000000E+00  0.47855275298E-10  0.17124000000E+03  0.17124000000E+03 0.  1.
       11    1    1    2    0    0 -0.23493407392E-02 -0.83406778661E-02  0.86132688254E+00  0.86137062065E+00  0.51109989000E-03 0. -1.
     -623    1    1    2    0    0  0.31730710024E-02  0.10491808089E-01  0.57596557939E-04  0.17124000035E+03  0.17124000000E+03 0.  1.
       22    1    1    2    0    0 -0.82372951256E-03 -0.21511277406E-02  0.19461514746E+00  0.19462877871E+00  0.00000000000E+00 0.  1.
</event>
<event>
 5   1  0.2192208E+09  0.9118800E+02  0.7818608E-02  0.1180000E+00
       11   -1    0    0    0    0  0.00000000000E+00  0.00000000000E+00  0.10559998763E+01  0.10560000000E+01  0.51109989000E-03 0. -1.
     -623   -1    0    0    0    0  0.00000000000E+00  0.00000000000E+00  0.47855275298E-10  0.17124000000E+03  0.17124000000E+03 0. -1.
       11    1    1    2    0    0 -0.12931488521E-02 -0.53620894808E-02  0.59211451375E+00  0.59214042494E+00  0.51109989000E-03 0. -1.
     -623    1    1    2    0    0  0.24332776136E-02  0.10197371047E-01  0.52711971043E-04  0.17124000032E+03  0.17124000000E+03 0. -1.
       22    1    1    2    0    0 -0.11401286174E-02 -0.48352809617E-02  0.46383258808E+00  0.46385919157E+00  0.00000000000E+00 0. -1.
</event>
<event>
 5   1  0.2192208E+09  0.9118800E+02  0.7818608E-02  0.1180000E+00
       11   -1    0    0    0    0  0.00000000000E+00  0.00000000000E+00  0.10559998763E+01  0.10560000000E+01  0.51109989000E-03 0. -1.
     -623   -1    0    0    0    0  0.00000000000E+00  0.00000000000E+00  0.47855275298E-10  0.17124000000E+03  0.17124000000E+03 0.  1.
       11    1    1    2    0    0  0.26933459992E-02 -0.94520143411E-02  0.87737723343E+00  0.87743242797E+00  0.51109989000E-03 0. -1.
     -623    1    1    2    0    0 -0.44952006702E-02  0.65080368787E-02  0.88615779564E-04  0.17124000018E+03  0.17124000000E+03 0.  1.
       22    1    1    2    0    0  0.18018547037E-02  0.29439774151E-02  0.17853403484E+00  0.17856739702E+00  0.00000000000E+00 0.  1.
</event>
<event>
 5   1  0.2192208E+09  0.9118800E+02  0.7818608E-02  0.1180000E+00
       11   -1    0    0    0    0  0.00000000000E+00  0.00000000000E+00  0.10559998763E+01  0.10560000000E+01  0.51109989000E-03 0. -1.
     -623   -1    0    0    0    0  0.00000000000E+00  0.00000000000E+00  0.47855275298E-10  0.17124000000E+03  0.17124000000E+03 0.  1.
       11    1    1    2    0    0 -0.75247488342E-02 -0.95070416310E-02  0.84104248077E+00  0.84113002643E+00  0.51109989000E-03 0. -1.
     -623    1    1    2    0    0  0.68195318249E-02  0.11780876523E-01  0.10115210404E-03  0.17124000054E+03  0.17124000000E+03 0.  1.
       22    1    1    2    0    0  0.70521683715E-03 -0.22738351899E-02  0.21485627016E+00  0.21486945917E+00  0.00000000000E+00 0. -1.
</event>
<event>
 5   1  0.2192208E+09  0.9118800E+02  0.7818608E-02  0.1180000E+00
       11   -1    0    0    0    0  0.00000000000E+00  0.00000000000E+00  0.10559998763E+01  0.10560000000E+01  0.51109989000E-03 0. -1.
     -623   -1    0    0    0    0  0.00000000000E+00  0.00000000000E+00  0.47855275298E-10  0.17124000000E+03  0.17124000000E+03 0. -1.
       11    1    1    2    0    0 -0.71030875924E-03 -0.20676990174E-01  0.31429830715E+00  0.31497893511E+00  0.51109989000E-03 0. -1.
     -623    1    1    2    0    0  0.13119268792E-01  0.29547183840E-01  0.84056324035E-03  0.17124000305E+03  0.17124000000E+03 0. -1.
       22    1    1    2    0    0 -0.12408960030E-01 -0.88701936593E-02  0.74086100576E+00  0.74101801090E+00  0.00000000000E+00 0. -1.
</event>
<event>
 5   1  0.2192208E+09  0.9118800E+02  0.7818608E-02  0.1180000E+00
       11   -1    0    0    0    0  0.00000000000E+00  0.00000000000E+00  0.10559998763E+01  0.10560000000E+01  0.51109989000E-03 0. -1.
     -623   -1    0    0    0    0  0.00000000000E+00  0.00000000000E+00  0.47855275298E-10  0.17124000000E+03  0.17124000000E+03 0.  1.
       11    1    1    2    0    0  0.18229606080E-03 -0.79078235024E-02  0.66981780872E+00  0.66986470649E+00  0.51109989000E-03 0. -1.
     -623    1    1    2    0    0 -0.84371409838E-03 -0.54288865368E-03  0.13982828546E-03  0.17124000000E+03  0.17124000000E+03 0.  1.
       22    1    1    2    0    0  0.66141803976E-03  0.84507121575E-02  0.38604224209E+00  0.38613529324E+00  0.00000000000E+00 0. -1.
</event>
<event>
 5   1  0.2192208E+09  0.9118800E+02  0.7818608E-02  0.1180000E+00
       11   -1    0    0    0    0  0.00000000000E+00  0.00000000000E+00  0.10559998763E+01  0.10560000000E+01  0.51109989000E-03 0. -1.
     -623   -1    0    0    0    0  0.00000000000E+00  0.00000000000E+00  0.47855275298E-10  0.17124000000E+03  0.17124000000E+03 0. -1.
       11    1    1    2    0    0 -0.77723784627E-03 -0.16296729255E-02  0.88266823460E+00  0.88267022921E+00  0.51109989000E-03 0. -1.
     -623    1    1    2    0    0  0.24294726717E-02 -0.11903845631E-02  0.32710925348E-04  0.17124000002E+03  0.17124000000E+03 0. -1.
       22    1    1    2    0    0 -0.16522348300E-02  0.28200574908E-02  0.17329893279E+00  0.17332975137E+00  0.00000000000E+00 0. -1.
</event>
<event>
 5   1  0.2192208E+09  0.9118800E+02  0.7818608E-02  0.1180000E+00
       11   -1    0    0    0    0  0.00000000000E+00  0.00000000000E+00  0.10559998763E+01  0.10560000000E+01  0.51109989000E-03 0. -1.
     -623   -1    0    0    0    0  0.00000000000E+00  0.00000000000E+00  0.47855275298E-10  0.17124000000E+03  0.17124000000E+03 0. -1.
       11    1    1    2    0    0  0.15993388901E-02  0.13703764226E-02  0.98329813032E+00  0.98330051873E+00  0.51109989000E-03 0. -1.
     -623    1    1    2    0    0 -0.16317586686E-02 -0.21533014181E-02  0.65092189414E-05  0.17124000002E+03  0.17124000000E+03 0. -1.
       22    1    1    2    0    0  0.32420084511E-04  0.78292539930E-03  0.72695434834E-01  0.72699657970E-01  0.00000000000E+00 0.  1.
</event>
<event>
 5   1  0.2192208E+09  0.9118800E+02  0.7818608E-02  0.1180000E+00
       11   -1    0    0    0    0  0.00000000000E+00  0.00000000000E+00  0.10559998763E+01  0.10560000000E+01  0.51109989000E-03 0. -1.
     -623   -1    0    0    0    0  0.00000000000E+00  0.00000000000E+00  0.47855275298E-10  0.17124000000E+03  0.17124000000E+03 0.  1.
       11    1    1    2    0    0  0.26695298600E-03  0.27987685686E-03  0.95636051001E+00  0.95636072479E+00  0.51109989000E-03 0. -1.
     -623    1    1    2    0    0  0.15839978668E-02 -0.19028786629E-02  0.30524157883E-04  0.17124000002E+03  0.17124000000E+03 0.  1.
       22    1    1    2    0    0 -0.18509508750E-02  0.16230018327E-02  0.99608857002E-01  0.99639272114E-01  0.00000000000E+00 0.  1.
</event>
<event>
 5   1  0.2192208E+09  0.9118800E+02  0.7818608E-02  0.1180000E+00
       11   -1    0    0    0    0  0.00000000000E+00  0.00000000000E+00  0.10559998763E+01  0.10560000000E+01  0.51109989000E-03 0.  1.
     -623   -1    0    0    0    0  0.00000000000E+00  0.00000000000E+00  0.47855275298E-10  0.17124000000E+03  0.17124000000E+03 0. -1.
       11    1    1    2    0    0 -0.10966399363E-01 -0.10352461639E-01  0.80267572405E+00  0.80281754750E+00  0.51109989000E-03 0.  1.
     -623    1    1    2    0    0  0.46182499795E-02 -0.92889764858E-02  0.98487947356E-03  0.17124000032E+03  0.17124000000E+03 0. -1.
       22    1    1    2    0    0  0.63481493832E-02  0.19641438125E-01  0.25233927290E+00  0.25318213550E+00  0.00000000000E+00 0. -1.
</event>
<event>
 5   1  0.2192208E+09  0.9118800E+02  0.7818608E-02  0.1180000E+00
       11   -1    0    0    0    0  0.00000000000E+00  0.00000000000E+00  0.10559998763E+01  0.10560000000E+01  0.51109989000E-03 0.  1.
     -623   -1    0    0    0    0  0.00000000000E+00  0.00000000000E+00  0.47855275298E-10  0.17124000000E+03  0.17124000000E+03 0.  1.
       11    1    1    2    0    0  0.79630021440E-03 -0.15686194129E-02  0.94150285955E+00  0.94150464175E+00  0.51109989000E-03 0.  1.
     -623    1    1    2    0    0 -0.19291579081E-04 -0.17709510990E-03  0.17604780864E-04  0.17124000000E+03  0.17124000000E+03 0.  1.
       22    1    1    2    0    0 -0.77700863530E-03  0.17457145231E-02  0.11447941323E+00  0.11449535936E+00  0.00000000000E+00 0. -1.
</event>
<event>
 5   1  0.2192208E+09  0.9118800E+02  0.7818608E-02  0.1180000E+00
       11   -1    0    0    0    0  0.00000000000E+00  0.00000000000E+00  0.10559998763E+01  0.10560000000E+01  0.51109989000E-03 0.  1.
     -623   -1    0    0    0    0  0.00000000000E+00  0.00000000000E+00  0.47855275298E-10  0.17124000000E+03  0.17124000000E+03 0.  1.
       11    1    1    2    0    0 -0.12566057203E-03  0.35831844333E-02  0.98222498761E+00  0.98223166438E+00  0.51109989000E-03 0.  1.
     -623    1    1    2    0    0 -0.53447719443E-04 -0.26052909938E-02  0.13272312857E-04  0.17124000002E+03  0.17124000000E+03 0.  1.
       22    1    1    2    0    0  0.17910829232E-03 -0.97789339825E-03  0.73761633148E-01  0.73768332501E-01  0.00000000000E+00 0.  1.
</event>
<event>
 5   1  0.2192208E+09  0.9118800E+02  0.7818608E-02  0.1180000E+00
       11   -1    0    0    0    0  0.00000000000E+00  0.00000000000E+00  0.10559998763E+01  0.10560000000E+01  0.51109989000E-03 0. -1.
     -623   -1    0    0    0    0  0.00000000000E+00  0.00000000000E+00  0.47855275298E-10  0.17124000000E+03  0.17124000000E+03 0.  1.
       11    1    1    2    0    0 -0.89661566804E-02 -0.28674197372E-02  0.19635176014E+00  0.19657794636E+00  0.51109989000E-03 0. -1.
     -623    1    1    2    0    0  0.88917358151E-03 -0.12862362953E-01  0.40847127824E-03  0.17124000049E+03  0.17124000000E+03 0.  1.
       22    1    1    2    0    0  0.80769830988E-02  0.15729782691E-01  0.85923964500E+00  0.85942156783E+00  0.00000000000E+00 0. -1.
</event>
<event>
 5   1  0.2192208E+09  0.9118800E+02  0.7818608E-02  0.1180000E+00
       11   -1    0    0    0    0  0.00000000000E+00  0.00000000000E+00  0.10559998763E+01  0.10560000000E+01  0.51109989000E-03 0. -1.
     -623   -1    0    0    0    0  0.00000000000E+00  0.00000000000E+00  0.47855275298E-10  0.17124000000E+03  0.17124000000E+03 0.  1.
       11    1    1    2    0    0 -0.19023874385E-02 -0.41458441199E-02  0.26343017233E+00  0.26347015774E+00  0.51109989000E-03 0. -1.
     -623    1    1    2    0    0  0.26550834662E-02  0.15941681473E-01  0.12877017670E-03  0.17124000076E+03  0.17124000000E+03 0.  1.
       22    1    1    2    0    0 -0.75269624160E-03 -0.11795838638E-01  0.79244101890E+00  0.79252916464E+00  0.00000000000E+00 0. -1.
</event>
<event>
 5   1  0.2192208E+09  0.9118800E+02  0.7818608E-02  0.1180000E+00
       11   -1    0    0    0    0  0.00000000000E+00  0.00000000000E+00  0.10559998763E+01  0.10560000000E+01  0.51109989000E-03 0. -1.
     -623   -1    0    0    0    0  0.00000000000E+00  0.00000000000E+00  0.47855275298E-10  0.17124000000E+03  0.17124000000E+03 0. -1.
       11    1    1    2    0    0 -0.29361792107E-01 -0.17396616072E-01  0.75898632412E+00  0.75975341955E+00  0.51109989000E-03 0. -1.
     -623    1    1    2    0    0  0.40060131628E-01  0.24590709333E-01  0.10540911313E-02  0.17124000645E+03  0.17124000000E+03 0. -1.
       22    1    1    2    0    0 -0.10698334833E-01 -0.71940903838E-02  0.29595933767E+00  0.29624000212E+00  0.00000000000E+00 0. -1.
</event>
<event>
 5   1  0.2192208E+09  0.9118800E+02  0.7818608E-02  0.1180000E+00
       11   -1    0    0    0    0  0.00000000000E+00  0.00000000000E+00  0.10559998763E+01  0.10560000000E+01  0.51109989000E-03 0. -1.
     -623   -1    0    0    0    0  0.00000000000E+00  0.00000000000E+00  0.47855275298E-10  0.17124000000E+03  0.17124000000E+03 0. -1.
       11    1    1    2    0    0 -0.83909663663E-03  0.99022493597E-03  0.98387052399E+00  0.98387151286E+00  0.51109989000E-03 0. -1.
     -623    1    1    2    0    0  0.84557812871E-03 -0.18485669919E-03  0.53641228617E-05  0.17124000000E+03  0.17124000000E+03 0. -1.
       22    1    1    2    0    0 -0.64815223189E-05 -0.80536823016E-03  0.72124026018E-01  0.72128522715E-01  0.00000000000E+00 0.  1.
</event>
<event>
 5   1  0.2192208E+09  0.9118800E+02  0.7818608E-02  0.1180000E+00
       11   -1    0    0    0    0  0.00000000000E+00  0.00000000000E+00  0.10559998763E+01  0.10560000000E+01  0.51109989000E-03 0. -1.
     -623   -1    0    0    0    0  0.00000000000E+00  0.00000000000E+00  0.47855275298E-10  0.17124000000E+03  0.17124000000E+03 0.  1.
       11    1    1    2    0    0 -0.14187375023E-01  0.29344957962E-01  0.80937268895E+00  0.81002890011E+00  0.51109989000E-03 0. -1.
     -623    1    1    2    0    0  0.29365048705E-01 -0.34688674805E-01  0.11890163128E-02  0.17124000604E+03  0.17124000000E+03 0.  1.
       22    1    1    2    0    0 -0.15177673633E-01  0.53437167855E-02  0.24543816934E+00  0.24596506268E+00  0.00000000000E+00 0.  1.
</event>
<event>
 5   1  0.2192208E+09  0.9118800E+02  0.7818608E-02  0.1180000E+00
       11   -1    0    0    0    0  0.00000000000E+00  0.00000000000E+00  0.10559998763E+01  0.10560000000E+01  0.51109989000E-03 0.  1.
     -623   -1    0    0    0    0  0.00000000000E+00  0.00000000000E+00  0.47855275298E-10  0.17124000000E+03  0.17124000000E+03 0.  1.
       11    1    1    2    0    0 -0.48858712268E-02 -0.67447681235E-03  0.80070561526E+00  0.80072096900E+00  0.51109989000E-03 0.  1.
     -623    1    1    2    0    0  0.31054725116E-03 -0.26026505625E-02  0.77294060199E-04  0.17124000002E+03  0.17124000000E+03 0.  1.
       22    1    1    2    0    0  0.45753239757E-02  0.32771273745E-02  0.25521696689E+00  0.25527901078E+00  0.00000000000E+00 0.  1.
</event>
<event>
 5   1  0.2192208E+09  0.9118800E+02  0.7818608E-02  0.1180000E+00
       11   -1    0    0    0    0  0.00000000000E+00  0.00000000000E+00  0.10559998763E+01  0.10560000000E+01  0.51109989000E-03 0. -1.
     -623   -1    0    0    0    0  0.00000000000E+00  0.00000000000E+00  0.47855275298E-10  0.17124000000E+03  0.17124000000E+03 0.  1.
       11    1    1    2    0    0 -0.31328065883E-03 -0.11843609644E-02  0.95220262724E+00  0.95220355250E+00  0.51109989000E-03 0. -1.
     -623    1    1    2    0    0 -0.57687472717E-04 -0.32809879121E-04  0.86014447729E-05  0.17124000000E+03  0.17124000000E+03 0.  1.
       22    1    1    2    0    0  0.37096812861E-03  0.12171708419E-02  0.10378859384E+00  0.10379639364E+00  0.00000000000E+00 0. -1.
</event>
<event>
 5   1  0.2192208E+09  0.9118800E+02  0.7818608E-02  0.1180000E+00
       11   -1    0    0    0    0  0.00000000000E+00  0.00000000000E+00  0.10559998763E+01  0.10560000000E+01  0.51109989000E-03 0.  1.
     -623   -1    0    0    0    0  0.00000000000E+00  0.00000000000E+00  0.47855275298E-10  0.17124000000E+03  0.17124000000E+03 0. -1.
       11    1    1    2    0    0  0.97414722353E-03  0.16373409705E-01  0.10027431030E+01  0.10028773751E+01  0.51109989000E-03 0.  1.
     -623    1    1    2    0    0 -0.99637590985E-03 -0.17302174463E-01  0.14314985470E-03  0.17124000088E+03  0.17124000000E+03 0. -1.
       22    1    1    2    0    0  0.22229748158E-04  0.92878319712E-03  0.53114748701E-01  0.53122873247E-01  0.00000000000E+00 0. -1.
</event>
<event>
 5   1  0.2192208E+09  0.9118800E+02  0.7818608E-02  0.1180000E+00
       11   -1    0    0    0    0  0.00000000000E+00  0.00000000000E+00  0.10559998763E+01  0.10560000000E+01  0.51109989000E-03 0.  1.
     -623   -1    0    0    0    0  0.00000000000E+00  0.00000000000E+00  0.47855275298E-10  0.17124000000E+03  0.17124000000E+03 0.  1.
       11    1    1    2    0    0  0.54299408905E-05  0.11653010463E-01  0.94569852266E+00  0.94577045295E+00  0.51109989000E-03 0.  1.
     -623    1    1    2    0    0  0.31909521015E-04 -0.12836403452E-01  0.78646608590E-04  0.17124000048E+03  0.17124000000E+03 0.  1.
       22    1    1    2    0    0 -0.37339468332E-04  0.11833955740E-02  0.11022291977E+00  0.11022927860E+00  0.00000000000E+00 0. -1.
</event>
<event>
 5   1  0.2192208E+09  0.9118800E+02  0.7818608E-02  0.1180000E+00
       11   -1    0    0    0    0  0.00000000000E+00  0.00000000000E+00  0.10559998763E+01  0.10560000000E+01  0.51109989000E-03 0. -1.
     -623   -1    0    0    0    0  0.00000000000E+00  0.00000000000E+00  0.47855275298E-10  0.17124000000E+03  0.17124000000E+03 0.  1.
       11    1    1    2    0    0 -0.91206501622E-03  0.35514759495E-02  0.33314958161E+00  0.33317015141E+00  0.51109989000E-03 0. -1.
     -623    1    1    2    0    0 -0.66006232903E-03  0.52956641244E-02  0.76383843131E-04  0.17124000008E+03  0.17124000000E+03 0.  1.
       22    1    1    2    0    0  0.15721273492E-02 -0.88471401059E-02  0.72277391730E+00  0.72282977180E+00  0.00000000000E+00 0. -1.
</event>
<event>
 5   1  0.2192208E+09  0.9118800E+02  0.7818608E-02  0.1180000E+00
       11   -1    0    0    0    0  0.00000000000E+00  0.00000000000E+00  0.10559998763E+01  0.10560000000E+01  0.51109989000E-03 0.  1.
     -623   -1    0    0    0    0  0.00000000000E+00  0.00000000000E+00  0.47855275298E-10  0.17124000000E+03  0.17124000000E+03 0. -1.
       11    1    1    2    0    0 -0.21170370524E-02  0.27853848519E-01  0.67542698176E+00  0.67600457664E+00  0.51109989000E-03 0.  1.
     -623    1    1    2    0    0  0.21782852972E-02 -0.39202333653E-01  0.75147891802E-03  0.17124000450E+03  0.17124000000E+03 0. -1.
       22    1    1    2    0    0 -0.61248248403E-04  0.11348485198E-01  0.37982141742E+00  0.37999092226E+00  0.00000000000E+00 0. -1.
</event>
<event>
 5   1  0.2192208E+09  0.9118800E+02  0.7818608E-02  0.1180000E+00
       11   -1    0    0    0    0  0.00000000000E+00  0.00000000000E+00  0.10559998763E+01  0.10560000000E+01  0.51109989000E-03 0.  1.
     -623   -1    0    0    0    0  0.00000000000E+00  0.00000000000E+00  0.47855275298E-10  0.17124000000E+03  0.17124000000E+03 0.  1.
       11    1    1    2    0    0  0.15509625826E-02  0.13665798253E-01  0.90622298284E+00  0.90632748793E+00  0.51109989000E-03 0.  1.
     -623    1    1    2    0    0 -0.21368096681E-02 -0.17521377583E-01  0.15610680986E-03  0.17124000091E+03  0.17124000000E+03 0.  1.
       22    1    1    2    0    0  0.58584708387E-03  0.38555793170E-02  0.14962078592E+00  0.14967160148E+00  0.00000000000E+00 0.  1.
</event>
<event>
 5   1  0.2192208E+09  0.9118800E+02  0.7818608E-02  0.1180000E+00
       11   -1    0    0    0    0  0.00000000000E+00  0.00000000000E+00  0.10559998763E+01  0.10560000000E+01  0.51109989000E-03 0.  1.
     -623   -1    0    0    0    0  0.00000000000E+00  0.00000000000E+00  0.47855275298E-10  0.17124000000E+03  0.17124000000E+03 0. -1.
       11    1    1    2    0    0  0.32378811926E-04 -0.25987926720E-02  0.22100618329E+00  0.22102205557E+00  0.51109989000E-03 0.  1.
     -623    1    1    2    0    0  0.12388817973E-02  0.13725983367E-01  0.91416741101E-04  0.17124000055E+03  0.17124000000E+03 0. -1.
       22    1    1    2    0    0 -0.12712607765E-02 -0.11127192549E-01  0.83490241894E+00  0.83497753243E+00  0.00000000000E+00 0.  1.
</event>
<event>
 5   1  0.2192208E+09  0.9118800E+02  0.7818608E-02  0.1180000E+00
       11   -1    0    0    0    0  0.00000000000E+00  0.00000000000E+00  0.10559998763E+01  0.10560000000E+01  0.51109989000E-03 0.  1.
     -623   -1    0    0    0    0  0.00000000000E+00  0.00000000000E+00  0.47855275298E-10  0.17124000000E+03  0.17124000000E+03 0.  1.
       11    1    1    2    0    0 -0.45968424185E-03 -0.97837712003E-03  0.97514729891E+00  0.97514803201E+00  0.51109989000E-03 0.  1.
     -623    1    1    2    0    0 -0.17948034814E-04 -0.14359723027E-04  0.81152494131E-05  0.17124000000E+03  0.17124000000E+03 0.  1.
       22    1    1    2    0    0  0.47763227654E-03  0.99273684296E-03  0.80844454959E-01  0.80851960747E-01  0.00000000000E+00 0. -1.
</event>
<event>
 5   1  0.2192208E+09  0.9118800E+02  0.7818608E-02  0.1180000E+00
       11   -1    0    0    0    0  0.00000000000E+00  0.00000000000E+00  0.10559998763E+01  0.10560000000E+01  0.51109989000E-03 0.  1.
     -623   -1    0    0    0    0  0.00000000000E+00  0.00000000000E+00  0.47855275298E-10  0.17124000000E+03  0.17124000000E+03 0.  1.
       11    1    1    2    0    0  0.72939577349E-02 -0.61245469252E-02  0.69136403878E+00  0.69142982814E+00  0.51109989000E-03 0.  1.
     -623    1    1    2    0    0 -0.78880492811E-02 -0.33176188376E-02  0.18865787559E-03  0.17124000021E+03  0.17124000000E+03 0.  1.
       22    1    1    2    0    0  0.59409156383E-03  0.94421657702E-02  0.36444718208E+00  0.36456996031E+00  0.00000000000E+00 0. -1.
</event>
<event>
 5   1  0.2192208E+09  0.9118800E+02  0.7818608E-02  0.1180000E+00
       11   -1    0    0    0    0  0.00000000000E+00  0.00000000000E+00  0.10559998763E+01  0.10560000000E+01  0.51109989000E-03 0. -1.
     -623   -1    0    0    0    0  0.00000000000E+00  0.00000000000E+00  0.47855275298E-10  0.17124000000E+03  0.17124000000E+03 0.  1.
       11    1    1    2    0    0 -0.61184719178E-02  0.45108892010E-02  0.77061587289E+00  0.77065353344E+00  0.51109989000E-03 0. -1.
     -623    1    1    2    0    0  0.11360245207E-01 -0.78316375721E-02  0.10556904322E-03  0.17124000056E+03  0.17124000000E+03 0.  1.
       22    1    1    2    0    0 -0.52417734823E-02  0.33207485042E-02  0.28527845237E+00  0.28534592856E+00  0.00000000000E+00 0. -1.
</event>
<event>
 5   1  0.2192208E+09  0.9118800E+02  0.7818608E-02  0.1180000E+00
       11   -1    0    0    0    0  0.00000000000E+00  0.00000000000E+00  0.10559998763E+01  0.10560000000E+01  0.51109989000E-03 0. -1.
     -623   -1    0    0    0    0  0.00000000000E+00  0.00000000000E+00  0.47855275298E-10  0.17124000000E+03  0.17124000000E+03 0.  1.
       11    1    1    2    0    0 -0.48252587680E-02  0.32142988789E-02  0.10033389143E+01  0.10033557958E+01  0.51109989000E-03 0. -1.
     -623    1    1    2    0    0  0.47119385458E-02 -0.37650604119E-02  0.19867183832E-04  0.17124000011E+03  0.17124000000E+03 0.  1.
       22    1    1    2    0    0  0.11332007094E-03  0.55076165376E-03  0.52641128771E-01  0.52644131849E-01  0.00000000000E+00 0.  1.
</event>
<event>
 5   1  0.2192208E+09  0.9118800E+02  0.7818608E-02  0.1180000E+00
       11   -1    0    0    0    0  0.00000000000E+00  0.00000000000E+00  0.10559998763E+01  0.10560000000E+01  0.51109989000E-03 0.  1.
     -623   -1    0    0    0    0  0.00000000000E+00  0.00000000000E+00  0.47855275298E-10  0.17124000000E+03  0.17124000000E+03 0. -1.
       11    1    1    2    0    0 -0.39906517395E-03 -0.18331125401E-02  0.92994219464E+00  0.92994422744E+00  0.51109989000E-03 0.  1.
     -623    1    1    2    0    0  0.59365968773E-03  0.43003463263E-03  0.98697437458E-05  0.17124000000E+03  0.17124000000E+03 0. -1.
       22    1    1    2    0    0 -0.19459449773E-03  0.14030779191E-02  0.12604778344E+00  0.12605574245E+00  0.00000000000E+00 0.  1.
</event>
<event>
 5   1  0.2192208E+09  0.9118800E+02  0.7818608E-02  0.1180000E+00
       11   -1    0    0    0    0  0.00000000000E+00  0.00000000000E+00  0.10559998763E+01  0.10560000000E+01  0.51109989000E-03 0.  1.
     -623   -1    0    0    0    0  0.00000000000E+00  0.00000000000E+00  0.47855275298E-10  0.17124000000E+03  0.17124000000E+03 0.  1.
       11    1    1    2    0    0  0.10367839053E-02 -0.37893452315E-02  0.72557911438E+00  0.72558992999E+00  0.51109989000E-03 0.  1.
     -623    1    1    2    0    0  0.66333086748E-03 -0.24100341397E-03  0.39649782503E-04  0.17124000000E+03  0.17124000000E+03 0.  1.
       22    1    1    2    0    0 -0.17001147788E-02  0.40303486477E-02  0.33038112167E+00  0.33041007802E+00  0.00000000000E+00 0.  1.
</event>
<event>
 5   1  0.2192208E+09  0.9118800E+02  0.7818608E-02  0.1180000E+00
       11   -1    0    0    0    0  0.00000000000E+00  0.00000000000E+00  0.10559998763E+01  0.10560000000E+01  0.51109989000E-03 0. -1.
     -623   -1    0    0    0    0  0.00000000000E+00  0.00000000000E+00  0.47855275298E-10  0.17124000000E+03  0.17124000000E+03 0.  1.
       11    1    1    2    0    0 -0.64047584833E-03 -0.64302081244E-03  0.99857560019E+00  0.99857614342E+00  0.51109989000E-03 0. -1.
     -623    1    1    2    0    0  0.18686111455E-04  0.43175783979E-04  0.69193216850E-05  0.17124000000E+03  0.17124000000E+03 0.  1.
       22    1    1    2    0    0  0.62178973647E-03  0.59984502752E-03  0.57417379765E-01  0.57423879489E-01  0.00000000000E+00 0. -1.
</event>
<event>
 5   1  0.2192208E+09  0.9118800E+02  0.7818608E-02  0.1180000E+00
       11   -1    0    0    0    0  0.00000000000E+00  0.00000000000E+00  0.10559998763E+01  0.10560000000E+01  0.51109989000E-03 0.  1.
     -623   -1    0    0    0    0  0.00000000000E+00  0.00000000000E+00  0.47855275298E-10  0.17124000000E+03  0.17124000000E+03 0.  1.
       11    1    1    2    0    0  0.89640848100E-03 -0.29083022894E-02  0.85318968755E+00  0.85319526835E+00  0.51109989000E-03 0.  1.
     -623    1    1    2    0    0 -0.47069342508E-03  0.28195399941E-03  0.22911391337E-04  0.17124000000E+03  0.17124000000E+03 0.  1.
       22    1    1    2    0    0 -0.42571505197E-03  0.26263482876E-02  0.20278728629E+00  0.20280473964E+00  0.00000000000E+00 0.  1.
</event>
<event>
 5   1  0.2192208E+09  0.9118800E+02  0.7818608E-02  0.1180000E+00
       11   -1    0    0    0    0  0.00000000000E+00  0.00000000000E+00  0.10559998763E+01  0.10560000000E+01  0.51109989000E-03 0.  1.
     -623   -1    0    0    0    0  0.00000000000E+00  0.00000000000E+00  0.47855275298E-10  0.17124000000E+03  0.17124000000E+03 0.  1.
       11    1    1    2    0    0  0.37136012088E-02  0.60566107876E-02  0.61991638497E+00  0.61995730413E+00  0.51109989000E-03 0. -1.
     -623    1    1    2    0    0 -0.70590793432E-02 -0.10467064714E-01  0.76401531115E-04  0.17124000047E+03  0.17124000000E+03 0.  1.
       22    1    1    2    0    0  0.33454777585E-02  0.44104533685E-02  0.43600703361E+00  0.43604217420E+00  0.00000000000E+00 0.  1.
</event>
<event>
 5   1  0.2192208E+09  0.9118800E+02  0.7818608E-02  0.1180000E+00
       11   -1    0    0    0    0  0.00000000000E+00  0.00000000000E+00  0.10559998763E+01  0.10560000000E+01  0.51109989000E-03 0. -1.
     -623   -1    0    0    0    0  0.00000000000E+00  0.00000000000E+00  0.47855275298E-10  0.17124000000E+03  0.17124000000E+03 0.  1.
       11    1    1    2    0    0  0.65988088006E-03  0.11952161695E-02  0.99486359001E+00  0.99486465810E+00  0.51109989000E-03 0. -1.
     -623    1    1    2    0    0 -0.12560683584E-02 -0.32586977683E-03  0.10038097416E-04  0.17124000000E+03  0.17124000000E+03 0.  1.
       22    1    1    2    0    0  0.59618750311E-03 -0.86934638620E-03  0.61126269096E-01  0.61135357824E-01  0.00000000000E+00 0.  1.
</event>
<event>
 5   1  0.2192208E+09  0.9118800E+02  0.7818608E-02  0.1180000E+00
       11   -1    0    0    0    0  0.00000000000E+00  0.00000000000E+00  0.10559998763E+01  0.10560000000E+01  0.51109989000E-03 0. -1.
     -623   -1    0    0    0    0  0.00000000000E+00  0.00000000000E+00  0.47855275298E-10  0.17124000000E+03  0.17124000000E+03 0.  1.
       11    1    1    2    0    0 -0.11713179636E-01 -0.13732772816E-01  0.92724169953E+00  0.92741749940E+00  0.51109989000E-03 0. -1.
     -623    1    1    2    0    0  0.12748393840E-01  0.15546571050E-01  0.19381794133E-03  0.17124000118E+03  0.17124000000E+03 0.  1.
       22    1    1    2    0    0 -0.10352118851E-02 -0.18137954068E-02  0.12856416686E+00  0.12858112815E+00  0.00000000000E+00 0.  1.
</event>
<event>
 5   1  0.2192208E+09  0.9118800E+02  0.7818608E-02  0.1180000E+00
       11   -1    0    0    0    0  0.00000000000E+00  0.00000000000E+00  0.10559998763E+01  0.10560000000E+01  0.51109989000E-03 0.  1.
     -623   -1    0    0    0    0  0.00000000000E+00  0.00000000000E+00  0.47855275298E-10  0.17124000000E+03  0.17124000000E+03 0.  1.
       11    1    1    2    0    0 -0.23341702459E-01  0.34718463655E-01  0.96834771408E+00  0.96925113535E+00  0.51109989000E-03 0.  1.
     -623    1    1    2    0    0  0.25435607333E-01 -0.37656706116E-01  0.98439869869E-03  0.17124000603E+03  0.17124000000E+03 0.  1.
       22    1    1    2    0    0 -0.20938767939E-02  0.29382008893E-02  0.86666598870E-01  0.86741666483E-01  0.00000000000E+00 0.  1.
</event>
<event>
 5   1  0.2192208E+09  0.9118800E+02  0.7818608E-02  0.1180000E+00
       11   -1    0    0    0    0  0.00000000000E+00  0.00000000000E+00  0.10559998763E+01  0.10560000000E+01  0.51109989000E-03 0.  1.
     -623   -1    0    0    0    0  0.00000000000E+00  0.00000000000E+00  0.47855275298E-10  0.17124000000E+03  0.17124000000E+03 0.  1.
       11    1    1    2    0    0 -0.15345868784E-01  0.30015356151E-01  0.45121484914E+00  0.45247267166E+00  0.51109989000E-03 0.  1.
     -623    1    1    2    0    0  0.34679667757E-01 -0.43780673606E-01  0.17336599905E-02  0.17124000912E+03  0.17124000000E+03 0.  1.
       22    1    1    2    0    0 -0.19333799003E-01  0.13765317493E-01  0.60305136816E+00  0.60351821214E+00  0.00000000000E+00 0.  1.
</event>
<event>
 5   1  0.2192208E+09  0.9118800E+02  0.7818608E-02  0.1180000E+00
       11   -1    0    0    0    0  0.00000000000E+00  0.00000000000E+00  0.10559998763E+01  0.10560000000E+01  0.51109989000E-03 0. -1.
     -623   -1    0    0    0    0  0.00000000000E+00  0.00000000000E+00  0.47855275298E-10  0.17124000000E+03  0.17124000000E+03 0. -1.
       11    1    1    2    0    0 -0.66031160501E-02  0.12573153273E-01  0.56507436765E+00  0.56525302964E+00  0.51109989000E-03 0. -1.
     -623    1    1    2    0    0  0.20826261993E-02 -0.10044327562E-02  0.33575836612E-03  0.17124000002E+03  0.17124000000E+03 0. -1.
       22    1    1    2    0    0  0.45204898496E-02 -0.11568720516E-01  0.49058975094E+00  0.49074695501E+00  0.00000000000E+00 0. -1.
</event>
<event>
 5   1  0.2192208E+09  0.9118800E+02  0.7818608E-02  0.1180000E+00
       11   -1    0    0    0    0  0.00000000000E+00  0.00000000000E+00  0.10559998763E+01  0.10560000000E+01  0.51109989000E-03 0. -1.
     -623   -1    0    0    0    0  0.00000000000E+00  0.00000000000E+00  0.47855275298E-10  0.17124000000E+03  0.17124000000E+03 0.  1.
       11    1    1    2    0    0  0.11463499706E-02 -0.38476226027E-03  0.90141875921E+00  0.90141971513E+00  0.51109989000E-03 0. -1.
     -623    1    1    2    0    0 -0.37749514290E-02 -0.11955357088E-02  0.31308270801E-04  0.17124000005E+03  0.17124000000E+03 0.  1.
       22    1    1    2    0    0  0.26286014414E-02  0.15802979637E-02  0.15454980413E+00  0.15458023433E+00  0.00000000000E+00 0.  1.
</event>
<event>
 5   1  0.2192208E+09  0.9118800E+02  0.7818608E-02  0.1180000E+00
       11   -1    0    0    0    0  0.00000000000E+00  0.00000000000E+00  0.10559998763E+01  0.10560000000E+01  0.51109989000E-03 0.  1.
     -623   -1    0    0    0    0  0.00000000000E+00  0.00000000000E+00  0.47855275298E-10  0.17124000000E+03  0.17124000000E+03 0.  1.
       11    1    1    2    0    0 -0.12116591551E-02  0.27050582030E-02  0.97660628319E+00  0.97661091487E+00  0.51109989000E-03 0.  1.
     -623    1    1    2    0    0  0.28143491432E-04  0.10841652382E-03  0.63205038876E-04  0.17124000000E+03  0.17124000000E+03 0.  1.
       22    1    1    2    0    0  0.11835156634E-02 -0.28134747277E-02  0.79330396833E-01  0.79389093779E-01  0.00000000000E+00 0.  1.
</event>
<event>
 5   1  0.2192208E+09  0.9118800E+02  0.7818608E-02  0.1180000E+00
       11   -1    0    0    0    0  0.00000000000E+00  0.00000000000E+00  0.10559998763E+01  0.10560000000E+01  0.51109989000E-03 0.  1.
     -623   -1    0    0    0    0  0.00000000000E+00  0.00000000000E+00  0.47855275298E-10  0.17124000000E+03  0.17124000000E+03 0. -1.
       11    1    1    2    0    0  0.56424633839E-02 -0.11522847531E-01  0.51918492861E+00  0.51934368652E+00  0.51109989000E-03 0.  1.
     -623    1    1    2    0    0  0.17678125226E-02 -0.36273661544E-03  0.34145453298E-03  0.17124000001E+03  0.17124000000E+03 0. -1.
       22    1    1    2    0    0 -0.74102759068E-02  0.11885584146E-01  0.53647349340E+00  0.53665630381E+00  0.00000000000E+00 0.  1.
</event>
<event>
 5   1  0.2192208E+09  0.9118800E+02  0.7818608E-02  0.1180000E+00
       11   -1    0    0    0    0  0.00000000000E+00  0.00000000000E+00  0.10559998763E+01  0.10560000000E+01  0.51109989000E-03 0.  1.
     -623   -1    0    0    0    0  0.00000000000E+00  0.00000000000E+00  0.47855275298E-10  0.17124000000E+03  0.17124000000E+03 0.  1.
       11    1    1    2    0    0  0.24049681921E-01  0.13502828559E-01  0.10030794388E+01  0.10034586864E+01  0.51109989000E-03 0.  1.
     -623    1    1    2    0    0 -0.25179424767E-01 -0.14087212410E-01  0.39695379401E-03  0.17124000243E+03  0.17124000000E+03 0.  1.
       22    1    1    2    0    0  0.11297573634E-02  0.58439197356E-03  0.52524092448E-01  0.52539491368E-01  0.00000000000E+00 0.  1.
</event>
<event>
 5   1  0.2192208E+09  0.9118800E+02  0.7818608E-02  0.1180000E+00
       11   -1    0    0    0    0  0.00000000000E+00  0.00000000000E+00  0.10559998763E+01  0.10560000000E+01  0.51109989000E-03 0.  1.
     -623   -1    0    0    0    0  0.00000000000E+00  0.00000000000E+00  0.47855275298E-10  0.17124000000E+03  0.17124000000E+03 0. -1.
       11    1    1    2    0    0 -0.44870197177E-02  0.18440382049E-01  0.63562204037E+00  0.63590551222E+00  0.51109989000E-03 0.  1.
     -623    1    1    2    0    0  0.40201965038E-02 -0.25050659788E-01  0.33749799496E-03  0.17124000188E+03  0.17124000000E+03 0. -1.
       22    1    1    2    0    0  0.46682325910E-03  0.66102774568E-02  0.42004032613E+00  0.42009259606E+00  0.00000000000E+00 0.  1.
</event>
<event>
 5   1  0.2192208E+09  0.9118800E+02  0.7818608E-02  0.1180000E+00
       11   -1    0    0    0    0  0.00000000000E+00  0.00000000000E+00  0.10559998763E+01  0.10560000000E+01  0.51109989000E-03 0.  1.
     -623   -1    0    0    0    0  0.00000000000E+00  0.00000000000E+00  0.47855275298E-10  0.17124000000E+03  0.17124000000E+03 0. -1.
       11    1    1    2    0    0 -0.14994440616E-01 -0.93866367601E-02  0.89042373804E+00  0.89059959392E+00  0.51109989000E-03 0.  1.
     -623    1    1    2    0    0  0.17602309905E-01  0.11433503476E-01  0.21024672744E-03  0.17124000129E+03  0.17124000000E+03 0. -1.
       22    1    1    2    0    0 -0.26078702621E-02 -0.20468673476E-02  0.16536594997E+00  0.16539917794E+00  0.00000000000E+00 0. -1.
</event>
<event>
 5   1  0.2192208E+09  0.9118800E+02  0.7818608E-02  0.1180000E+00
       11   -1    0    0    0    0  0.00000000000E+00  0.00000000000E+00  0.10559998763E+01  0.10560000000E+01  0.51109989000E-03 0.  1.
     -623   -1    0    0    0    0  0.00000000000E+00  0.00000000000E+00  0.47855275298E-10  0.17124000000E+03  0.17124000000E+03 0. -1.
       11    1    1    2    0    0  0.24607198338E-02 -0.38616059870E-02  0.94416841918E+00  0.94417966094E+00  0.51109989000E-03 0.  1.
     -623    1    1    2    0    0  0.31246642676E-03  0.17653848162E-02  0.65176851963E-04  0.17124000001E+03  0.17124000000E+03 0. -1.
       22    1    1    2    0    0 -0.27731862598E-02  0.20962211751E-02  0.11176627773E+00  0.11182032706E+00  0.00000000000E+00 0. -1.
</event>
<event>
 5   1  0.2192208E+09  0.9118800E+02  0.7818608E-02  0.1180000E+00
       11   -1    0    0    0    0  0.00000000000E+00  0.00000000000E+00  0.10559998763E+01  0.10560000000E+01  0.51109989000E-03 0.  1.
     -623   -1    0    0    0    0  0.00000000000E+00  0.00000000000E+00  0.47855275298E-10  0.17124000000E+03  0.17124000000E+03 0.  1.
       11    1    1    2    0    0 -0.44049145277E-02  0.54036234730E-02  0.56382130212E+00  0.56386463301E+00  0.51109989000E-03 0.  1.
     -623    1    1    2    0    0  0.84828950396E-02 -0.10392478815E-01  0.85916700202E-04  0.17124000053E+03  0.17124000000E+03 0.  1.
       22    1    1    2    0    0 -0.40779756661E-02  0.49888494056E-02  0.49209205435E+00  0.49213423825E+00  0.00000000000E+00 0. -1.
</event>
<event>
 5   1  0.2192208E+09  0.9118800E+02  0.7818608E-02  0.1180000E+00
       11   -1    0    0    0    0  0.00000000000E+00  0.00000000000E+00  0.10559998763E+01  0.10560000000E+01  0.51109989000E-03 0. -1.
     -623   -1    0    0    0    0  0.00000000000E+00  0.00000000000E+00  0.47855275298E-10  0.17124000000E+03  0.17124000000E+03 0. -1.
       11    1    1    2    0    0 -0.17411841052E-01  0.20414094670E-02  0.75770958334E+00  0.75791253682E+00  0.51109989000E-03 0. -1.
     -623    1    1    2    0    0  0.29183390073E-01 -0.87854457972E-02  0.51442605480E-03  0.17124000271E+03  0.17124000000E+03 0. -1.
       22    1    1    2    0    0 -0.11771549133E-01  0.67440363640E-02  0.29777587102E+00  0.29808475432E+00  0.00000000000E+00 0.  1.
</event>
<event>
 5   1  0.2192208E+09  0.9118800E+02  0.7818608E-02  0.1180000E+00
       11   -1    0    0    0    0  0.00000000000E+00  0.00000000000E+00  0.10559998763E+01  0.10560000000E+01  0.51109989000E-03 0.  1.
     -623   -1    0    0    0    0  0.00000000000E+00  0.00000000000E+00  0.47855275298E-10  0.17124000000E+03  0.17124000000E+03 0. -1.
       11    1    1    2    0    0  0.10684082471E-02 -0.13099150008E-01  0.90291359070E+00  0.90300938130E+00  0.51109989000E-03 0.  1.
     -623    1    1    2    0    0 -0.24048899395E-02  0.15706016902E-01  0.12445414648E-03  0.17124000074E+03  0.17124000000E+03 0. -1.
       22    1    1    2    0    0  0.13364817606E-02 -0.26068673393E-02  0.15296186147E+00  0.15298991145E+00  0.00000000000E+00 0.  1.
</event>
<event>
 5   1  0.2192208E+09  0.9118800E+02  0.7818608E-02  0.1180000E+00
       11   -1    0    0    0    0  0.00000000000E+00  0.00000000000E+00  0.10559998763E+01  0.10560000000E+01  0.51109989000E-03 0. -1.
     -623   -1    0    0    0    0  0.00000000000E+00  0.00000000000E+00  0.47855275298E-10  0.17124000000E+03  0.17124000000E+03 0. -1.
       11    1    1    2    0    0  0.10137180634E-02 -0.60537512582E-03  0.47355980583E+00  0.47356155357E+00  0.51109989000E-03 0. -1.
     -623    1    1    2    0    0 -0.29857634374E-02 -0.75884132718E-02  0.62795437400E-04  0.17124000019E+03  0.17124000000E+03 0. -1.
       22    1    1    2    0    0  0.19720454055E-02  0.81937884778E-02  0.58237728626E+00  0.58243826341E+00  0.00000000000E+00 0. -1.
</event>
<event>
 5   1  0.2192208E+09  0.9118800E+02  0.7818608E-02  0.1180000E+00
       11   -1    0    0    0    0  0.00000000000E+00  0.00000000000E+00  0.10559998763E+01  0.10560000000E+01  0.51109989000E-03 0.  1.
     -623   -1    0    0    0    0  0.00000000000E+00  0.00000000000E+00  0.47855275298E-10  0.17124000000E+03  0.17124000000E+03 0. -1.
       11    1    1    2    0    0 -0.25532893851E-02 -0.77459315382E-02  0.95654206368E+00  0.95657697001E+00  0.51109989000E-03 0.  1.
     -623    1    1    2    0    0  0.32329216237E-02  0.92356787719E-02  0.48547258949E-04  0.17124000028E+03  0.17124000000E+03 0. -1.
       22    1    1    2    0    0 -0.67963263359E-03 -0.14897483621E-02  0.99409394440E-01  0.99422879427E-01  0.00000000000E+00 0.  1.
</event>
<event>
 5   1  0.2192208E+09  0.9118800E+02  0.7818608E-02  0.1180000E+00
       11   -1    0    0    0    0  0.00000000000E+00  0.00000000000E+00  0.10559998763E+01  0.10560000000E+01  0.51109989000E-03 0. -1.
     -623   -1    0    0    0    0  0.00000000000E+00  0.00000000000E+00  0.47855275298E-10  0.17124000000E+03  0.17124000000E+03 0.  1.
       11    1    1    2    0    0  0.27625337359E-02  0.20091352697E-02  0.91783451111E+00  0.91784100978E+00  0.51109989000E-03 0. -1.
     -623    1    1    2    0    0 -0.90258257492E-04  0.25213818444E-03  0.50731319288E-04  0.17124000000E+03  0.17124000000E+03 0.  1.
       22    1    1    2    0    0 -0.26722754780E-02 -0.22612734553E-02  0.13811463885E+00  0.13815899492E+00  0.00000000000E+00 0. -1.
</event>
<event>
 5   1  0.2192208E+09  0.9118800E+02  0.7818608E-02  0.1180000E+00
       11   -1    0    0    0    0  0.00000000000E+00  0.00000000000E+00  0.10559998763E+01  0.10560000000E+01  0.51109989000E-03 0. -1.
     -623   -1    0    0    0    0  0.00000000000E+00  0.00000000000E+00  0.47855275298E-10  0.17124000000E+03  0.17124000000E+03 0.  1.
       11    1    1    2    0    0  0.29147001136E-02 -0.56793236915E-02  0.67196892144E+00  0.67199943660E+00  0.51109989000E-03 0. -1.
     -623    1    1    2    0    0 -0.45270427162E-02  0.10293482079E-01  0.61868912344E-04  0.17124000037E+03  0.17124000000E+03 0.  1.
       22    1    1    2    0    0  0.16123423559E-02 -0.46141578262E-02  0.38396902848E+00  0.38400013663E+00  0.00000000000E+00 0. -1.
</event>
<event>
 5   1  0.2192208E+09  0.9118800E+02  0.7818608E-02  0.1180000E+00
       11   -1    0    0    0    0  0.00000000000E+00  0.00000000000E+00  0.10559998763E+01  0.10560000000E+01  0.51109989000E-03 0.  1.
     -623   -1    0    0    0    0  0.00000000000E+00  0.00000000000E+00  0.47855275298E-10  0.17124000000E+03  0.17124000000E+03 0.  1.
       11    1    1    2    0    0  0.50947842729E-02  0.41157875679E-02  0.83519740320E+00  0.83522323966E+00  0.51109989000E-03 0.  1.
     -623    1    1    2    0    0 -0.58511480013E-03  0.57283934330E-03  0.12157983156E-03  0.17124000000E+03  0.17124000000E+03 0.  1.
       22    1    1    2    0    0 -0.45096694721E-02 -0.46886269118E-02  0.22068089444E+00  0.22077675944E+00  0.00000000000E+00 0.  1.
</event>
<event>
 5   1  0.2192208E+09  0.9118800E+02  0.7818608E-02  0.1180000E+00
       11   -1    0    0    0    0  0.00000000000E+00  0.00000000000E+00  0.10559998763E+01  0.10560000000E+01  0.51109989000E-03 0.  1.
     -623   -1    0    0    0    0  0.00000000000E+00  0.00000000000E+00  0.47855275298E-10  0.17124000000E+03  0.17124000000E+03 0.  1.
       11    1    1    2    0    0 -0.86752574381E-02  0.15415512787E-01  0.97092339367E+00  0.97108464910E+00  0.51109989000E-03 0.  1.
     -623    1    1    2    0    0  0.93283555004E-02 -0.17122227208E-01  0.18190771247E-03  0.17124000111E+03  0.17124000000E+03 0.  1.
       22    1    1    2    0    0 -0.65309601862E-03  0.17067106691E-02  0.84894343676E-01  0.84914009350E-01  0.00000000000E+00 0.  1.
</event>
<event>
 5   1  0.2192208E+09  0.9118800E+02  0.7818608E-02  0.1180000E+00
       11   -1    0    0    0    0  0.00000000000E+00  0.00000000000E+00  0.10559998763E+01  0.10560000000E+01  0.51109989000E-03 0. -1.
     -623   -1    0    0    0    0  0.00000000000E+00  0.00000000000E+00  0.47855275298E-10  0.17124000000E+03  0.17124000000E+03 0. -1.
       11    1    1    2    0    0 -0.26837893021E-02  0.70751157759E-02  0.57080694170E+00  0.57085732535E+00  0.51109989000E-03 0. -1.
     -623    1    1    2    0    0  0.44991321186E-02 -0.17457787158E-01  0.16572042941E-03  0.17124000095E+03  0.17124000000E+03 0. -1.
       22    1    1    2    0    0 -0.18153428744E-02  0.10382671607E-01  0.48502722782E+00  0.48514173915E+00  0.00000000000E+00 0. -1.
</event>
<event>
 5   1  0.2192208E+09  0.9118800E+02  0.7818608E-02  0.1180000E+00
       11   -1    0    0    0    0  0.00000000000E+00  0.00000000000E+00  0.10559998763E+01  0.10560000000E+01  0.51109989000E-03 0. -1.
     -623   -1    0    0    0    0  0.00000000000E+00  0.00000000000E+00  0.47855275298E-10  0.17124000000E+03  0.17124000000E+03 0.  1.
       11    1    1    2    0    0  0.10060965200E-01 -0.17135093233E-01  0.91778322086E+00  0.91799844017E+00  0.51109989000E-03 0. -1.
     -623    1    1    2    0    0 -0.11753050563E-01  0.19694789214E-01  0.25074900975E-03  0.17124000154E+03  0.17124000000E+03 0.  1.
       22    1    1    2    0    0  0.16920984705E-02 -0.25597179435E-02  0.13796708384E+00  0.13800120136E+00  0.00000000000E+00 0. -1.
</event>
<event>
 5   1  0.2192208E+09  0.9118800E+02  0.7818608E-02  0.1180000E+00
       11   -1    0    0    0    0  0.00000000000E+00  0.00000000000E+00  0.10559998763E+01  0.10560000000E+01  0.51109989000E-03 0.  1.
     -623   -1    0    0    0    0  0.00000000000E+00  0.00000000000E+00  0.47855275298E-10  0.17124000000E+03  0.17124000000E+03 0. -1.
       11    1    1    2    0    0 -0.85135746069E-02 -0.20246359279E-01  0.94103111570E+00  0.94128753203E+00  0.51109989000E-03 0.  1.
     -623    1    1    2    0    0  0.10207881693E-01  0.21703649293E-01  0.27974404662E-03  0.17124000168E+03  0.17124000000E+03 0. -1.
       22    1    1    2    0    0 -0.16943074410E-02 -0.14572907685E-02  0.11468905332E+00  0.11471082480E+00  0.00000000000E+00 0. -1.
</event>
<event>
 5   1  0.2192208E+09  0.9118800E+02  0.7818608E-02  0.1180000E+00
       11   -1    0    0    0    0  0.00000000000E+00  0.00000000000E+00  0.10559998763E+01  0.10560000000E+01  0.51109989000E-03 0. -1.
     -623   -1    0    0    0    0  0.00000000000E+00  0.00000000000E+00  0.47855275298E-10  0.17124000000E+03  0.17124000000E+03 0.  1.
       11    1    1    2    0    0 -0.95602668387E-02 -0.27499345640E-01  0.10011635267E+01  0.10015868815E+01  0.51109989000E-03 0. -1.
     -623    1    1    2    0    0  0.98362823005E-02  0.29312873802E-01  0.45695499515E-03  0.17124000279E+03  0.17124000000E+03 0.  1.
       22    1    1    2    0    0 -0.27601766002E-03 -0.18135347135E-02  0.54379630573E-01  0.54410562533E-01  0.00000000000E+00 0. -1.
</event>
<event>
 5   1  0.2192208E+09  0.9118800E+02  0.7818608E-02  0.1180000E+00
       11   -1    0    0    0    0  0.00000000000E+00  0.00000000000E+00  0.10559998763E+01  0.10560000000E+01  0.51109989000E-03 0.  1.
     -623   -1    0    0    0    0  0.00000000000E+00  0.00000000000E+00  0.47855275298E-10  0.17124000000E+03  0.17124000000E+03 0.  1.
       11    1    1    2    0    0 -0.45355348365E-03 -0.73486142999E-03  0.98461881823E+00  0.98461932957E+00  0.51109989000E-03 0.  1.
     -623    1    1    2    0    0 -0.20917699119E-04  0.11332706529E-04  0.56317362407E-05  0.17124000000E+03  0.17124000000E+03 0.  1.
       22    1    1    2    0    0  0.47447118212E-03  0.72352872381E-03  0.71375393236E-01  0.71380637265E-01  0.00000000000E+00 0.  1.
</event>
<event>
 5   1  0.2192208E+09  0.9118800E+02  0.7818608E-02  0.1180000E+00
       11   -1    0    0    0    0  0.00000000000E+00  0.00000000000E+00  0.10559998763E+01  0.10560000000E+01  0.51109989000E-03 0.  1.
     -623   -1    0    0    0    0  0.00000000000E+00  0.00000000000E+00  0.47855275298E-10  0.17124000000E+03  0.17124000000E+03 0. -1.
       11    1    1    2    0    0 -0.10051403370E-03  0.79361577344E-03  0.99155655613E+00  0.99155701054E+00  0.51109989000E-03 0.  1.
     -623    1    1    2    0    0 -0.33138232697E-03  0.15481121863E-04  0.68579065584E-05  0.17124000000E+03  0.17124000000E+03 0. -1.
       22    1    1    2    0    0  0.43189637607E-03 -0.80909689603E-03  0.64436511428E-01  0.64443038237E-01  0.00000000000E+00 0.  1.
</event>
<event>
 5   1  0.2192208E+09  0.9118800E+02  0.7818608E-02  0.1180000E+00
       11   -1    0    0    0    0  0.00000000000E+00  0.00000000000E+00  0.10559998763E+01  0.10560000000E+01  0.51109989000E-03 0.  1.
     -623   -1    0    0    0    0  0.00000000000E+00  0.00000000000E+00  0.47855275298E-10  0.17124000000E+03  0.17124000000E+03 0.  1.
       11    1    1    2    0    0 -0.53203567583E-02 -0.95653406500E-02  0.10035724924E+01  0.10036323085E+01  0.51109989000E-03 0.  1.
     -623    1    1    2    0    0  0.55970984037E-02  0.10112645280E-01  0.63673923510E-04  0.17124000039E+03  0.17124000000E+03 0.  1.
       22    1    1    2    0    0 -0.27674778935E-03 -0.54731573027E-03  0.52364869163E-01  0.52368460606E-01  0.00000000000E+00 0. -1.
</event>
<event>
 5   1  0.2192208E+09  0.9118800E+02  0.7818608E-02  0.1180000E+00
       11   -1    0    0    0    0  0.00000000000E+00  0.00000000000E+00  0.10559998763E+01  0.10560000000E+01  0.51109989000E-03 0.  1.
     -623   -1    0    0    0    0  0.00000000000E+00  0.00000000000E+00  0.47855275298E-10  0.17124000000E+03  0.17124000000E+03 0.  1.
       11    1    1    2    0    0 -0.88669786910E-02 -0.16921663042E-01  0.94701309876E+00  0.94720591026E+00  0.51109989000E-03 0.  1.
     -623    1    1    2    0    0  0.10465543102E-01  0.18706794884E-01  0.22042291938E-03  0.17124000134E+03  0.17124000000E+03 0.  1.
       22    1    1    2    0    0 -0.15985615389E-02 -0.17851267084E-02  0.10876606494E+00  0.10879245819E+00  0.00000000000E+00 0. -1.
</event>
<event>
 5   1  0.2192208E+09  0.9118800E+02  0.7818608E-02  0.1180000E+00
       11   -1    0    0    0    0  0.00000000000E+00  0.00000000000E+00  0.10559998763E+01  0.10560000000E+01  0.51109989000E-03 0. -1.
     -623   -1    0    0    0    0  0.00000000000E+00  0.00000000000E+00  0.47855275298E-10  0.17124000000E+03  0.17124000000E+03 0.  1.
       11    1    1    2    0    0  0.50309050606E-02  0.37456620510E-02  0.63471203538E+00  0.63474323081E+00  0.51109989000E-03 0. -1.
     -623    1    1    2    0    0 -0.76052648464E-02 -0.79724565313E-02  0.60498798924E-04  0.17124000035E+03  0.17124000000E+03 0.  1.
       22    1    1    2    0    0  0.25743590550E-02  0.42267937142E-02  0.42122724072E+00  0.42125631323E+00  0.00000000000E+00 0. -1.
</event>
<event>
 5   1  0.2192208E+09  0.9118800E+02  0.7818608E-02  0.1180000E+00
       11   -1    0    0    0    0  0.00000000000E+00  0.00000000000E+00  0.10559998763E+01  0.10560000000E+01  0.51109989000E-03 0.  1.
     -623   -1    0    0    0    0  0.00000000000E+00  0.00000000000E+00  0.47855275298E-10  0.17124000000E+03  0.17124000000E+03 0.  1.
       11    1    1    2    0    0 -0.70610418638E-04 -0.10974883913E-02  0.98703969576E+00  0.98704044076E+00  0.51109989000E-03 0.  1.
     -623    1    1    2    0    0 -0.52171194001E-04  0.23092945932E-03  0.61757257306E-05  0.17124000000E+03  0.17124000000E+03 0.  1.
       22    1    1    2    0    0  0.12278161405E-03  0.86655892572E-03  0.68954033523E-01  0.68959587722E-01  0.00000000000E+00 0.  1.
</event>
<event>
 5   1  0.2192208E+09  0.9118800E+02  0.7818608E-02  0.1180000E+00
       11   -1    0    0    0    0  0.00000000000E+00  0.00000000000E+00  0.10559998763E+01  0.10560000000E+01  0.51109989000E-03 0.  1.
     -623   -1    0    0    0    0  0.00000000000E+00  0.00000000000E+00  0.47855275298E-10  0.17124000000E+03  0.17124000000E+03 0. -1.
       11    1    1    2    0    0  0.10673890682E-01 -0.11598926023E-01  0.67092534047E+00  0.67111067696E+00  0.51109989000E-03 0.  1.
     -623    1    1    2    0    0 -0.17179644402E-01  0.17629350902E-01  0.28922170910E-03  0.17124000177E+03  0.17124000000E+03 0. -1.
       22    1    1    2    0    0  0.65057422559E-02 -0.60304131143E-02  0.38478460969E+00  0.38488684885E+00  0.00000000000E+00 0. -1.
</event>
<event>
 5   1  0.2192208E+09  0.9118800E+02  0.7818608E-02  0.1180000E+00
       11   -1    0    0    0    0  0.00000000000E+00  0.00000000000E+00  0.10559998763E+01  0.10560000000E+01  0.51109989000E-03 0. -1.
     -623   -1    0    0    0    0  0.00000000000E+00  0.00000000000E+00  0.47855275298E-10  0.17124000000E+03  0.17124000000E+03 0. -1.
       11    1    1    2    0    0 -0.21104540963E-03  0.12805895997E-02  0.93546067866E+00  0.93546171861E+00  0.51109989000E-03 0. -1.
     -623    1    1    2    0    0 -0.12901288798E-04 -0.64609762903E-05  0.78585263783E-05  0.17124000000E+03  0.17124000000E+03 0. -1.
       22    1    1    2    0    0  0.22394669865E-03 -0.12741286233E-02  0.12053135706E+00  0.12053829927E+00  0.00000000000E+00 0. -1.
</event>
<event>
 5   1  0.2192208E+09  0.9118800E+02  0.7818608E-02  0.1180000E+00
       11   -1    0    0    0    0  0.00000000000E+00  0.00000000000E+00  0.10559998763E+01  0.10560000000E+01  0.51109989000E-03 0. -1.
     -623   -1    0    0    0    0  0.00000000000E+00  0.00000000000E+00  0.47855275298E-10  0.17124000000E+03  0.17124000000E+03 0. -1.
       11    1    1    2    0    0  0.75865686694E-02 -0.43662961433E-01  0.93395988036E+00  0.93501087137E+00  0.51109989000E-03 0. -1.
     -623    1    1    2    0    0 -0.84961564803E-02  0.50012305363E-01  0.12285376024E-02  0.17124000752E+03  0.17124000000E+03 0. -1.
       22    1    1    2    0    0  0.90958864928E-03 -0.63493488644E-02  0.12081156248E+00  0.12098171437E+00  0.00000000000E+00 0. -1.
</event>
<event>
 5   1  0.2192208E+09  0.9118800E+02  0.7818608E-02  0.1180000E+00
       11   -1    0    0    0    0  0.00000000000E+00  0.00000000000E+00  0.10559998763E+01  0.10560000000E+01  0.51109989000E-03 0. -1.
     -623   -1    0    0    0    0  0.00000000000E+00  0.00000000000E+00  0.47855275298E-10  0.17124000000E+03  0.17124000000E+03 0. -1.
       11    1    1    2    0    0 -0.21405158597E-03 -0.23060930199E-02  0.93387331494E+00  0.93387632664E+00  0.51109989000E-03 0. -1.
     -623    1    1    2    0    0  0.21939352166E-03  0.26648812080E-03  0.19921582238E-04  0.17124000000E+03  0.17124000000E+03 0. -1.
       22    1    1    2    0    0 -0.53419400410E-05  0.20396048938E-02  0.12210666080E+00  0.12212369397E+00  0.00000000000E+00 0.  1.
</event>
<event>
 5   1  0.2192208E+09  0.9118800E+02  0.7818608E-02  0.1180000E+00
       11   -1    0    0    0    0  0.00000000000E+00  0.00000000000E+00  0.10559998763E+01  0.10560000000E+01  0.51109989000E-03 0. -1.
     -623   -1    0    0    0    0  0.00000000000E+00  0.00000000000E+00  0.47855275298E-10  0.17124000000E+03  0.17124000000E+03 0. -1.
       11    1    1    2    0    0  0.67117414882E-03  0.28151449087E-03  0.91289871330E+00  0.91289914651E+00  0.51109989000E-03 0. -1.
     -623    1    1    2    0    0 -0.70971872695E-03  0.12572788038E-02  0.85945669841E-05  0.17124000001E+03  0.17124000000E+03 0. -1.
       22    1    1    2    0    0  0.38544615454E-04 -0.15387933608E-02  0.14309262403E+00  0.14310090294E+00  0.00000000000E+00 0.  1.
</event>
<event>
 5   1  0.2192208E+09  0.9118800E+02  0.7818608E-02  0.1180000E+00
       11   -1    0    0    0    0  0.00000000000E+00  0.00000000000E+00  0.10559998763E+01  0.10560000000E+01  0.51109989000E-03 0.  1.
     -623   -1    0    0    0    0  0.00000000000E+00  0.00000000000E+00  0.47855275298E-10  0.17124000000E+03  0.17124000000E+03 0.  1.
       11    1    1    2    0    0  0.16805840725E-01  0.19768903528E-01  0.98571041519E+00  0.98605199136E+00  0.51109989000E-03 0.  1.
     -623    1    1    2    0    0 -0.17988939861E-01 -0.21150803661E-01  0.36736473463E-03  0.17124000225E+03  0.17124000000E+03 0.  1.
       22    1    1    2    0    0  0.11830798533E-02  0.13818774619E-02  0.69920964931E-01  0.69944625241E-01  0.00000000000E+00 0.  1.
</event>
<event>
 5   1  0.2192208E+09  0.9118800E+02  0.7818608E-02  0.1180000E+00
       11   -1    0    0    0    0  0.00000000000E+00  0.00000000000E+00  0.10559998763E+01  0.10560000000E+01  0.51109989000E-03 0. -1.
     -623   -1    0    0    0    0  0.00000000000E+00  0.00000000000E+00  0.47855275298E-10  0.17124000000E+03  0.17124000000E+03 0. -1.
       11    1    1    2    0    0  0.87287800925E-02 -0.23539761190E-01  0.88275303255E+00  0.88311012317E+00  0.51109989000E-03 0. -1.
     -623    1    1    2    0    0 -0.16926668696E-02  0.30809738814E-03  0.20694939597E-02  0.17124000002E+03  0.17124000000E+03 0. -1.
       22    1    1    2    0    0 -0.70361132228E-02  0.23231663802E-01  0.17117734985E+00  0.17288985567E+00  0.00000000000E+00 0. -1.
</event>
<event>
 5   1  0.2192208E+09  0.9118800E+02  0.7818608E-02  0.1180000E+00
       11   -1    0    0    0    0  0.00000000000E+00  0.00000000000E+00  0.10559998763E+01  0.10560000000E+01  0.51109989000E-03 0.  1.
     -623   -1    0    0    0    0  0.00000000000E+00  0.00000000000E+00  0.47855275298E-10  0.17124000000E+03  0.17124000000E+03 0.  1.
       11    1    1    2    0    0 -0.75693190071E-02 -0.41416844759E-02  0.91527922449E+00  0.91532003592E+00  0.51109989000E-03 0.  1.
     -623    1    1    2    0    0  0.87659723220E-02  0.11190463492E-02  0.78482477480E-04  0.17124000023E+03  0.17124000000E+03 0.  1.
       22    1    1    2    0    0 -0.11966533333E-02  0.30226381244E-02  0.14064217161E+00  0.14067973826E+00  0.00000000000E+00 0.  1.
</event>
<event>
 5   1  0.2192208E+09  0.9118800E+02  0.7818608E-02  0.1180000E+00
       11   -1    0    0    0    0  0.00000000000E+00  0.00000000000E+00  0.10559998763E+01  0.10560000000E+01  0.51109989000E-03 0. -1.
     -623   -1    0    0    0    0  0.00000000000E+00  0.00000000000E+00  0.47855275298E-10  0.17124000000E+03  0.17124000000E+03 0. -1.
       11    1    1    2    0    0 -0.19588283342E-04 -0.55199174363E-02  0.61831199490E+00  0.61833684521E+00  0.51109989000E-03 0. -1.
     -623    1    1    2    0    0 -0.63000000047E-03  0.87242353714E-03  0.49888437954E-04  0.17124000000E+03  0.17124000000E+03 0. -1.
       22    1    1    2    0    0  0.64958828766E-03  0.46474938938E-02  0.43763799947E+00  0.43766315786E+00  0.00000000000E+00 0. -1.
</event>
<event>
 5   1  0.2192208E+09  0.9118800E+02  0.7818608E-02  0.1180000E+00
       11   -1    0    0    0    0  0.00000000000E+00  0.00000000000E+00  0.10559998763E+01  0.10560000000E+01  0.51109989000E-03 0. -1.
     -623   -1    0    0    0    0  0.00000000000E+00  0.00000000000E+00  0.47855275298E-10  0.17124000000E+03  0.17124000000E+03 0.  1.
       11    1    1    2    0    0 -0.12804792923E-01  0.53843604544E-03  0.48599474425E+00  0.48616396956E+00  0.51109989000E-03 0. -1.
     -623    1    1    2    0    0  0.15713023773E-01 -0.13860809372E-01  0.33356282865E-03  0.17124000128E+03  0.17124000000E+03 0.  1.
       22    1    1    2    0    0 -0.29082308805E-02  0.13322373353E-01  0.56967157132E+00  0.56983475026E+00  0.00000000000E+00 0. -1.
</event>
<event>
 5   1  0.2192208E+09  0.9118800E+02  0.7818608E-02  0.1180000E+00
       11   -1    0    0    0    0  0.00000000000E+00  0.00000000000E+00  0.10559998763E+01  0.10560000000E+01  0.51109989000E-03 0. -1.
     -623   -1    0    0    0    0  0.00000000000E+00  0.00000000000E+00  0.47855275298E-10  0.17124000000E+03  0.17124000000E+03 0.  1.
       11    1    1    2    0    0  0.12318178264E-01 -0.15756766699E-01  0.95126458510E+00  0.95147495254E+00  0.51109989000E-03 0. -1.
     -623    1    1    2    0    0 -0.13681208825E-01  0.17333597086E-01  0.23245100742E-03  0.17124000142E+03  0.17124000000E+03 0.  1.
       22    1    1    2    0    0  0.13630559287E-02 -0.15768625268E-02  0.10450479784E+00  0.10452558151E+00  0.00000000000E+00 0. -1.
</event>
<event>
 5   1  0.2192208E+09  0.9118800E+02  0.7818608E-02  0.1180000E+00
       11   -1    0    0    0    0  0.00000000000E+00  0.00000000000E+00  0.10559998763E+01  0.10560000000E+01  0.51109989000E-03 0.  1.
     -623   -1    0    0    0    0  0.00000000000E+00  0.00000000000E+00  0.47855275298E-10  0.17124000000E+03  0.17124000000E+03 0.  1.
       11    1    1    2    0    0  0.70789088741E-02 -0.53604457644E-02  0.94296785411E+00  0.94300979870E+00  0.51109989000E-03 0.  1.
     -623    1    1    2    0    0 -0.92968515769E-02  0.73087606479E-02  0.80802212294E-04  0.17124000041E+03  0.17124000000E+03 0.  1.
       22    1    1    2    0    0  0.22179428755E-02 -0.19483150193E-02  0.11295123966E+00  0.11298981256E+00  0.00000000000E+00 0.  1.
</event>
<event>
 5   1  0.2192208E+09  0.9118800E+02  0.7818608E-02  0.1180000E+00
       11   -1    0    0    0    0  0.00000000000E+00  0.00000000000E+00  0.10559998763E+01  0.10560000000E+01  0.51109989000E-03 0. -1.
     -623   -1    0    0    0    0  0.00000000000E+00  0.00000000000E+00  0.47855275298E-10  0.17124000000E+03  0.17124000000E+03 0.  1.
       11    1    1    2    0    0  0.16283169638E-03  0.13565400010E-02  0.94716845640E+00  0.94716957971E+00  0.51109989000E-03 0. -1.
     -623    1    1    2    0    0 -0.92495785042E-04  0.66696034075E-05  0.95605482970E-05  0.17124000000E+03  0.17124000000E+03 0.  1.
       22    1    1    2    0    0 -0.70335910671E-04 -0.13632096044E-02  0.10882186708E+00  0.10883042793E+00  0.00000000000E+00 0. -1.
</event>
<event>
 5   1  0.2192208E+09  0.9118800E+02  0.7818608E-02  0.1180000E+00
       11   -1    0    0    0    0  0.00000000000E+00  0.00000000000E+00  0.10559998763E+01  0.10560000000E+01  0.51109989000E-03 0. -1.
     -623   -1    0    0    0    0  0.00000000000E+00  0.00000000000E+00  0.47855275298E-10  0.17124000000E+03  0.17124000000E+03 0.  1.
       11    1    1    2    0    0  0.21985991104E-02 -0.83474611644E-02  0.89923249503E+00  0.89927407129E+00  0.51109989000E-03 0. -1.
     -623    1    1    2    0    0 -0.26813398045E-02  0.99182135621E-02  0.50375828852E-04  0.17124000031E+03  0.17124000000E+03 0.  1.
       22    1    1    2    0    0  0.48274325150E-03 -0.15707618573E-02  0.15671801264E+00  0.15672662766E+00  0.00000000000E+00 0. -1.
</event>
<event>
 5   1  0.2192208E+09  0.9118800E+02  0.7818608E-02  0.1180000E+00
       11   -1    0    0    0    0  0.00000000000E+00  0.00000000000E+00  0.10559998763E+01  0.10560000000E+01  0.51109989000E-03 0. -1.
     -623   -1    0    0    0    0  0.00000000000E+00  0.00000000000E+00  0.47855275298E-10  0.17124000000E+03  0.17124000000E+03 0.  1.
       11    1    1    2    0    0 -0.53749562871E-03  0.28241272923E-02  0.79443870125E+00  0.79444406717E+00  0.51109989000E-03 0. -1.
     -623    1    1    2    0    0 -0.17058659563E-03  0.39576783132E-03  0.26021436334E-04  0.17124000000E+03  0.17124000000E+03 0.  1.
       22    1    1    2    0    0  0.70808222601E-03 -0.32198951275E-02  0.26153516398E+00  0.26155594259E+00  0.00000000000E+00 0. -1.
</event>
<event>
 5   1  0.2192208E+09  0.9118800E+02  0.7818608E-02  0.1180000E+00
       11   -1    0    0    0    0  0.00000000000E+00  0.00000000000E+00  0.10559998763E+01  0.10560000000E+01  0.51109989000E-03 0.  1.
     -623   -1    0    0    0    0  0.00000000000E+00  0.00000000000E+00  0.47855275298E-10  0.17124000000E+03  0.17124000000E+03 0. -1.
       11    1    1    2    0    0 -0.16296912158E-01 -0.94968739042E-02  0.94494970192E+00  0.94513807475E+00  0.51109989000E-03 0.  1.
     -623    1    1    2    0    0  0.19007685269E-01  0.12651005094E-01  0.26781089827E-03  0.17124000152E+03  0.17124000000E+03 0. -1.
       22    1    1    2    0    0 -0.27107730930E-02 -0.31541311777E-02  0.11078236252E+00  0.11086040177E+00  0.00000000000E+00 0.  1.
</event>
<event>
 5   1  0.2192208E+09  0.9118800E+02  0.7818608E-02  0.1180000E+00
       11   -1    0    0    0    0  0.00000000000E+00  0.00000000000E+00  0.10559998763E+01  0.10560000000E+01  0.51109989000E-03 0.  1.
     -623   -1    0    0    0    0  0.00000000000E+00  0.00000000000E+00  0.47855275298E-10  0.17124000000E+03  0.17124000000E+03 0.  1.
       11    1    1    2    0    0  0.19089273269E-03 -0.15992025987E-02  0.95114827574E+00  0.95114977662E+00  0.51109989000E-03 0.  1.
     -623    1    1    2    0    0 -0.15290812875E-03  0.34936288608E-03  0.88340077178E-05  0.17124000000E+03  0.17124000000E+03 0.  1.
       22    1    1    2    0    0 -0.37984612371E-04  0.12498397319E-02  0.10484270834E+00  0.10485016468E+00  0.00000000000E+00 0.  1.
</event>
<event>
 5   1  0.2192208E+09  0.9118800E+02  0.7818608E-02  0.1180000E+00
       11   -1    0    0    0    0  0.00000000000E+00  0.00000000000E+00  0.10559998763E+01  0.10560000000E+01  0.51109989000E-03 0.  1.
     -623   -1    0    0    0    0  0.00000000000E+00  0.00000000000E+00  0.47855275298E-10  0.17124000000E+03  0.17124000000E+03 0.  1.
       11    1    1    2    0    0 -0.18500685010E-01 -0.59332648896E-01  0.96037784176E+00  0.96238687582E+00  0.51109989000E-03 0.  1.
     -623    1    1    2    0    0  0.20283403919E-01  0.65681218733E-01  0.22552915307E-02  0.17124001381E+03  0.17124000000E+03 0.  1.
       22    1    1    2    0    0 -0.17827212465E-02 -0.63485774069E-02  0.93366864506E-01  0.93599433320E-01  0.00000000000E+00 0. -1.
</event>
<event>
 5   1  0.2192208E+09  0.9118800E+02  0.7818608E-02  0.1180000E+00
       11   -1    0    0    0    0  0.00000000000E+00  0.00000000000E+00  0.10559998763E+01  0.10560000000E+01  0.51109989000E-03 0.  1.
     -623   -1    0    0    0    0  0.00000000000E+00  0.00000000000E+00  0.47855275298E-10  0.17124000000E+03  0.17124000000E+03 0. -1.
       11    1    1    2    0    0 -0.12506905455E-01  0.95632722041E-02  0.40426038267E+00  0.40456717252E+00  0.51109989000E-03 0.  1.
     -623    1    1    2    0    0  0.16805783938E-02 -0.18793405784E-02  0.44197977549E-03  0.17124000002E+03  0.17124000000E+03 0. -1.
       22    1    1    2    0    0  0.10826327061E-01 -0.76839316253E-02  0.65129751415E+00  0.65143280859E+00  0.00000000000E+00 0.  1.
</event>
<event>
 5   1  0.2192208E+09  0.9118800E+02  0.7818608E-02  0.1180000E+00
       11   -1    0    0    0    0  0.00000000000E+00  0.00000000000E+00  0.10559998763E+01  0.10560000000E+01  0.51109989000E-03 0. -1.
     -623   -1    0    0    0    0  0.00000000000E+00  0.00000000000E+00  0.47855275298E-10  0.17124000000E+03  0.17124000000E+03 0.  1.
       11    1    1    2    0    0 -0.33949998429E-02 -0.43829370276E-02  0.71258826341E+00  0.71261001293E+00  0.51109989000E-03 0. -1.
     -623    1    1    2    0    0  0.81208148517E-03 -0.20563910101E-03  0.62002054728E-04  0.17124000000E+03  0.17124000000E+03 0.  1.
       22    1    1    2    0    0  0.25829183580E-02  0.45885761285E-02  0.34334961048E+00  0.34338998458E+00  0.00000000000E+00 0. -1.
</event>
<event>
 5   1  0.2192208E+09  0.9118800E+02  0.7818608E-02  0.1180000E+00
       11   -1    0    0    0    0  0.00000000000E+00  0.00000000000E+00  0.10559998763E+01  0.10560000000E+01  0.51109989000E-03 0.  1.
     -623   -1    0    0    0    0  0.00000000000E+00  0.00000000000E+00  0.47855275298E-10  0.17124000000E+03  0.17124000000E+03 0. -1.
       11    1    1    2    0    0 -0.16067978641E-02 -0.21923766372E-02  0.90207630612E+00  0.90208054607E+00  0.51109989000E-03 0.  1.
     -623    1    1    2    0    0  0.83576513439E-03  0.57489532714E-03  0.14549596364E-04  0.17124000000E+03  0.17124000000E+03 0. -1.
       22    1    1    2    0    0  0.77103269545E-03  0.16174812865E-02  0.15390906388E+00  0.15391949415E+00  0.00000000000E+00 0.  1.
</event>
<event>
 5   1  0.2192208E+09  0.9118800E+02  0.7818608E-02  0.1180000E+00
       11   -1    0    0    0    0  0.00000000000E+00  0.00000000000E+00  0.10559998763E+01  0.10560000000E+01  0.51109989000E-03 0.  1.
     -623   -1    0    0    0    0  0.00000000000E+00  0.00000000000E+00  0.47855275298E-10  0.17124000000E+03  0.17124000000E+03 0. -1.
       11    1    1    2    0    0  0.64719980636E-02 -0.10086118648E-01  0.89457244946E+00  0.89465286290E+00  0.51109989000E-03 0.  1.
     -623    1    1    2    0    0 -0.75620381923E-02  0.11860554569E-01  0.94307539399E-04  0.17124000058E+03  0.17124000000E+03 0. -1.
       22    1    1    2    0    0  0.10900288192E-02 -0.17744181835E-02  0.16133154019E+00  0.16134498004E+00  0.00000000000E+00 0. -1.
</event>
<event>
 5   1  0.2192208E+09  0.9118800E+02  0.7818608E-02  0.1180000E+00
       11   -1    0    0    0    0  0.00000000000E+00  0.00000000000E+00  0.10559998763E+01  0.10560000000E+01  0.51109989000E-03 0. -1.
     -623   -1    0    0    0    0  0.00000000000E+00  0.00000000000E+00  0.47855275298E-10  0.17124000000E+03  0.17124000000E+03 0. -1.
       11    1    1    2    0    0 -0.12921019534E-01  0.80853682305E-02  0.79254734399E+00  0.79269406432E+00  0.51109989000E-03 0. -1.
     -623    1    1    2    0    0  0.88671175529E-02 -0.52658117616E-02  0.19321506375E-03  0.17124000031E+03  0.17124000000E+03 0. -1.
       22    1    1    2    0    0  0.40539019709E-02 -0.28195564626E-02  0.26325931856E+00  0.26330562628E+00  0.00000000000E+00 0.  1.
</event>
<event>
 5   1  0.2192208E+09  0.9118800E+02  0.7818608E-02  0.1180000E+00
       11   -1    0    0    0    0  0.00000000000E+00  0.00000000000E+00  0.10559998763E+01  0.10560000000E+01  0.51109989000E-03 0. -1.
     -623   -1    0    0    0    0  0.00000000000E+00  0.00000000000E+00  0.47855275298E-10  0.17124000000E+03  0.17124000000E+03 0.  1.
       11    1    1    2    0    0  0.30480195035E-03 -0.19686375734E-02  0.93594775837E+00  0.93595001793E+00  0.51109989000E-03 0. -1.
     -623    1    1    2    0    0  0.16144162404E-04 -0.21280141159E-04  0.19058314374E-04  0.17124000000E+03  0.17124000000E+03 0.  1.
       22    1    1    2    0    0 -0.32094611275E-03  0.19899177146E-02  0.12003305920E+00  0.12004998159E+00  0.00000000000E+00 0.  1.
</event>
<event>
 5   1  0.2192208E+09  0.9118800E+02  0.7818608E-02  0.1180000E+00
       11   -1    0    0    0    0  0.00000000000E+00  0.00000000000E+00  0.10559998763E+01  0.10560000000E+01  0.51109989000E-03 0.  1.
     -623   -1    0    0    0    0  0.00000000000E+00  0.00000000000E+00  0.47855275298E-10  0.17124000000E+03  0.17124000000E+03 0. -1.
       11    1    1    2    0    0  0.14550438572E-01 -0.19036377859E-01  0.97246274100E+00  0.97275800835E+00  0.51109989000E-03 0.  1.
     -623    1    1    2    0    0 -0.15808932282E-01  0.20763148122E-01  0.32456102713E-03  0.17124000199E+03  0.17124000000E+03 0. -1.
       22    1    1    2    0    0  0.12585107204E-02 -0.17267926046E-02  0.83213710253E-01  0.83241139084E-01  0.00000000000E+00 0.  1.
</event>
<event>
 5   1  0.2192208E+09  0.9118800E+02  0.7818608E-02  0.1180000E+00
       11   -1    0    0    0    0  0.00000000000E+00  0.00000000000E+00  0.10559998763E+01  0.10560000000E+01  0.51109989000E-03 0.  1.
     -623   -1    0    0    0    0  0.00000000000E+00  0.00000000000E+00  0.47855275298E-10  0.17124000000E+03  0.17124000000E+03 0.  1.
       11    1    1    2    0    0 -0.20083390858E-04 -0.89061476033E-02  0.92046178469E+00  0.92050501257E+00  0.51109989000E-03 0.  1.
     -623    1    1    2    0    0  0.21640446442E-03  0.10493028283E-01  0.52861014004E-04  0.17124000032E+03  0.17124000000E+03 0.  1.
       22    1    1    2    0    0 -0.19632103383E-03 -0.15868787529E-02  0.13548503677E+00  0.13549447190E+00  0.00000000000E+00 0.  1.
</event>
<event>
 5   1  0.2192208E+09  0.9118800E+02  0.7818608E-02  0.1180000E+00
       11   -1    0    0    0    0  0.00000000000E+00  0.00000000000E+00  0.10559998763E+01  0.10560000000E+01  0.51109989000E-03 0. -1.
     -623   -1    0    0    0    0  0.00000000000E+00  0.00000000000E+00  0.47855275298E-10  0.17124000000E+03  0.17124000000E+03 0. -1.
       11    1    1    2    0    0 -0.18291711339E-03  0.88438466561E-03  0.10056195215E+01  0.10056200569E+01  0.51109989000E-03 0. -1.
     -623    1    1    2    0    0 -0.22349114385E-03 -0.36184208908E-03  0.47616080705E-05  0.17124000000E+03  0.17124000000E+03 0. -1.
       22    1    1    2    0    0  0.40640827297E-03 -0.52254255106E-03  0.50375667562E-01  0.50380016879E-01  0.00000000000E+00 0.  1.
</event>
<event>
 5   1  0.2192208E+09  0.9118800E+02  0.7818608E-02  0.1180000E+00
       11   -1    0    0    0    0  0.00000000000E+00  0.00000000000E+00  0.10559998763E+01  0.10560000000E+01  0.51109989000E-03 0. -1.
     -623   -1    0    0    0    0  0.00000000000E+00  0.00000000000E+00  0.47855275298E-10  0.17124000000E+03  0.17124000000E+03 0.  1.
       11    1    1    2    0    0 -0.40722711543E-03  0.69886774952E-03  0.10004628238E+01  0.10004632814E+01  0.51109989000E-03 0. -1.
     -623    1    1    2    0    0  0.43069563223E-04  0.24747912906E-04  0.62422756817E-05  0.17124000000E+03  0.17124000000E+03 0.  1.
       22    1    1    2    0    0  0.36415754853E-03 -0.72361566454E-03  0.55530900466E-01  0.55536808847E-01  0.00000000000E+00 0.  1.
</event>
<event>
 5   1  0.2192208E+09  0.9118800E+02  0.7818608E-02  0.1180000E+00
       11   -1    0    0    0    0  0.00000000000E+00  0.00000000000E+00  0.10559998763E+01  0.10560000000E+01  0.51109989000E-03 0. -1.
     -623   -1    0    0    0    0  0.00000000000E+00  0.00000000000E+00  0.47855275298E-10  0.17124000000E+03  0.17124000000E+03 0. -1.
       11    1    1    2    0    0  0.22333510708E-02  0.89588891516E-02  0.86981832672E+00  0.86986747972E+00  0.51109989000E-03 0. -1.
     -623    1    1    2    0    0 -0.30869640308E-02 -0.10846529286E-01  0.60930083233E-04  0.17124000037E+03  0.17124000000E+03 0. -1.
       22    1    1    2    0    0  0.85361483501E-03  0.18876467227E-02  0.18612126094E+00  0.18613279034E+00  0.00000000000E+00 0. -1.
</event>
<event>
 5   1  0.2192208E+09  0.9118800E+02  0.7818608E-02  0.1180000E+00
       11   -1    0    0    0    0  0.00000000000E+00  0.00000000000E+00  0.10559998763E+01  0.10560000000E+01  0.51109989000E-03 0. -1.
     -623   -1    0    0    0    0  0.00000000000E+00  0.00000000000E+00  0.47855275298E-10  0.17124000000E+03  0.17124000000E+03 0.  1.
       11    1    1    2    0    0 -0.17284204232E-02  0.87009241020E-02  0.71198184679E+00  0.71203729179E+00  0.51109989000E-03 0. -1.
     -623    1    1    2    0    0  0.26810708112E-02 -0.12322404069E-01  0.76170341384E-04  0.17124000046E+03  0.17124000000E+03 0.  1.
       22    1    1    2    0    0 -0.95265109356E-03  0.36214832099E-02  0.34394213709E+00  0.34396252172E+00  0.00000000000E+00 0. -1.
</event>
<event>
 5   1  0.2192208E+09  0.9118800E+02  0.7818608E-02  0.1180000E+00
       11   -1    0    0    0    0  0.00000000000E+00  0.00000000000E+00  0.10559998763E+01  0.10560000000E+01  0.51109989000E-03 0. -1.
     -623   -1    0    0    0    0  0.00000000000E+00  0.00000000000E+00  0.47855275298E-10  0.17124000000E+03  0.17124000000E+03 0.  1.
       11    1    1    2    0    0 -0.23095677774E-02 -0.13341669950E-02  0.99101336039E+00  0.99101708148E+00  0.51109989000E-03 0. -1.
     -623    1    1    2    0    0 -0.21732879426E-04 -0.13704140442E-03  0.62096275980E-04  0.17124000000E+03  0.17124000000E+03 0.  1.
       22    1    1    2    0    0  0.23313006569E-02  0.14712083997E-02  0.64924421719E-01  0.64982920467E-01  0.00000000000E+00 0.  1.
</event>
<event>
 5   1  0.2192208E+09  0.9118800E+02  0.7818608E-02  0.1180000E+00
       11   -1    0    0    0    0  0.00000000000E+00  0.00000000000E+00  0.10559998763E+01  0.10560000000E+01  0.51109989000E-03 0. -1.
     -623   -1    0    0    0    0  0.00000000000E+00  0.00000000000E+00  0.47855275298E-10  0.17124000000E+03  0.17124000000E+03 0.  1.
       11    1    1    2    0    0 -0.41691048570E-02 -0.97691600802E-02  0.27087881928E+00  0.27108746537E+00  0.51109989000E-03 0. -1.
     -623    1    1    2    0    0 -0.14101433957E-02  0.53597117692E-05  0.28908926430E-03  0.17124000001E+03  0.17124000000E+03 0.  1.
       22    1    1    2    0    0  0.55792482532E-02  0.97638003685E-02  0.78483196821E+00  0.78491252897E+00  0.00000000000E+00 0.  1.
</event>
<event>
 5   1  0.2192208E+09  0.9118800E+02  0.7818608E-02  0.1180000E+00
       11   -1    0    0    0    0  0.00000000000E+00  0.00000000000E+00  0.10559998763E+01  0.10560000000E+01  0.51109989000E-03 0. -1.
     -623   -1    0    0    0    0  0.00000000000E+00  0.00000000000E+00  0.47855275298E-10  0.17124000000E+03  0.17124000000E+03 0. -1.
       11    1    1    2    0    0 -0.20023884033E-02  0.10618323237E-02  0.96462987484E+00  0.96463267294E+00  0.51109989000E-03 0. -1.
     -623    1    1    2    0    0  0.19069030998E-02 -0.10095119938E-03  0.77877884537E-05  0.17124000001E+03  0.17124000000E+03 0. -1.
       22    1    1    2    0    0  0.95485286187E-04 -0.96088112338E-03  0.91362223341E-01  0.91367326018E-01  0.00000000000E+00 0. -1.
</event>
<event>
 5   1  0.2192208E+09  0.9118800E+02  0.7818608E-02  0.1180000E+00
       11   -1    0    0    0    0  0.00000000000E+00  0.00000000000E+00  0.10559998763E+01  0.10560000000E+01  0.51109989000E-03 0.  1.
     -623   -1    0    0    0    0  0.00000000000E+00  0.00000000000E+00  0.47855275298E-10  0.17124000000E+03  0.17124000000E+03 0. -1.
       11    1    1    2    0    0  0.96059894995E-03  0.93080564697E-03  0.97188426920E+00  0.97188532404E+00  0.51109989000E-03 0.  1.
     -623    1    1    2    0    0 -0.76992089066E-04 -0.78647248874E-05  0.10636280776E-04  0.17124000000E+03  0.17124000000E+03 0. -1.
       22    1    1    2    0    0 -0.88360686132E-03 -0.92294092213E-03  0.84104964840E-01  0.84114669897E-01  0.00000000000E+00 0. -1.
</event>
<event>
 5   1  0.2192208E+09  0.9118800E+02  0.7818608E-02  0.1180000E+00
       11   -1    0    0    0    0  0.00000000000E+00  0.00000000000E+00  0.10559998763E+01  0.10560000000E+01  0.51109989000E-03 0.  1.
     -623   -1    0    0    0    0  0.00000000000E+00  0.00000000000E+00  0.47855275298E-10  0.17124000000E+03  0.17124000000E+03 0. -1.
       11    1    1    2    0    0 -0.75760663106E-03  0.64880968475E-03  0.98530782975E+00  0.98530846719E+00  0.51109989000E-03 0.  1.
     -623    1    1    2    0    0  0.13830229648E-02  0.65487662545E-03  0.15309976253E-04  0.17124000001E+03  0.17124000000E+03 0. -1.
       22    1    1    2    0    0 -0.62541636242E-03 -0.13036863238E-02  0.70676758568E-01  0.70691547906E-01  0.00000000000E+00 0. -1.
</event>
<event>
 5   1  0.2192208E+09  0.9118800E+02  0.7818608E-02  0.1180000E+00
       11   -1    0    0    0    0  0.00000000000E+00  0.00000000000E+00  0.10559998763E+01  0.10560000000E+01  0.51109989000E-03 0. -1.
     -623   -1    0    0    0    0  0.00000000000E+00  0.00000000000E+00  0.47855275298E-10  0.17124000000E+03  0.17124000000E+03 0.  1.
       11    1    1    2    0    0  0.89248701417E-03  0.10460672355E-02  0.99597281889E+00  0.99597389925E+00  0.51109989000E-03 0. -1.
     -623    1    1    2    0    0 -0.17393450404E-03 -0.77241656824E-05  0.14239780072E-04  0.17124000000E+03  0.17124000000E+03 0.  1.
       22    1    1    2    0    0 -0.71855250698E-03 -0.10383430697E-02  0.60012836780E-01  0.60026119751E-01  0.00000000000E+00 0. -1.
</event>
<event>
 5   1  0.2192208E+09  0.9118800E+02  0.7818608E-02  0.1180000E+00
       11   -1    0    0    0    0  0.00000000000E+00  0.00000000000E+00  0.10559998763E+01  0.10560000000E+01  0.51109989000E-03 0. -1.
     -623   -1    0    0    0    0  0.00000000000E+00  0.00000000000E+00  0.47855275298E-10  0.17124000000E+03  0.17124000000E+03 0. -1.
       11    1    1    2    0    0 -0.74179662073E-03  0.70517796099E-03  0.98197399208E+00  0.98197465848E+00  0.51109989000E-03 0. -1.
     -623    1    1    2    0    0  0.17085356289E-03  0.51365758808E-04  0.66108475785E-05  0.17124000000E+03  0.17124000000E+03 0. -1.
       22    1    1    2    0    0  0.57094305950E-03 -0.75654371930E-03  0.74019263189E-01  0.74025331187E-01  0.00000000000E+00 0. -1.
</event>
<event>
 5   1  0.2192208E+09  0.9118800E+02  0.7818608E-02  0.1180000E+00
       11   -1    0    0    0    0  0.00000000000E+00  0.00000000000E+00  0.10559998763E+01  0.10560000000E+01  0.51109989000E-03 0.  1.
     -623   -1    0    0    0    0  0.00000000000E+00  0.00000000000E+00  0.47855275298E-10  0.17124000000E+03  0.17124000000E+03 0.  1.
       11    1    1    2    0    0 -0.43097200065E-03  0.56328272730E-02  0.69845596132E+00  0.69847899439E+00  0.51109989000E-03 0.  1.
     -623    1    1    2    0    0 -0.56493446255E-03 -0.16111546201E-02  0.46925293088E-04  0.17124000001E+03  0.17124000000E+03 0.  1.
       22    1    1    2    0    0  0.99590646546E-03 -0.40216726465E-02  0.35749699397E+00  0.35752100131E+00  0.00000000000E+00 0.  1.
</event>
<event>
 5   1  0.2192208E+09  0.9118800E+02  0.7818608E-02  0.1180000E+00
       11   -1    0    0    0    0  0.00000000000E+00  0.00000000000E+00  0.10559998763E+01  0.10560000000E+01  0.51109989000E-03 0.  1.
     -623   -1    0    0    0    0  0.00000000000E+00  0.00000000000E+00  0.47855275298E-10  0.17124000000E+03  0.17124000000E+03 0. -1.
       11    1    1    2    0    0 -0.22470466896E-02  0.10341374281E-01  0.84635097126E+00  0.84641728540E+00  0.51109989000E-03 0.  1.
     -623    1    1    2    0    0  0.27118609629E-02 -0.12632584587E-01  0.79717861822E-04  0.17124000049E+03  0.17124000000E+03 0. -1.
       22    1    1    2    0    0 -0.46481477076E-03  0.22912126243E-02  0.20956938097E+00  0.20958242089E+00  0.00000000000E+00 0.  1.
</event>
<event>
 5   1  0.2192208E+09  0.9118800E+02  0.7818608E-02  0.1180000E+00
       11   -1    0    0    0    0  0.00000000000E+00  0.00000000000E+00  0.10559998763E+01  0.10560000000E+01  0.51109989000E-03 0.  1.
     -623   -1    0    0    0    0  0.00000000000E+00  0.00000000000E+00  0.47855275298E-10  0.17124000000E+03  0.17124000000E+03 0. -1.
       11    1    1    2    0    0 -0.87634549622E-03 -0.75385201173E-02  0.90138063972E+00  0.90141273352E+00  0.51109989000E-03 0.  1.
     -623    1    1    2    0    0  0.29804502792E-03  0.93894093272E-02  0.44390481018E-04  0.17124000026E+03  0.17124000000E+03 0. -1.
       22    1    1    2    0    0  0.57830046588E-03 -0.18508892858E-02  0.15457485470E+00  0.15458701734E+00  0.00000000000E+00 0. -1.
</event>
<event>
 5   1  0.2192208E+09  0.9118800E+02  0.7818608E-02  0.1180000E+00
       11   -1    0    0    0    0  0.00000000000E+00  0.00000000000E+00  0.10559998763E+01  0.10560000000E+01  0.51109989000E-03 0.  1.
     -623   -1    0    0    0    0  0.00000000000E+00  0.00000000000E+00  0.47855275298E-10  0.17124000000E+03  0.17124000000E+03 0.  1.
       11    1    1    2    0    0 -0.16927164101E-02 -0.23562114441E-02  0.87328597650E+00  0.87329094522E+00  0.51109989000E-03 0.  1.
     -623    1    1    2    0    0  0.23712121601E-04 -0.80324426822E-05  0.27766086284E-04  0.17124000000E+03  0.17124000000E+03 0.  1.
       22    1    1    2    0    0  0.16690042884E-02  0.23642438868E-02  0.18268613647E+00  0.18270905747E+00  0.00000000000E+00 0. -1.
</event>
<event>
 5   1  0.2192208E+09  0.9118800E+02  0.7818608E-02  0.1180000E+00
       11   -1    0    0    0    0  0.00000000000E+00  0.00000000000E+00  0.10559998763E+01  0.10560000000E+01  0.51109989000E-03 0. -1.
     -623   -1    0    0    0    0  0.00000000000E+00  0.00000000000E+00  0.47855275298E-10  0.17124000000E+03  0.17124000000E+03 0. -1.
       11    1    1    2    0    0  0.11838211353E-01 -0.78638357634E-02  0.90405198372E+00  0.90416383120E+00  0.51109989000E-03 0. -1.
     -623    1    1    2    0    0 -0.13464064247E-01  0.95872720542E-02  0.13100863178E-03  0.17124000080E+03  0.17124000000E+03 0. -1.
       22    1    1    2    0    0  0.16258537069E-02 -0.17234368699E-02  0.15181694779E+00  0.15183543484E+00  0.00000000000E+00 0. -1.
</event>
<event>
 5   1  0.2192208E+09  0.9118800E+02  0.7818608E-02  0.1180000E+00
       11   -1    0    0    0    0  0.00000000000E+00  0.00000000000E+00  0.10559998763E+01  0.10560000000E+01  0.51109989000E-03 0.  1.
     -623   -1    0    0    0    0  0.00000000000E+00  0.00000000000E+00  0.47855275298E-10  0.17124000000E+03  0.17124000000E+03 0. -1.
       11    1    1    2    0    0 -0.38459259567E-02 -0.16857308998E-02  0.93515243314E+00  0.93516200055E+00  0.51109989000E-03 0.  1.
     -623    1    1    2    0    0  0.14989420669E-03 -0.36094076668E-04  0.78255266588E-04  0.17124000000E+03  0.17124000000E+03 0. -1.
       22    1    1    2    0    0  0.36960317493E-02  0.17218249767E-02  0.12076919288E+00  0.12083800429E+00  0.00000000000E+00 0.  1.
</event>
<event>
 5   1  0.2192208E+09  0.9118800E+02  0.7818608E-02  0.1180000E+00
       11   -1    0    0    0    0  0.00000000000E+00  0.00000000000E+00  0.10559998763E+01  0.10560000000E+01  0.51109989000E-03 0.  1.
     -623   -1    0    0    0    0  0.00000000000E+00  0.00000000000E+00  0.47855275298E-10  0.17124000000E+03  0.17124000000E+03 0.  1.
       11    1    1    2    0    0  0.24229850047E-02  0.16411950411E-01  0.85614530848E+00  0.85630617972E+00  0.51109989000E-03 0.  1.
     -623    1    1    2    0    0 -0.35746682824E-02 -0.20453401314E-01  0.20622866145E-03  0.17124000126E+03  0.17124000000E+03 0.  1.
       22    1    1    2    0    0  0.11516838655E-02  0.40414542661E-02  0.19964851280E+00  0.19969273495E+00  0.00000000000E+00 0. -1.
</event>
<event>
 5   1  0.2192208E+09  0.9118800E+02  0.7818608E-02  0.1180000E+00
       11   -1    0    0    0    0  0.00000000000E+00  0.00000000000E+00  0.10559998763E+01  0.10560000000E+01  0.51109989000E-03 0.  1.
     -623   -1    0    0    0    0  0.00000000000E+00  0.00000000000E+00  0.47855275298E-10  0.17124000000E+03  0.17124000000E+03 0. -1.
       11    1    1    2    0    0 -0.40401430284E-02  0.17703134626E-01  0.93054463645E+00  0.93072192699E+00  0.51109989000E-03 0.  1.
     -623    1    1    2    0    0  0.52197386304E-02 -0.43300642567E-02  0.89870302843E-03  0.17124000014E+03  0.17124000000E+03 0. -1.
       22    1    1    2    0    0 -0.11795956052E-02 -0.13373070367E-01  0.12455653753E+00  0.12527793700E+00  0.00000000000E+00 0.  1.
</event>
<event>
 5   1  0.2192208E+09  0.9118800E+02  0.7818608E-02  0.1180000E+00
       11   -1    0    0    0    0  0.00000000000E+00  0.00000000000E+00  0.10559998763E+01  0.10560000000E+01  0.51109989000E-03 0. -1.
     -623   -1    0    0    0    0  0.00000000000E+00  0.00000000000E+00  0.47855275298E-10  0.17124000000E+03  0.17124000000E+03 0.  1.
       11    1    1    2    0    0  0.84034815502E-02 -0.65815211238E-02  0.15151921119E+00  0.15189558093E+00  0.51109989000E-03 0. -1.
     -623    1    1    2    0    0 -0.54033568778E-02 -0.57596475331E-02  0.46564043417E-03  0.17124000018E+03  0.17124000000E+03 0.  1.
       22    1    1    2    0    0 -0.30001246703E-02  0.12341168659E-01  0.90401502514E+00  0.90410423673E+00  0.00000000000E+00 0. -1.
</event>
<event>
 5   1  0.2192208E+09  0.9118800E+02  0.7818608E-02  0.1180000E+00
       11   -1    0    0    0    0  0.00000000000E+00  0.00000000000E+00  0.10559998763E+01  0.10560000000E+01  0.51109989000E-03 0.  1.
     -623   -1    0    0    0    0  0.00000000000E+00  0.00000000000E+00  0.47855275298E-10  0.17124000000E+03  0.17124000000E+03 0. -1.
       11    1    1    2    0    0 -0.63735282606E-02 -0.21633766053E-01  0.99668505099E+00  0.99694031606E+00  0.51109989000E-03 0.  1.
     -623    1    1    2    0    0  0.65841034262E-02  0.22353511766E-01  0.26148861753E-03  0.17124000159E+03  0.17124000000E+03 0. -1.
       22    1    1    2    0    0 -0.21057474235E-03 -0.71974427708E-03  0.59053268898E-01  0.59058030285E-01  0.00000000000E+00 0. -1.
</event>
<event>
 5   1  0.2192208E+09  0.9118800E+02  0.7818608E-02  0.1180000E+00
       11   -1    0    0    0    0  0.00000000000E+00  0.00000000000E+00  0.10559998763E+01  0.10560000000E+01  0.51109989000E-03 0. -1.
     -623   -1    0    0    0    0  0.00000000000E+00  0.00000000000E+00  0.47855275298E-10  0.17124000000E+03  0.17124000000E+03 0.  1.
       11    1    1    2    0    0 -0.10903668562E-01 -0.84941812758E-02  0.85736404104E+00  0.85747559802E+00  0.51109989000E-03 0. -1.
     -623    1    1    2    0    0  0.14280058034E-01  0.11388674446E-01  0.16222680603E-03  0.17124000097E+03  0.17124000000E+03 0.  1.
       22    1    1    2    0    0 -0.33763910137E-02 -0.28944944004E-02  0.19847372254E+00  0.19852354181E+00  0.00000000000E+00 0.  1.
</event>
<event>
 5   1  0.2192208E+09  0.9118800E+02  0.7818608E-02  0.1180000E+00
       11   -1    0    0    0    0  0.00000000000E+00  0.00000000000E+00  0.10559998763E+01  0.10560000000E+01  0.51109989000E-03 0. -1.
     -623   -1    0    0    0    0  0.00000000000E+00  0.00000000000E+00  0.47855275298E-10  0.17124000000E+03  0.17124000000E+03 0. -1.
       11    1    1    2    0    0 -0.16590577175E-01  0.12587944895E-01  0.93345914867E+00  0.93369156956E+00  0.51109989000E-03 0. -1.
     -623    1    1    2    0    0  0.16298955539E-01 -0.14974613557E-01  0.25736425763E-03  0.17124000143E+03  0.17124000000E+03 0. -1.
       22    1    1    2    0    0  0.29162154724E-03  0.23866687430E-02  0.12228336918E+00  0.12230700556E+00  0.00000000000E+00 0. -1.
</event>
<event>
 5   1  0.2192208E+09  0.9118800E+02  0.7818608E-02  0.1180000E+00
       11   -1    0    0    0    0  0.00000000000E+00  0.00000000000E+00  0.10559998763E+01  0.10560000000E+01  0.51109989000E-03 0.  1.
     -623   -1    0    0    0    0  0.00000000000E+00  0.00000000000E+00  0.47855275298E-10  0.17124000000E+03  0.17124000000E+03 0.  1.
       11    1    1    2    0    0  0.93434491803E-03  0.18860274420E-02  0.90478675758E+00  0.90478935008E+00  0.51109989000E-03 0.  1.
     -623    1    1    2    0    0  0.12684987269E-03 -0.20813174528E-03  0.15502632528E-04  0.17124000000E+03  0.17124000000E+03 0.  1.
       22    1    1    2    0    0 -0.10611947943E-02 -0.16778956909E-02  0.15119764581E+00  0.15121067941E+00  0.00000000000E+00 0.  1.
</event>
<event>
 5   1  0.2192208E+09  0.9118800E+02  0.7818608E-02  0.1180000E+00
       11   -1    0    0    0    0  0.00000000000E+00  0.00000000000E+00  0.10559998763E+01  0.10560000000E+01  0.51109989000E-03 0. -1.
     -623   -1    0    0    0    0  0.00000000000E+00  0.00000000000E+00  0.47855275298E-10  0.17124000000E+03  0.17124000000E+03 0.  1.
       11    1    1    2    0    0 -0.33045848352E-02 -0.29195766762E-02  0.64320544587E+00  0.64322076383E+00  0.51109989000E-03 0. -1.
     -623    1    1    2    0    0  0.51701607397E-03 -0.16416109189E-02  0.49817336712E-04  0.17124000001E+03  0.17124000000E+03 0.  1.
       22    1    1    2    0    0  0.27875687653E-02  0.45611875824E-02  0.41274460501E+00  0.41277921936E+00  0.00000000000E+00 0.  1.
</event>
<event>
 5   1  0.2192208E+09  0.9118800E+02  0.7818608E-02  0.1180000E+00
       11   -1    0    0    0    0  0.00000000000E+00  0.00000000000E+00  0.10559998763E+01  0.10560000000E+01  0.51109989000E-03 0.  1.
     -623   -1    0    0    0    0  0.00000000000E+00  0.00000000000E+00  0.47855275298E-10  0.17124000000E+03  0.17124000000E+03 0. -1.
       11    1    1    2    0    0 -0.17380798705E-02  0.55173968473E-02  0.96024610736E+00  0.96026366718E+00  0.51109989000E-03 0.  1.
     -623    1    1    2    0    0  0.24835904975E-02 -0.67078520644E-02  0.27890338967E-04  0.17124000015E+03  0.17124000000E+03 0. -1.
       22    1    1    2    0    0 -0.74551040664E-03  0.11904546221E-02  0.95725784995E-01  0.95736089751E-01  0.00000000000E+00 0.  1.
</event>
<event>
 5   1  0.2192208E+09  0.9118800E+02  0.7818608E-02  0.1180000E+00
       11   -1    0    0    0    0  0.00000000000E+00  0.00000000000E+00  0.10559998763E+01  0.10560000000E+01  0.51109989000E-03 0.  1.
     -623   -1    0    0    0    0  0.00000000000E+00  0.00000000000E+00  0.47855275298E-10  0.17124000000E+03  0.17124000000E+03 0. -1.
       11    1    1    2    0    0 -0.42284273951E-04 -0.24262655230E-02  0.91739226645E+00  0.91739561822E+00  0.51109989000E-03 0.  1.
     -623    1    1    2    0    0 -0.84949268489E-03  0.69682413104E-03  0.16890744886E-04  0.17124000000E+03  0.17124000000E+03 0. -1.
       22    1    1    2    0    0  0.89177696483E-03  0.17294413871E-02  0.13859072661E+00  0.13860438570E+00  0.00000000000E+00 0.  1.
</event>
<event>
 5   1  0.2192208E+09  0.9118800E+02  0.7818608E-02  0.1180000E+00
       11   -1    0    0    0    0  0.00000000000E+00  0.00000000000E+00  0.10559998763E+01  0.10560000000E+01  0.51109989000E-03 0. -1.
     -623   -1    0    0    0    0  0.00000000000E+00  0.00000000000E+00  0.47855275298E-10  0.17124000000E+03  0.17124000000E+03 0. -1.
       11    1    1    2    0    0 -0.43026330712E-03 -0.13813477367E-02  0.99606209309E+00  0.99606327498E+00  0.51109989000E-03 0. -1.
     -623    1    1    2    0    0 -0.24128373800E-04 -0.28193443831E-04  0.19357661669E-04  0.17124000000E+03  0.17124000000E+03 0. -1.
       22    1    1    2    0    0  0.45439168108E-03  0.14095411807E-02  0.59918432664E-01  0.59936732069E-01  0.00000000000E+00 0.  1.
</event>
<event>
 5   1  0.2192208E+09  0.9118800E+02  0.7818608E-02  0.1180000E+00
       11   -1    0    0    0    0  0.00000000000E+00  0.00000000000E+00  0.10559998763E+01  0.10560000000E+01  0.51109989000E-03 0.  1.
     -623   -1    0    0    0    0  0.00000000000E+00  0.00000000000E+00  0.47855275298E-10  0.17124000000E+03  0.17124000000E+03 0. -1.
       11    1    1    2    0    0  0.14834850017E-01 -0.14500828082E-01  0.89539705205E+00  0.89563747624E+00  0.51109989000E-03 0.  1.
     -623    1    1    2    0    0 -0.17490024232E-01  0.17703095121E-01  0.29607297603E-03  0.17124000181E+03  0.17124000000E+03 0. -1.
       22    1    1    2    0    0  0.26551732043E-02 -0.32022660164E-02  0.16030669036E+00  0.16036065424E+00  0.00000000000E+00 0.  1.
</event>
<event>
 5   1  0.2192208E+09  0.9118800E+02  0.7818608E-02  0.1180000E+00
       11   -1    0    0    0    0  0.00000000000E+00  0.00000000000E+00  0.10559998763E+01  0.10560000000E+01  0.51109989000E-03 0. -1.
     -623   -1    0    0    0    0  0.00000000000E+00  0.00000000000E+00  0.47855275298E-10  0.17124000000E+03  0.17124000000E+03 0.  1.
       11    1    1    2    0    0 -0.31003166069E-02  0.15311099588E-02  0.92589903797E+00  0.92590563558E+00  0.51109989000E-03 0. -1.
     -623    1    1    2    0    0  0.21155927887E-02  0.10656607755E-03  0.20522507359E-04  0.17124000001E+03  0.17124000000E+03 0.  1.
       22    1    1    2    0    0  0.98472381924E-03 -0.16376760363E-02  0.13008031535E+00  0.13009435078E+00  0.00000000000E+00 0.  1.
</event>
<event>
 5   1  0.2192208E+09  0.9118800E+02  0.7818608E-02  0.1180000E+00
       11   -1    0    0    0    0  0.00000000000E+00  0.00000000000E+00  0.10559998763E+01  0.10560000000E+01  0.51109989000E-03 0. -1.
     -623   -1    0    0    0    0  0.00000000000E+00  0.00000000000E+00  0.47855275298E-10  0.17124000000E+03  0.17124000000E+03 0. -1.
       11    1    1    2    0    0 -0.17754958152E-02  0.10784924107E-01  0.15993795887E+00  0.16031181767E+00  0.51109989000E-03 0. -1.
     -623    1    1    2    0    0 -0.13037860928E-02  0.84821278084E-02  0.58649533526E-03  0.17124000022E+03  0.17124000000E+03 0. -1.
       22    1    1    2    0    0  0.30792819078E-02 -0.19267051915E-01  0.89547542207E+00  0.89568796620E+00  0.00000000000E+00 0. -1.
</event>
<event>
 5   1  0.2192208E+09  0.9118800E+02  0.7818608E-02  0.1180000E+00
       11   -1    0    0    0    0  0.00000000000E+00  0.00000000000E+00  0.10559998763E+01  0.10560000000E+01  0.51109989000E-03 0.  1.
     -623   -1    0    0    0    0  0.00000000000E+00  0.00000000000E+00  0.47855275298E-10  0.17124000000E+03  0.17124000000E+03 0. -1.
       11    1    1    2    0    0 -0.36129063335E-02 -0.23632167613E-02  0.91952892265E+00  0.91953919911E+00  0.51109989000E-03 0.  1.
     -623    1    1    2    0    0 -0.11406848675E-02  0.31819235690E-03  0.10831110494E-03  0.17124000000E+03  0.17124000000E+03 0. -1.
       22    1    1    2    0    0  0.47535912031E-02  0.20450244039E-02  0.13636264451E+00  0.13646079866E+00  0.00000000000E+00 0.  1.
</event>
<event>
 5   1  0.2192208E+09  0.9118800E+02  0.7818608E-02  0.1180000E+00
       11   -1    0    0    0    0  0.00000000000E+00  0.00000000000E+00  0.10559998763E+01  0.10560000000E+01  0.51109989000E-03 0.  1.
     -623   -1    0    0    0    0  0.00000000000E+00  0.00000000000E+00  0.47855275298E-10  0.17124000000E+03  0.17124000000E+03 0.  1.
       11    1    1    2    0    0 -0.36979372995E-02  0.51868813564E-02  0.85918024654E+00  0.85920401288E+00  0.51109989000E-03 0.  1.
     -623    1    1    2    0    0  0.79185884489E-04 -0.76872276231E-03  0.10652817480E-03  0.17124000000E+03  0.17124000000E+03 0.  1.
       22    1    1    2    0    0  0.36187514152E-02 -0.44181585960E-02  0.19671309895E+00  0.19679598265E+00  0.00000000000E+00 0. -1.
</event>
<event>
 5   1  0.2192208E+09  0.9118800E+02  0.7818608E-02  0.1180000E+00
       11   -1    0    0    0    0  0.00000000000E+00  0.00000000000E+00  0.10559998763E+01  0.10560000000E+01  0.51109989000E-03 0. -1.
     -623   -1    0    0    0    0  0.00000000000E+00  0.00000000000E+00  0.47855275298E-10  0.17124000000E+03  0.17124000000E+03 0.  1.
       11    1    1    2    0    0 -0.25623108998E-02  0.22605743202E-01  0.94344897117E+00  0.94372337445E+00  0.51109989000E-03 0. -1.
     -623    1    1    2    0    0  0.33697099205E-02 -0.24887388683E-01  0.30221150631E-03  0.17124000184E+03  0.17124000000E+03 0.  1.
       22    1    1    2    0    0 -0.80739905618E-03  0.22816457427E-02  0.11224870478E+00  0.11227479471E+00  0.00000000000E+00 0.  1.
</event>
<event>
 5   1  0.2192208E+09  0.9118800E+02  0.7818608E-02  0.1180000E+00
       11   -1    0    0    0    0  0.00000000000E+00  0.00000000000E+00  0.10559998763E+01  0.10560000000E+01  0.51109989000E-03 0.  1.
     -623   -1    0    0    0    0  0.00000000000E+00  0.00000000000E+00  0.47855275298E-10  0.17124000000E+03  0.17124000000E+03 0.  1.
       11    1    1    2    0    0 -0.17512256567E-02  0.48655078957E-02  0.69884144624E+00  0.69886076451E+00  0.51109989000E-03 0. -1.
     -623    1    1    2    0    0  0.16505780812E-03 -0.40264930578E-03  0.50603137033E-04  0.17124000000E+03  0.17124000000E+03 0.  1.
       22    1    1    2    0    0  0.15861678483E-02 -0.44628585891E-02  0.35710782898E+00  0.35713923693E+00  0.00000000000E+00 0.  1.
</event>
<event>
 5   1  0.2192208E+09  0.9118800E+02  0.7818608E-02  0.1180000E+00
       11   -1    0    0    0    0  0.00000000000E+00  0.00000000000E+00  0.10559998763E+01  0.10560000000E+01  0.51109989000E-03 0.  1.
     -623   -1    0    0    0    0  0.00000000000E+00  0.00000000000E+00  0.47855275298E-10  0.17124000000E+03  0.17124000000E+03 0.  1.
       11    1    1    2    0    0  0.39615005930E-03  0.14535778286E-02  0.33747212704E+00  0.33747587703E+00  0.51109989000E-03 0.  1.
     -623    1    1    2    0    0 -0.51270178958E-02  0.97221237235E-02  0.10647254482E-03  0.17124000035E+03  0.17124000000E+03 0.  1.
       22    1    1    2    0    0  0.47308678366E-02 -0.11175701552E-01  0.71842127680E+00  0.71852377022E+00  0.00000000000E+00 0.  1.
</event>
<event>
 5   1  0.2192208E+09  0.9118800E+02  0.7818608E-02  0.1180000E+00
       11   -1    0    0    0    0  0.00000000000E+00  0.00000000000E+00  0.10559998763E+01  0.10560000000E+01  0.51109989000E-03 0. -1.
     -623   -1    0    0    0    0  0.00000000000E+00  0.00000000000E+00  0.47855275298E-10  0.17124000000E+03  0.17124000000E+03 0.  1.
       11    1    1    2    0    0 -0.86539861812E-02  0.11835731600E-01  0.45342486397E+00  0.45366214797E+00  0.51109989000E-03 0. -1.
     -623    1    1    2    0    0  0.21140705665E-01 -0.28689487385E-01  0.60619911334E-03  0.17124000371E+03  0.17124000000E+03 0.  1.
       22    1    1    2    0    0 -0.12486723697E-01  0.16853761503E-01  0.60196902363E+00  0.60233435313E+00  0.00000000000E+00 0. -1.
</event>
<event>
 5   1  0.2192208E+09  0.9118800E+02  0.7818608E-02  0.1180000E+00
       11   -1    0    0    0    0  0.00000000000E+00  0.00000000000E+00  0.10559998763E+01  0.10560000000E+01  0.51109989000E-03 0. -1.
     -623   -1    0    0    0    0  0.00000000000E+00  0.00000000000E+00  0.47855275298E-10  0.17124000000E+03  0.17124000000E+03 0. -1.
       11    1    1    2    0    0 -0.67650723315E-03 -0.18018017438E-02  0.98903535491E+00  0.98903735957E+00  0.51109989000E-03 0. -1.
     -623    1    1    2    0    0 -0.35273944095E-03  0.48281542960E-03  0.22785599436E-04  0.17124000000E+03  0.17124000000E+03 0. -1.
       22    1    1    2    0    0  0.10292466752E-02  0.13189863127E-02  0.66941739154E-01  0.66962642679E-01  0.00000000000E+00 0.  1.
</event>
<event>
 5   1  0.2192208E+09  0.9118800E+02  0.7818608E-02  0.1180000E+00
       11   -1    0    0    0    0  0.00000000000E+00  0.00000000000E+00  0.10559998763E+01  0.10560000000E+01  0.51109989000E-03 0.  1.
     -623   -1    0    0    0    0  0.00000000000E+00  0.00000000000E+00  0.47855275298E-10  0.17124000000E+03  0.17124000000E+03 0. -1.
       11    1    1    2    0    0 -0.20199758544E-02 -0.36357602236E-02  0.76108126244E+00  0.76109279875E+00  0.51109989000E-03 0.  1.
     -623    1    1    2    0    0  0.78407042077E-04 -0.29243970510E-04  0.40579156552E-04  0.17124000000E+03  0.17124000000E+03 0. -1.
       22    1    1    2    0    0  0.19415688113E-02  0.36650041945E-02  0.29487804894E+00  0.29490721539E+00  0.00000000000E+00 0.  1.
</event>
<event>
 5   1  0.2192208E+09  0.9118800E+02  0.7818608E-02  0.1180000E+00
       11   -1    0    0    0    0  0.00000000000E+00  0.00000000000E+00  0.10559998763E+01  0.10560000000E+01  0.51109989000E-03 0. -1.
     -623   -1    0    0    0    0  0.00000000000E+00  0.00000000000E+00  0.47855275298E-10  0.17124000000E+03  0.17124000000E+03 0.  1.
       11    1    1    2    0    0  0.10667704655E-01  0.23781637366E-01  0.97204392626E+00  0.97239345020E+00  0.51109989000E-03 0. -1.
     -623    1    1    2    0    0 -0.11569916435E-01 -0.25990813806E-01  0.38582697939E-03  0.17124000236E+03  0.17124000000E+03 0.  1.
       22    1    1    2    0    0  0.90220532364E-03  0.22091619348E-02  0.83569533992E-01  0.83603596708E-01  0.00000000000E+00 0. -1.
</event>
<event>
 5   1  0.2192208E+09  0.9118800E+02  0.7818608E-02  0.1180000E+00
       11   -1    0    0    0    0  0.00000000000E+00  0.00000000000E+00  0.10559998763E+01  0.10560000000E+01  0.51109989000E-03 0. -1.
     -623   -1    0    0    0    0  0.00000000000E+00  0.00000000000E+00  0.47855275298E-10  0.17124000000E+03  0.17124000000E+03 0.  1.
       11    1    1    2    0    0  0.66023763663E-02  0.62121820655E-02  0.61874696782E+00  0.61881358581E+00  0.51109989000E-03 0. -1.
     -623    1    1    2    0    0 -0.15540844142E-01 -0.11813113618E-01  0.19487907515E-03  0.17124000111E+03  0.17124000000E+03 0.  1.
       22    1    1    2    0    0  0.89384676437E-02  0.56009314520E-02  0.43705802051E+00  0.43718529244E+00  0.00000000000E+00 0. -1.
</event>
<event>
 5   1  0.2192208E+09  0.9118800E+02  0.7818608E-02  0.1180000E+00
       11   -1    0    0    0    0  0.00000000000E+00  0.00000000000E+00  0.10559998763E+01  0.10560000000E+01  0.51109989000E-03 0. -1.
     -623   -1    0    0    0    0  0.00000000000E+00  0.00000000000E+00  0.47855275298E-10  0.17124000000E+03  0.17124000000E+03 0. -1.
       11    1    1    2    0    0  0.59650550302E-03  0.17054641900E-02  0.95953928014E+00  0.95954111730E+00  0.51109989000E-03 0. -1.
     -623    1    1    2    0    0  0.18155847177E-03  0.61534050147E-04  0.21038130156E-04  0.17124000000E+03  0.17124000000E+03 0. -1.
       22    1    1    2    0    0 -0.77806397454E-03 -0.17669982401E-02  0.96439556666E-01  0.96458881168E-01  0.00000000000E+00 0. -1.
</event>
<event>
 5   1  0.2192208E+09  0.9118800E+02  0.7818608E-02  0.1180000E+00
       11   -1    0    0    0    0  0.00000000000E+00  0.00000000000E+00  0.10559998763E+01  0.10560000000E+01  0.51109989000E-03 0.  1.
     -623   -1    0    0    0    0  0.00000000000E+00  0.00000000000E+00  0.47855275298E-10  0.17124000000E+03  0.17124000000E+03 0.  1.
       11    1    1    2    0    0 -0.87508391030E-02  0.16624256184E-01  0.93071228472E+00  0.93090201484E+00  0.51109989000E-03 0.  1.
     -623    1    1    2    0    0  0.97500451138E-02 -0.18691084687E-01  0.21197051537E-03  0.17124000130E+03  0.17124000000E+03 0.  1.
       22    1    1    2    0    0 -0.99921261008E-03  0.20668411541E-02  0.12507633574E+00  0.12509740213E+00  0.00000000000E+00 0. -1.
</event>
<event>
 5   1  0.2192208E+09  0.9118800E+02  0.7818608E-02  0.1180000E+00
       11   -1    0    0    0    0  0.00000000000E+00  0.00000000000E+00  0.10559998763E+01  0.10560000000E+01  0.51109989000E-03 0. -1.
     -623   -1    0    0    0    0  0.00000000000E+00  0.00000000000E+00  0.47855275298E-10  0.17124000000E+03  0.17124000000E+03 0.  1.
       11    1    1    2    0    0 -0.11026067513E-01  0.90969696553E-02  0.84247770084E+00  0.84259911385E+00  0.51109989000E-03 0. -1.
     -623    1    1    2    0    0  0.13834037394E-01 -0.11237746524E-01  0.15143085009E-03  0.17124000093E+03  0.17124000000E+03 0.  1.
       22    1    1    2    0    0 -0.28079936155E-02  0.21407961481E-02  0.21337255613E+00  0.21340177025E+00  0.00000000000E+00 0. -1.
</event>
<event>
 5   1  0.2192208E+09  0.9118800E+02  0.7818608E-02  0.1180000E+00
       11   -1    0    0    0    0  0.00000000000E+00  0.00000000000E+00  0.10559998763E+01  0.10560000000E+01  0.51109989000E-03 0.  1.
     -623   -1    0    0    0    0  0.00000000000E+00  0.00000000000E+00  0.47855275298E-10  0.17124000000E+03  0.17124000000E+03 0.  1.
       11    1    1    2    0    0  0.37117176117E-02 -0.14766367014E-01  0.97467741825E+00  0.97479646764E+00  0.51109989000E-03 0.  1.
     -623    1    1    2    0    0 -0.42802480917E-02  0.16352383218E-01  0.13724089227E-03  0.17124000083E+03  0.17124000000E+03 0.  1.
       22    1    1    2    0    0  0.56853133999E-03 -0.15860194906E-02  0.81185429369E-01  0.81202910216E-01  0.00000000000E+00 0. -1.
</event>
<event>
 5   1  0.2192208E+09  0.9118800E+02  0.7818608E-02  0.1180000E+00
       11   -1    0    0    0    0  0.00000000000E+00  0.00000000000E+00  0.10559998763E+01  0.10560000000E+01  0.51109989000E-03 0.  1.
     -623   -1    0    0    0    0  0.00000000000E+00  0.00000000000E+00  0.47855275298E-10  0.17124000000E+03  0.17124000000E+03 0.  1.
       11    1    1    2    0    0 -0.29826480077E-02 -0.83137372500E-02  0.77237108104E+00  0.77242175168E+00  0.51109989000E-03 0.  1.
     -623    1    1    2    0    0  0.38929911835E-02  0.11223653306E-01  0.67350713029E-04  0.17124000041E+03  0.17124000000E+03 0.  1.
       22    1    1    2    0    0 -0.91034401392E-03 -0.29099184719E-02  0.28356167194E+00  0.28357806358E+00  0.00000000000E+00 0.  1.
</event>
<event>
 5   1  0.2192208E+09  0.9118800E+02  0.7818608E-02  0.1180000E+00
       11   -1    0    0    0    0  0.00000000000E+00  0.00000000000E+00  0.10559998763E+01  0.10560000000E+01  0.51109989000E-03 0.  1.
     -623   -1    0    0    0    0  0.00000000000E+00  0.00000000000E+00  0.47855275298E-10  0.17124000000E+03  0.17124000000E+03 0.  1.
       11    1    1    2    0    0  0.22349166127E-02 -0.13812832762E-01  0.77380441851E+00  0.77393108772E+00  0.51109989000E-03 0.  1.
     -623    1    1    2    0    0 -0.33227487747E-02  0.19133047114E-01  0.17992285715E-03  0.17124000110E+03  0.17124000000E+03 0.  1.
       22    1    1    2    0    0  0.10878327809E-02 -0.53202179154E-02  0.28201573164E+00  0.28206800775E+00  0.00000000000E+00 0.  1.
</event>
<event>
 5   1  0.2192208E+09  0.9118800E+02  0.7818608E-02  0.1180000E+00
       11   -1    0    0    0    0  0.00000000000E+00  0.00000000000E+00  0.10559998763E+01  0.10560000000E+01  0.51109989000E-03 0.  1.
     -623   -1    0    0    0    0  0.00000000000E+00  0.00000000000E+00  0.47855275298E-10  0.17124000000E+03  0.17124000000E+03 0.  1.
       11    1    1    2    0    0  0.40546670941E-02  0.46380562022E-02  0.57475879261E+00  0.57479203439E+00  0.51109989000E-03 0.  1.
     -623    1    1    2    0    0 -0.80949849975E-02 -0.95509246469E-02  0.75618220508E-04  0.17124000046E+03  0.17124000000E+03 0.  1.
       22    1    1    2    0    0  0.40403183289E-02  0.49128689466E-02  0.48116552103E+00  0.48120756341E+00  0.00000000000E+00 0. -1.
</event>
<event>
 5   1  0.2192208E+09  0.9118800E+02  0.7818608E-02  0.1180000E+00
       11   -1    0    0    0    0  0.00000000000E+00  0.00000000000E+00  0.10559998763E+01  0.10560000000E+01  0.51109989000E-03 0.  1.
     -623   -1    0    0    0    0  0.00000000000E+00  0.00000000000E+00  0.47855275298E-10  0.17124000000E+03  0.17124000000E+03 0. -1.
       11    1    1    2    0    0 -0.17255451660E-01  0.80898666024E-02  0.93211319249E+00  0.93230813650E+00  0.51109989000E-03 0.  1.
     -623    1    1    2    0    0  0.19331787238E-01 -0.93532479633E-02  0.22004884002E-03  0.17124000135E+03  0.17124000000E+03 0. -1.
       22    1    1    2    0    0 -0.20763334547E-02  0.12633803334E-02  0.12366651905E+00  0.12369040070E+00  0.00000000000E+00 0. -1.
</event>
<event>
 5   1  0.2192208E+09  0.9118800E+02  0.7818608E-02  0.1180000E+00
       11   -1    0    0    0    0  0.00000000000E+00  0.00000000000E+00  0.10559998763E+01  0.10560000000E+01  0.51109989000E-03 0. -1.
     -623   -1    0    0    0    0  0.00000000000E+00  0.00000000000E+00  0.47855275298E-10  0.17124000000E+03  0.17124000000E+03 0.  1.
       11    1    1    2    0    0 -0.43811458315E-02 -0.10985390393E-01  0.98578470012E+00  0.98585577518E+00  0.51109989000E-03 0. -1.
     -623    1    1    2    0    0  0.47425026655E-02  0.11767712363E-01  0.76715114834E-04  0.17124000047E+03  0.17124000000E+03 0.  1.
       22    1    1    2    0    0 -0.36134939226E-03 -0.78230350459E-03  0.70136804222E-01  0.70142097763E-01  0.00000000000E+00 0.  1.
</event>
<event>
 5   1  0.2192208E+09  0.9118800E+02  0.7818608E-02  0.1180000E+00
       11   -1    0    0    0    0  0.00000000000E+00  0.00000000000E+00  0.10559998763E+01  0.10560000000E+01  0.51109989000E-03 0. -1.
     -623   -1    0    0    0    0  0.00000000000E+00  0.00000000000E+00  0.47855275298E-10  0.17124000000E+03  0.17124000000E+03 0.  1.
       11    1    1    2    0    0  0.97317048811E-02  0.15876366580E-01  0.87719747661E+00  0.87739525831E+00  0.51109989000E-03 0. -1.
     -623    1    1    2    0    0 -0.95598608551E-02 -0.18694706132E-01  0.22126610344E-03  0.17124000129E+03  0.17124000000E+03 0.  1.
       22    1    1    2    0    0 -0.17184379148E-03  0.28183400104E-02  0.17858115955E+00  0.17860348014E+00  0.00000000000E+00 0.  1.
</event>
<event>
 5   1  0.2192208E+09  0.9118800E+02  0.7818608E-02  0.1180000E+00
       11   -1    0    0    0    0  0.00000000000E+00  0.00000000000E+00  0.10559998763E+01  0.10560000000E+01  0.51109989000E-03 0.  1.
     -623   -1    0    0    0    0  0.00000000000E+00  0.00000000000E+00  0.47855275298E-10  0.17124000000E+03  0.17124000000E+03 0.  1.
       11    1    1    2    0    0 -0.83719042187E-02  0.28161391041E-01  0.10043783857E+01  0.10048081188E+01  0.51109989000E-03 0.  1.
     -623    1    1    2    0    0  0.88346014968E-02 -0.29563366855E-01  0.45368427723E-03  0.17124000278E+03  0.17124000000E+03 0.  1.
       22    1    1    2    0    0 -0.46268800230E-03  0.14019447751E-02  0.51166698178E-01  0.51187992066E-01  0.00000000000E+00 0.  1.
</event>
<event>
 5   1  0.2192208E+09  0.9118800E+02  0.7818608E-02  0.1180000E+00
       11   -1    0    0    0    0  0.00000000000E+00  0.00000000000E+00  0.10559998763E+01  0.10560000000E+01  0.51109989000E-03 0. -1.
     -623   -1    0    0    0    0  0.00000000000E+00  0.00000000000E+00  0.47855275298E-10  0.17124000000E+03  0.17124000000E+03 0. -1.
       11    1    1    2    0    0 -0.39042101753E-03  0.40007614828E-02  0.85774825102E+00  0.85775782239E+00  0.51109989000E-03 0. -1.
     -623    1    1    2    0    0 -0.87386179153E-03  0.26528669131E-02  0.12519411317E-03  0.17124000002E+03  0.17124000000E+03 0. -1.
       22    1    1    2    0    0  0.12642828092E-02 -0.66536283963E-02  0.19812643137E+00  0.19824215492E+00  0.00000000000E+00 0.  1.
</event>
<event>
 5   1  0.2192208E+09  0.9118800E+02  0.7818608E-02  0.1180000E+00
       11   -1    0    0    0    0  0.00000000000E+00  0.00000000000E+00  0.10559998763E+01  0.10560000000E+01  0.51109989000E-03 0.  1.
     -623   -1    0    0    0    0  0.00000000000E+00  0.00000000000E+00  0.47855275298E-10  0.17124000000E+03  0.17124000000E+03 0.  1.
       11    1    1    2    0    0  0.47288876462E-02  0.69817472961E-02  0.10031398601E+01  0.10031754320E+01  0.51109989000E-03 0.  1.
     -623    1    1    2    0    0 -0.54659239651E-02 -0.39780576960E-02  0.12619874303E-03  0.17124000013E+03  0.17124000000E+03 0.  1.
       22    1    1    2    0    0  0.73703631670E-03 -0.30036896017E-02  0.52733817073E-01  0.52824434089E-01  0.00000000000E+00 0. -1.
</event>
<event>
 5   1  0.2192208E+09  0.9118800E+02  0.7818608E-02  0.1180000E+00
       11   -1    0    0    0    0  0.00000000000E+00  0.00000000000E+00  0.10559998763E+01  0.10560000000E+01  0.51109989000E-03 0. -1.
     -623   -1    0    0    0    0  0.00000000000E+00  0.00000000000E+00  0.47855275298E-10  0.17124000000E+03  0.17124000000E+03 0.  1.
       11    1    1    2    0    0  0.40689802307E-03  0.15758392403E-02  0.97856049272E+00  0.97856197963E+00  0.51109989000E-03 0. -1.
     -623    1    1    2    0    0  0.19211136266E-04 -0.74617568587E-05  0.18419925528E-04  0.17124000000E+03  0.17124000000E+03 0.  1.
       22    1    1    2    0    0 -0.42610915979E-03 -0.15683774833E-02  0.77420988420E-01  0.77438045074E-01  0.00000000000E+00 0.  1.
</event>
<event>
 5   1  0.2192208E+09  0.9118800E+02  0.7818608E-02  0.1180000E+00
       11   -1    0    0    0    0  0.00000000000E+00  0.00000000000E+00  0.10559998763E+01  0.10560000000E+01  0.51109989000E-03 0. -1.
     -623   -1    0    0    0    0  0.00000000000E+00  0.00000000000E+00  0.47855275298E-10  0.17124000000E+03  0.17124000000E+03 0. -1.
       11    1    1    2    0    0 -0.40144113387E-03 -0.81254749638E-03  0.99017271990E+00  0.99017326658E+00  0.51109989000E-03 0. -1.
     -623    1    1    2    0    0 -0.45496837792E-03 -0.32143364655E-04  0.11415088766E-04  0.17124000000E+03  0.17124000000E+03 0. -1.
       22    1    1    2    0    0  0.85640950347E-03  0.84469086044E-03  0.65815722050E-01  0.65826713489E-01  0.00000000000E+00 0.  1.
</event>
<event>
 5   1  0.2192208E+09  0.9118800E+02  0.7818608E-02  0.1180000E+00
       11   -1    0    0    0    0  0.00000000000E+00  0.00000000000E+00  0.10559998763E+01  0.10560000000E+01  0.51109989000E-03 0. -1.
     -623   -1    0    0    0    0  0.00000000000E+00  0.00000000000E+00  0.47855275298E-10  0.17124000000E+03  0.17124000000E+03 0. -1.
       11    1    1    2    0    0  0.69120466085E-02  0.47997327277E-02  0.82859047684E+00  0.82863336486E+00  0.51109989000E-03 0. -1.
     -623    1    1    2    0    0 -0.24531729166E-02 -0.16400505238E-02  0.10847552074E-03  0.17124000003E+03  0.17124000000E+03 0. -1.
       22    1    1    2    0    0 -0.44588736888E-02 -0.31596822019E-02  0.22730092532E+00  0.22736661100E+00  0.00000000000E+00 0. -1.
</event>
<event>
 5   1  0.2192208E+09  0.9118800E+02  0.7818608E-02  0.1180000E+00
       11   -1    0    0    0    0  0.00000000000E+00  0.00000000000E+00  0.10559998763E+01  0.10560000000E+01  0.51109989000E-03 0. -1.
     -623   -1    0    0    0    0  0.00000000000E+00  0.00000000000E+00  0.47855275298E-10  0.17124000000E+03  0.17124000000E+03 0.  1.
       11    1    1    2    0    0  0.27682191016E-03  0.12545089390E-02  0.87492592815E-01  0.87503516750E-01  0.51109989000E-03 0.  1.
     -623    1    1    2    0    0 -0.96379680565E-03 -0.12738839513E-01  0.79612947092E-04  0.17124000048E+03  0.17124000000E+03 0.  1.
       22    1    1    2    0    0  0.68697499800E-03  0.11484331929E-01  0.96842778290E+00  0.96849611900E+00  0.00000000000E+00 0. -1.
</event>
<event>
 5   1  0.2192208E+09  0.9118800E+02  0.7818608E-02  0.1180000E+00
       11   -1    0    0    0    0  0.00000000000E+00  0.00000000000E+00  0.10559998763E+01  0.10560000000E+01  0.51109989000E-03 0. -1.
     -623   -1    0    0    0    0  0.00000000000E+00  0.00000000000E+00  0.47855275298E-10  0.17124000000E+03  0.17124000000E+03 0. -1.
       11    1    1    2    0    0  0.19236309336E-03 -0.15247417152E-02  0.10052954043E+01  0.10052967089E+01  0.51109989000E-03 0. -1.
     -623    1    1    2    0    0  0.23976922354E-03  0.67745628957E-03  0.10104103974E-04  0.17124000000E+03  0.17124000000E+03 0. -1.
       22    1    1    2    0    0 -0.43213232354E-03  0.84728540683E-03  0.50694397268E-01  0.50703318878E-01  0.00000000000E+00 0.  1.
</event>
<event>
 5   1  0.2192208E+09  0.9118800E+02  0.7818608E-02  0.1180000E+00
       11   -1    0    0    0    0  0.00000000000E+00  0.00000000000E+00  0.10559998763E+01  0.10560000000E+01  0.51109989000E-03 0.  1.
     -623   -1    0    0    0    0  0.00000000000E+00  0.00000000000E+00  0.47855275298E-10  0.17124000000E+03  0.17124000000E+03 0. -1.
       11    1    1    2    0    0 -0.69947390681E-02 -0.15158885698E-02  0.45712158532E+00  0.45717789676E+00  0.51109989000E-03 0.  1.
     -623    1    1    2    0    0  0.72942026724E-02  0.97891276738E-02  0.11385158119E-03  0.17124000044E+03  0.17124000000E+03 0. -1.
       22    1    1    2    0    0 -0.29946368688E-03 -0.82732392148E-02  0.59876445142E+00  0.59882168001E+00  0.00000000000E+00 0.  1.
</event>
<event>
 5   1  0.2192208E+09  0.9118800E+02  0.7818608E-02  0.1180000E+00
       11   -1    0    0    0    0  0.00000000000E+00  0.00000000000E+00  0.10559998763E+01  0.10560000000E+01  0.51109989000E-03 0.  1.
     -623   -1    0    0    0    0  0.00000000000E+00  0.00000000000E+00  0.47855275298E-10  0.17124000000E+03  0.17124000000E+03 0. -1.
       11    1    1    2    0    0 -0.54959455739E-03  0.54473493466E-02  0.50148222933E+00  0.50151237594E+00  0.51109989000E-03 0. -1.
     -623    1    1    2    0    0  0.11642237967E-02 -0.11635202284E-01  0.65290945894E-04  0.17124000040E+03  0.17124000000E+03 0. -1.
       22    1    1    2    0    0 -0.61462842925E-03  0.61878448419E-02  0.55445162136E+00  0.55448649003E+00  0.00000000000E+00 0.  1.
</event>
<event>
 5   1  0.2192208E+09  0.9118800E+02  0.7818608E-02  0.1180000E+00
       11   -1    0    0    0    0  0.00000000000E+00  0.00000000000E+00  0.10559998763E+01  0.10560000000E+01  0.51109989000E-03 0.  1.
     -623   -1    0    0    0    0  0.00000000000E+00  0.00000000000E+00  0.47855275298E-10  0.17124000000E+03  0.17124000000E+03 0. -1.
       11    1    1    2    0    0  0.82710522189E-02 -0.73815685913E-02  0.93096611402E+00  0.93103225752E+00  0.51109989000E-03 0.  1.
     -623    1    1    2    0    0 -0.92796333283E-02  0.87044517770E-02  0.77564958187E-04  0.17124000047E+03  0.17124000000E+03 0. -1.
       22    1    1    2    0    0  0.10085785397E-02 -0.13228807752E-02  0.12495590498E+00  0.12496697737E+00  0.00000000000E+00 0.  1.
</event>
<event>
 5   1  0.2192208E+09  0.9118800E+02  0.7818608E-02  0.1180000E+00
       11   -1    0    0    0    0  0.00000000000E+00  0.00000000000E+00  0.10559998763E+01  0.10560000000E+01  0.51109989000E-03 0.  1.
     -623   -1    0    0    0    0  0.00000000000E+00  0.00000000000E+00  0.47855275298E-10  0.17124000000E+03  0.17124000000E+03 0.  1.
       11    1    1    2    0    0  0.81799346734E-03  0.34719658996E-02  0.80767875849E+00  0.80768679684E+00  0.51109989000E-03 0.  1.
     -623    1    1    2    0    0 -0.92912567497E-03  0.19712213957E-04  0.32492598498E-04  0.17124000000E+03  0.17124000000E+03 0.  1.
       22    1    1    2    0    0  0.11113221540E-03 -0.34916781137E-02  0.24828863411E+00  0.24831320947E+00  0.00000000000E+00 0.  1.
</event>
<event>
 5   1  0.2192208E+09  0.9118800E+02  0.7818608E-02  0.1180000E+00
       11   -1    0    0    0    0  0.00000000000E+00  0.00000000000E+00  0.10559998763E+01  0.10560000000E+01  0.51109989000E-03 0. -1.
     -623   -1    0    0    0    0  0.00000000000E+00  0.00000000000E+00  0.47855275298E-10  0.17124000000E+03  0.17124000000E+03 0. -1.
       11    1    1    2    0    0 -0.22455515165E-02 -0.63857550303E-02  0.71393723697E+00  0.71396950910E+00  0.51109989000E-03 0. -1.
     -623    1    1    2    0    0  0.39622031800E-02  0.10456256852E-01  0.61044243527E-04  0.17124000037E+03  0.17124000000E+03 0. -1.
       22    1    1    2    0    0 -0.17166533883E-02 -0.40705063736E-02  0.34200205481E+00  0.34203058550E+00  0.00000000000E+00 0.  1.
</event>
<event>
 5   1  0.2192208E+09  0.9118800E+02  0.7818608E-02  0.1180000E+00
       11   -1    0    0    0    0  0.00000000000E+00  0.00000000000E+00  0.10559998763E+01  0.10560000000E+01  0.51109989000E-03 0. -1.
     -623   -1    0    0    0    0  0.00000000000E+00  0.00000000000E+00  0.47855275298E-10  0.17124000000E+03  0.17124000000E+03 0.  1.
       11    1    1    2    0    0 -0.44025208926E-02  0.10877730056E-01  0.72255569747E+00  0.72265116368E+00  0.51109989000E-03 0. -1.
     -623    1    1    2    0    0 -0.12332615018E-02 -0.17155118797E-01  0.20297033940E-03  0.17124000086E+03  0.17124000000E+03 0.  1.
       22    1    1    2    0    0  0.56357823912E-02  0.62773886965E-02  0.33324120584E+00  0.33334796973E+00  0.00000000000E+00 0. -1.
</event>
<event>
 5   1  0.2192208E+09  0.9118800E+02  0.7818608E-02  0.1180000E+00
       11   -1    0    0    0    0  0.00000000000E+00  0.00000000000E+00  0.10559998763E+01  0.10560000000E+01  0.51109989000E-03 0.  1.
     -623   -1    0    0    0    0  0.00000000000E+00  0.00000000000E+00  0.47855275298E-10  0.17124000000E+03  0.17124000000E+03 0. -1.
       11    1    1    2    0    0 -0.28463422446E-02  0.36588237409E-02  0.93763919440E+00  0.93765079254E+00  0.51109989000E-03 0.  1.
     -623    1    1    2    0    0  0.22660492302E-02 -0.55237357590E-02  0.27695722344E-04  0.17124000010E+03  0.17124000000E+03 0. -1.
       22    1    1    2    0    0  0.58029297405E-03  0.18649121166E-02  0.11833300508E+00  0.11834912222E+00  0.00000000000E+00 0. -1.
</event>
<event>
 5   1  0.2192208E+09  0.9118800E+02  0.7818608E-02  0.1180000E+00
       11   -1    0    0    0    0  0.00000000000E+00  0.00000000000E+00  0.10559998763E+01  0.10560000000E+01  0.51109989000E-03 0.  1.
     -623   -1    0    0    0    0  0.00000000000E+00  0.00000000000E+00  0.47855275298E-10  0.17124000000E+03  0.17124000000E+03 0. -1.
       11    1    1    2    0    0 -0.25919452481E-02 -0.90289008872E-02  0.90752146352E+00  0.90757022163E+00  0.51109989000E-03 0.  1.
     -623    1    1    2    0    0  0.32385934256E-02  0.10722147066E-01  0.60067873904E-04  0.17124000037E+03  0.17124000000E+03 0. -1.
       22    1    1    2    0    0 -0.64664870269E-03 -0.16932479173E-02  0.14841851622E+00  0.14842958330E+00  0.00000000000E+00 0.  1.
</event>
<event>
 5   1  0.2192208E+09  0.9118800E+02  0.7818608E-02  0.1180000E+00
       11   -1    0    0    0    0  0.00000000000E+00  0.00000000000E+00  0.10559998763E+01  0.10560000000E+01  0.51109989000E-03 0. -1.
     -623   -1    0    0    0    0  0.00000000000E+00  0.00000000000E+00  0.47855275298E-10  0.17124000000E+03  0.17124000000E+03 0. -1.
       11    1    1    2    0    0 -0.19390255537E-02  0.15944695109E-01  0.77707823085E+00  0.77724438319E+00  0.51109989000E-03 0. -1.
     -623    1    1    2    0    0  0.28503603584E-02 -0.21769211347E-01  0.22978408196E-03  0.17124000141E+03  0.17124000000E+03 0. -1.
       22    1    1    2    0    0 -0.91133538833E-03  0.58245206953E-02  0.27869207759E+00  0.27875442541E+00  0.00000000000E+00 0.  1.
</event>
<event>
 5   1  0.2192208E+09  0.9118800E+02  0.7818608E-02  0.1180000E+00
       11   -1    0    0    0    0  0.00000000000E+00  0.00000000000E+00  0.10559998763E+01  0.10560000000E+01  0.51109989000E-03 0.  1.
     -623   -1    0    0    0    0  0.00000000000E+00  0.00000000000E+00  0.47855275298E-10  0.17124000000E+03  0.17124000000E+03 0. -1.
       11    1    1    2    0    0  0.24685229909E-01  0.29412917843E-01  0.99728645350E+00  0.99802555672E+00  0.51109989000E-03 0.  1.
     -623    1    1    2    0    0 -0.25853989453E-01 -0.31413371496E-01  0.79013148551E-03  0.17124000483E+03  0.17124000000E+03 0. -1.
       22    1    1    2    0    0  0.11687685996E-02  0.20004646555E-02  0.57923660974E-01  0.57969978260E-01  0.00000000000E+00 0.  1.
</event>
<event>
 5   1  0.2192208E+09  0.9118800E+02  0.7818608E-02  0.1180000E+00
       11   -1    0    0    0    0  0.00000000000E+00  0.00000000000E+00  0.10559998763E+01  0.10560000000E+01  0.51109989000E-03 0. -1.
     -623   -1    0    0    0    0  0.00000000000E+00  0.00000000000E+00  0.47855275298E-10  0.17124000000E+03  0.17124000000E+03 0. -1.
       11    1    1    2    0    0  0.28499358010E-02  0.88821240052E-03  0.94167759937E+00  0.94168246953E+00  0.51109989000E-03 0. -1.
     -623    1    1    2    0    0 -0.13137311598E-02  0.13050243385E-02  0.36121800827E-04  0.17124000001E+03  0.17124000000E+03 0. -1.
       22    1    1    2    0    0 -0.15362046479E-02 -0.21932367323E-02  0.11428614983E+00  0.11431751508E+00  0.00000000000E+00 0. -1.
</event>
<event>
 5   1  0.2192208E+09  0.9118800E+02  0.7818608E-02  0.1180000E+00
       11   -1    0    0    0    0  0.00000000000E+00  0.00000000000E+00  0.10559998763E+01  0.10560000000E+01  0.51109989000E-03 0.  1.
     -623   -1    0    0    0    0  0.00000000000E+00  0.00000000000E+00  0.47855275298E-10  0.17124000000E+03  0.17124000000E+03 0.  1.
       11    1    1    2    0    0  0.67700194384E-02  0.96287527461E-02  0.92485622220E+00  0.92493126177E+00  0.51109989000E-03 0.  1.
     -623    1    1    2    0    0 -0.73416118245E-02 -0.11202310832E-01  0.86132347729E-04  0.17124000052E+03  0.17124000000E+03 0.  1.
       22    1    1    2    0    0  0.57159394718E-03  0.15735604679E-02  0.13105774635E+00  0.13106843896E+00  0.00000000000E+00 0.  1.
</event>
<event>
 5   1  0.2192208E+09  0.9118800E+02  0.7818608E-02  0.1180000E+00
       11   -1    0    0    0    0  0.00000000000E+00  0.00000000000E+00  0.10559998763E+01  0.10560000000E+01  0.51109989000E-03 0.  1.
     -623   -1    0    0    0    0  0.00000000000E+00  0.00000000000E+00  0.47855275298E-10  0.17124000000E+03  0.17124000000E+03 0. -1.
       11    1    1    2    0    0 -0.16735342770E-03 -0.47449603410E-02  0.10038570477E+01  0.10038684058E+01  0.51109989000E-03 0.  1.
     -623    1    1    2    0    0  0.23137853881E-03  0.54528401957E-02  0.16167001555E-04  0.17124000009E+03  0.17124000000E+03 0. -1.
       22    1    1    2    0    0 -0.64025113627E-04 -0.70787991379E-03  0.52126673107E-01  0.52131518704E-01  0.00000000000E+00 0.  1.
</event>
<event>
 5   1  0.2192208E+09  0.9118800E+02  0.7818608E-02  0.1180000E+00
       11   -1    0    0    0    0  0.00000000000E+00  0.00000000000E+00  0.10559998763E+01  0.10560000000E+01  0.51109989000E-03 0.  1.
     -623   -1    0    0    0    0  0.00000000000E+00  0.00000000000E+00  0.47855275298E-10  0.17124000000E+03  0.17124000000E+03 0.  1.
       11    1    1    2    0    0  0.73146499782E-02 -0.16854952744E-02  0.92787649295E+00  0.92790699555E+00  0.51109989000E-03 0.  1.
     -623    1    1    2    0    0 -0.64285371753E-02  0.31619705588E-02  0.42103670726E-04  0.17124000015E+03  0.17124000000E+03 0.  1.
       22    1    1    2    0    0 -0.88611279621E-03 -0.14764752877E-02  0.12808128083E+00  0.12809285567E+00  0.00000000000E+00 0.  1.
</event>
<event>
 5   1  0.2192208E+09  0.9118800E+02  0.7818608E-02  0.1180000E+00
       11   -1    0    0    0    0  0.00000000000E+00  0.00000000000E+00  0.10559998763E+01  0.10560000000E+01  0.51109989000E-03 0. -1.
     -623   -1    0    0    0    0  0.00000000000E+00  0.00000000000E+00  0.47855275298E-10  0.17124000000E+03  0.17124000000E+03 0.  1.
       11    1    1    2    0    0  0.23934120721E-02  0.79715595988E-03  0.93769314302E+00  0.93769667568E+00  0.51109989000E-03 0. -1.
     -623    1    1    2    0    0  0.30805467432E-03  0.14718694665E-02  0.56031093650E-04  0.17124000001E+03  0.17124000000E+03 0.  1.
       22    1    1    2    0    0 -0.27014667441E-02 -0.22690254153E-02  0.11825069436E+00  0.11830330983E+00  0.00000000000E+00 0.  1.
</event>
<event>
 5   1  0.2192208E+09  0.9118800E+02  0.7818608E-02  0.1180000E+00
       11   -1    0    0    0    0  0.00000000000E+00  0.00000000000E+00  0.10559998763E+01  0.10560000000E+01  0.51109989000E-03 0. -1.
     -623   -1    0    0    0    0  0.00000000000E+00  0.00000000000E+00  0.47855275298E-10  0.17124000000E+03  0.17124000000E+03 0.  1.
       11    1    1    2    0    0  0.15405916738E-01  0.13379197332E-01  0.99997154791E+00  0.10001798353E+01  0.51109989000E-03 0. -1.
     -623    1    1    2    0    0 -0.16407777546E-01 -0.14075015430E-01  0.22285789666E-03  0.17124000136E+03  0.17124000000E+03 0.  1.
       22    1    1    2    0    0  0.10018805081E-02  0.69583499730E-03  0.55806738207E-01  0.55820067898E-01  0.00000000000E+00 0. -1.
</event>
<event>
 5   1  0.2192208E+09  0.9118800E+02  0.7818608E-02  0.1180000E+00
       11   -1    0    0    0    0  0.00000000000E+00  0.00000000000E+00  0.10559998763E+01  0.10560000000E+01  0.51109989000E-03 0.  1.
     -623   -1    0    0    0    0  0.00000000000E+00  0.00000000000E+00  0.47855275298E-10  0.17124000000E+03  0.17124000000E+03 0.  1.
       11    1    1    2    0    0  0.35275179536E-03  0.13547273619E-02  0.96592211201E+00  0.96592326166E+00  0.51109989000E-03 0.  1.
     -623    1    1    2    0    0 -0.52984560317E-04 -0.21850337384E-04  0.11386792137E-04  0.17124000000E+03  0.17124000000E+03 0.  1.
       22    1    1    2    0    0 -0.29976723488E-03 -0.13328770244E-02  0.90066380685E-01  0.90076741456E-01  0.00000000000E+00 0.  1.
</event>
<event>
 5   1  0.2192208E+09  0.9118800E+02  0.7818608E-02  0.1180000E+00
       11   -1    0    0    0    0  0.00000000000E+00  0.00000000000E+00  0.10559998763E+01  0.10560000000E+01  0.51109989000E-03 0. -1.
     -623   -1    0    0    0    0  0.00000000000E+00  0.00000000000E+00  0.47855275298E-10  0.17124000000E+03  0.17124000000E+03 0.  1.
       11    1    1    2    0    0 -0.31722687025E-03  0.28389928214E-02  0.81897675198E+00  0.81898189358E+00  0.51109989000E-03 0. -1.
     -623    1    1    2    0    0  0.14201169243E-03  0.11045996773E-03  0.23435034862E-04  0.17124000000E+03  0.17124000000E+03 0.  1.
       22    1    1    2    0    0  0.17521517708E-03 -0.29494527897E-02  0.23699969489E+00  0.23701811186E+00  0.00000000000E+00 0. -1.
</event>
<event>
 5   1  0.2192208E+09  0.9118800E+02  0.7818608E-02  0.1180000E+00
       11   -1    0    0    0    0  0.00000000000E+00  0.00000000000E+00  0.10559998763E+01  0.10560000000E+01  0.51109989000E-03 0.  1.
     -623   -1    0    0    0    0  0.00000000000E+00  0.00000000000E+00  0.47855275298E-10  0.17124000000E+03  0.17124000000E+03 0. -1.
       11    1    1    2    0    0  0.12801715694E-02 -0.22343030064E-02  0.94319700963E+00  0.94320066324E+00  0.51109989000E-03 0.  1.
     -623    1    1    2    0    0 -0.47795888678E-03  0.86107527219E-03  0.14744867331E-04  0.17124000000E+03  0.17124000000E+03 0. -1.
       22    1    1    2    0    0 -0.80221267548E-03  0.13732277214E-02  0.11278813758E+00  0.11279934963E+00  0.00000000000E+00 0. -1.
</event>
<event>
 5   1  0.2192208E+09  0.9118800E+02  0.7818608E-02  0.1180000E+00
       11   -1    0    0    0    0  0.00000000000E+00  0.00000000000E+00  0.10559998763E+01  0.10560000000E+01  0.51109989000E-03 0. -1.
     -623   -1    0    0    0    0  0.00000000000E+00  0.00000000000E+00  0.47855275298E-10  0.17124000000E+03  0.17124000000E+03 0. -1.
       11    1    1    2    0    0  0.11813883923E-02 -0.12225809941E-01  0.90914865719E+00  0.90923176814E+00  0.51109989000E-03 0. -1.
     -623    1    1    2    0    0  0.23654002312E-03  0.15654196713E-01  0.13060225094E-03  0.17124000072E+03  0.17124000000E+03 0. -1.
       22    1    1    2    0    0 -0.14179284153E-02 -0.34283867617E-02  0.14672061622E+00  0.14676751542E+00  0.00000000000E+00 0. -1.
</event>
<event>
 5   1  0.2192208E+09  0.9118800E+02  0.7818608E-02  0.1180000E+00
       11   -1    0    0    0    0  0.00000000000E+00  0.00000000000E+00  0.10559998763E+01  0.10560000000E+01  0.51109989000E-03 0.  1.
     -623   -1    0    0    0    0  0.00000000000E+00  0.00000000000E+00  0.47855275298E-10  0.17124000000E+03  0.17124000000E+03 0.  1.
       11    1    1    2    0    0  0.53132657255E-03  0.91904194169E-03  0.97073601124E+00  0.97073672625E+00  0.51109989000E-03 0.  1.
     -623    1    1    2    0    0 -0.45661733189E-05 -0.14871420264E-04  0.70129065088E-05  0.17124000000E+03  0.17124000000E+03 0.  1.
       22    1    1    2    0    0 -0.52676039923E-03 -0.90417052140E-03  0.85256853916E-01  0.85263275450E-01  0.00000000000E+00 0.  1.
</event>
<event>
 5   1  0.2192208E+09  0.9118800E+02  0.7818608E-02  0.1180000E+00
       11   -1    0    0    0    0  0.00000000000E+00  0.00000000000E+00  0.10559998763E+01  0.10560000000E+01  0.51109989000E-03 0. -1.
     -623   -1    0    0    0    0  0.00000000000E+00  0.00000000000E+00  0.47855275298E-10  0.17124000000E+03  0.17124000000E+03 0.  1.
       11    1    1    2    0    0 -0.28021835899E-02 -0.10381172386E-01  0.89552850555E+00  0.89559320366E+00  0.51109989000E-03 0. -1.
     -623    1    1    2    0    0  0.33408045763E-02  0.12015638696E-01  0.74260440612E-04  0.17124000045E+03  0.17124000000E+03 0.  1.
       22    1    1    2    0    0 -0.53861538327E-03 -0.16344461574E-02  0.16039533937E+00  0.16040457105E+00  0.00000000000E+00 0.  1.
</event>
<event>
 5   1  0.2192208E+09  0.9118800E+02  0.7818608E-02  0.1180000E+00
       11   -1    0    0    0    0  0.00000000000E+00  0.00000000000E+00  0.10559998763E+01  0.10560000000E+01  0.51109989000E-03 0. -1.
     -623   -1    0    0    0    0  0.00000000000E+00  0.00000000000E+00  0.47855275298E-10  0.17124000000E+03  0.17124000000E+03 0. -1.
       11    1    1    2    0    0 -0.17084638015E-01  0.10638091630E-01  0.75938535054E+00  0.75965217415E+00  0.51109989000E-03 0. -1.
     -623    1    1    2    0    0  0.23500547678E-01 -0.15102705599E-01  0.37208039185E-03  0.17124000228E+03  0.17124000000E+03 0. -1.
       22    1    1    2    0    0 -0.64159211407E-02  0.44646213459E-02  0.29624296102E+00  0.29634606264E+00  0.00000000000E+00 0.  1.
</event>
<event>
 5   1  0.2192208E+09  0.9118800E+02  0.7818608E-02  0.1180000E+00
       11   -1    0    0    0    0  0.00000000000E+00  0.00000000000E+00  0.10559998763E+01  0.10560000000E+01  0.51109989000E-03 0. -1.
     -623   -1    0    0    0    0  0.00000000000E+00  0.00000000000E+00  0.47855275298E-10  0.17124000000E+03  0.17124000000E+03 0. -1.
       11    1    1    2    0    0  0.22592461069E-02  0.53909857304E-02  0.71871754968E+00  0.71874150037E+00  0.51109989000E-03 0. -1.
     -623    1    1    2    0    0 -0.16325819998E-02 -0.27053533007E-03  0.63290376884E-04  0.17124000001E+03  0.17124000000E+03 0. -1.
       22    1    1    2    0    0 -0.62666411228E-03 -0.51204504012E-02  0.33721903301E+00  0.33725848832E+00  0.00000000000E+00 0. -1.
</event>
<event>
 5   1  0.2192208E+09  0.9118800E+02  0.7818608E-02  0.1180000E+00
       11   -1    0    0    0    0  0.00000000000E+00  0.00000000000E+00  0.10559998763E+01  0.10560000000E+01  0.51109989000E-03 0.  1.
     -623   -1    0    0    0    0  0.00000000000E+00  0.00000000000E+00  0.47855275298E-10  0.17124000000E+03  0.17124000000E+03 0. -1.
       11    1    1    2    0    0 -0.50886478795E-02  0.14418186266E-02  0.58131196478E+00  0.58133624934E+00  0.51109989000E-03 0.  1.
     -623    1    1    2    0    0  0.91019969879E-03  0.59890661094E-02  0.10083109979E-03  0.17124000011E+03  0.17124000000E+03 0. -1.
       22    1    1    2    0    0  0.41784481836E-02 -0.74308847168E-02  0.47458707708E+00  0.47466364008E+00  0.00000000000E+00 0.  1.
</event>
<event>
 5   1  0.2192208E+09  0.9118800E+02  0.7818608E-02  0.1180000E+00
       11   -1    0    0    0    0  0.00000000000E+00  0.00000000000E+00  0.10559998763E+01  0.10560000000E+01  0.51109989000E-03 0.  1.
     -623   -1    0    0    0    0  0.00000000000E+00  0.00000000000E+00  0.47855275298E-10  0.17124000000E+03  0.17124000000E+03 0.  1.
       11    1    1    2    0    0  0.31154449186E-02 -0.22381193995E-01  0.65828680373E+00  0.65867473083E+00  0.51109989000E-03 0.  1.
     -623    1    1    2    0    0 -0.47817023388E-02  0.36158023793E-01  0.63410749465E-03  0.17124000389E+03  0.17124000000E+03 0.  1.
       22    1    1    2    0    0  0.16662528917E-02 -0.13776795555E-01  0.39707796566E+00  0.39732038370E+00  0.00000000000E+00 0.  1.
</event>
<event>
 5   1  0.2192208E+09  0.9118800E+02  0.7818608E-02  0.1180000E+00
       11   -1    0    0    0    0  0.00000000000E+00  0.00000000000E+00  0.10559998763E+01  0.10560000000E+01  0.51109989000E-03 0. -1.
     -623   -1    0    0    0    0  0.00000000000E+00  0.00000000000E+00  0.47855275298E-10  0.17124000000E+03  0.17124000000E+03 0. -1.
       11    1    1    2    0    0 -0.53835199370E-02  0.18667427918E-01  0.96519950858E+00  0.96539515626E+00  0.51109989000E-03 0. -1.
     -623    1    1    2    0    0  0.51147190089E-02 -0.22088790727E-01  0.26204609439E-03  0.17124000150E+03  0.17124000000E+03 0. -1.
       22    1    1    2    0    0  0.26880097502E-03  0.34213626062E-02  0.90538312003E-01  0.90603332810E-01  0.00000000000E+00 0. -1.
</event>
<event>
 5   1  0.2192208E+09  0.9118800E+02  0.7818608E-02  0.1180000E+00
       11   -1    0    0    0    0  0.00000000000E+00  0.00000000000E+00  0.10559998763E+01  0.10560000000E+01  0.51109989000E-03 0. -1.
     -623   -1    0    0    0    0  0.00000000000E+00  0.00000000000E+00  0.47855275298E-10  0.17124000000E+03  0.17124000000E+03 0. -1.
       11    1    1    2    0    0 -0.25470445825E-01  0.12790552055E-01  0.78867812720E+00  0.78919312679E+00  0.51109989000E-03 0. -1.
     -623    1    1    2    0    0  0.31432911184E-01 -0.16208922994E-01  0.60706642686E-03  0.17124000365E+03  0.17124000000E+03 0. -1.
       22    1    1    2    0    0 -0.59624652040E-02  0.34183708591E-02  0.26671467752E+00  0.26680321485E+00  0.00000000000E+00 0.  1.
</event>
<event>
 5   1  0.2192208E+09  0.9118800E+02  0.7818608E-02  0.1180000E+00
       11   -1    0    0    0    0  0.00000000000E+00  0.00000000000E+00  0.10559998763E+01  0.10560000000E+01  0.51109989000E-03 0.  1.
     -623   -1    0    0    0    0  0.00000000000E+00  0.00000000000E+00  0.47855275298E-10  0.17124000000E+03  0.17124000000E+03 0. -1.
       11    1    1    2    0    0 -0.23235664746E-01  0.68991764174E-02  0.93554466695E+00  0.93585873926E+00  0.51109989000E-03 0.  1.
     -623    1    1    2    0    0  0.26714038203E-01 -0.83575631493E-02  0.37545768310E-03  0.17124000229E+03  0.17124000000E+03 0. -1.
       22    1    1    2    0    0 -0.34783797480E-02  0.14583887000E-02  0.12008000032E+00  0.12013922132E+00  0.00000000000E+00 0. -1.
</event>
<event>
 5   1  0.2192208E+09  0.9118800E+02  0.7818608E-02  0.1180000E+00
       11   -1    0    0    0    0  0.00000000000E+00  0.00000000000E+00  0.10559998763E+01  0.10560000000E+01  0.51109989000E-03 0. -1.
     -623   -1    0    0    0    0  0.00000000000E+00  0.00000000000E+00  0.47855275298E-10  0.17124000000E+03  0.17124000000E+03 0. -1.
       11    1    1    2    0    0  0.80721530852E-03  0.14617785526E-02  0.94717968296E+00  0.94718129280E+00  0.51109989000E-03 0. -1.
     -623    1    1    2    0    0  0.20622372011E-05 -0.13365250455E-03  0.12600944191E-04  0.17124000000E+03  0.17124000000E+03 0. -1.
       22    1    1    2    0    0 -0.80927754574E-03 -0.13281260470E-02  0.10880760100E+00  0.10881871569E+00  0.00000000000E+00 0.  1.
</event>
<event>
 5   1  0.2192208E+09  0.9118800E+02  0.7818608E-02  0.1180000E+00
       11   -1    0    0    0    0  0.00000000000E+00  0.00000000000E+00  0.10559998763E+01  0.10560000000E+01  0.51109989000E-03 0.  1.
     -623   -1    0    0    0    0  0.00000000000E+00  0.00000000000E+00  0.47855275298E-10  0.17124000000E+03  0.17124000000E+03 0.  1.
       11    1    1    2    0    0  0.83822888582E-03 -0.26899388137E-02  0.82022939086E+00  0.82023438921E+00  0.51109989000E-03 0.  1.
     -623    1    1    2    0    0  0.52771616701E-04  0.19157359004E-03  0.19796292978E-04  0.17124000000E+03  0.17124000000E+03 0.  1.
       22    1    1    2    0    0 -0.89100050276E-03  0.24983652228E-02  0.23575069388E+00  0.23576561533E+00  0.00000000000E+00 0.  1.
</event>
<event>
 5   1  0.2192208E+09  0.9118800E+02  0.7818608E-02  0.1180000E+00
       11   -1    0    0    0    0  0.00000000000E+00  0.00000000000E+00  0.10559998763E+01  0.10560000000E+01  0.51109989000E-03 0.  1.
     -623   -1    0    0    0    0  0.00000000000E+00  0.00000000000E+00  0.47855275298E-10  0.17124000000E+03  0.17124000000E+03 0. -1.
       11    1    1    2    0    0  0.18858496659E-02  0.43175700191E-03  0.50034686203E+00  0.50035086330E+00  0.51109989000E-03 0.  1.
     -623    1    1    2    0    0 -0.22162526638E-02 -0.97060285941E-02  0.81668614755E-04  0.17124000029E+03  0.17124000000E+03 0. -1.
       22    1    1    2    0    0  0.33040300169E-03  0.92742716086E-02  0.55557134751E+00  0.55564884905E+00  0.00000000000E+00 0.  1.
</event>
<event>
 5   1  0.2192208E+09  0.9118800E+02  0.7818608E-02  0.1180000E+00
       11   -1    0    0    0    0  0.00000000000E+00  0.00000000000E+00  0.10559998763E+01  0.10560000000E+01  0.51109989000E-03 0.  1.
     -623   -1    0    0    0    0  0.00000000000E+00  0.00000000000E+00  0.47855275298E-10  0.17124000000E+03  0.17124000000E+03 0.  1.
       11    1    1    2    0    0  0.12363418702E-01 -0.10489022845E-01  0.83637900249E+00  0.83653629374E+00  0.51109989000E-03 0.  1.
     -623    1    1    2    0    0 -0.15532050024E-01  0.13340482083E-01  0.19979466617E-03  0.17124000122E+03  0.17124000000E+03 0.  1.
       22    1    1    2    0    0  0.31686774039E-02 -0.28514988178E-02  0.21942421165E+00  0.21946561512E+00  0.00000000000E+00 0.  1.
</event>
<event>
 5   1  0.2192208E+09  0.9118800E+02  0.7818608E-02  0.1180000E+00
       11   -1    0    0    0    0  0.00000000000E+00  0.00000000000E+00  0.10559998763E+01  0.10560000000E+01  0.51109989000E-03 0. -1.
     -623   -1    0    0    0    0  0.00000000000E+00  0.00000000000E+00  0.47855275298E-10  0.17124000000E+03  0.17124000000E+03 0.  1.
       11    1    1    2    0    0 -0.11957710126E-03  0.74932341143E-02  0.71788297750E+00  0.71792227536E+00  0.51109989000E-03 0. -1.
     -623    1    1    2    0    0  0.13866526261E-02 -0.15750677762E-01  0.14313743635E-03  0.17124000073E+03  0.17124000000E+03 0.  1.
       22    1    1    2    0    0 -0.12670755182E-02  0.82574435725E-02  0.33797375639E+00  0.33807698955E+00  0.00000000000E+00 0. -1.
</event>
<event>
 5   1  0.2192208E+09  0.9118800E+02  0.7818608E-02  0.1180000E+00
       11   -1    0    0    0    0  0.00000000000E+00  0.00000000000E+00  0.10559998763E+01  0.10560000000E+01  0.51109989000E-03 0. -1.
     -623   -1    0    0    0    0  0.00000000000E+00  0.00000000000E+00  0.47855275298E-10  0.17124000000E+03  0.17124000000E+03 0.  1.
       11    1    1    2    0    0  0.29655625812E-02  0.10023238123E-01  0.84318170195E+00  0.84324664458E+00  0.51109989000E-03 0. -1.
     -623    1    1    2    0    0 -0.33631496291E-02 -0.13723687740E-01  0.97957277563E-04  0.17124000058E+03  0.17124000000E+03 0.  1.
       22    1    1    2    0    0  0.39758707724E-03  0.37004497364E-02  0.21272022632E+00  0.21275278163E+00  0.00000000000E+00 0. -1.
</event>
<event>
 5   1  0.2192208E+09  0.9118800E+02  0.7818608E-02  0.1180000E+00
       11   -1    0    0    0    0  0.00000000000E+00  0.00000000000E+00  0.10559998763E+01  0.10560000000E+01  0.51109989000E-03 0. -1.
     -623   -1    0    0    0    0  0.00000000000E+00  0.00000000000E+00  0.47855275298E-10  0.17124000000E+03  0.17124000000E+03 0. -1.
       11    1    1    2    0    0  0.25552153957E-02 -0.39688067927E-02  0.74239806931E+00  0.74241325089E+00  0.51109989000E-03 0. -1.
     -623    1    1    2    0    0 -0.15113809818E-02  0.71601273486E-02  0.33190904775E-04  0.17124000016E+03  0.17124000000E+03 0. -1.
       22    1    1    2    0    0 -0.10438343927E-02 -0.31913206567E-02  0.31356863100E+00  0.31358660760E+00  0.00000000000E+00 0. -1.
</event>
<event>
 5   1  0.2192208E+09  0.9118800E+02  0.7818608E-02  0.1180000E+00
       11   -1    0    0    0    0  0.00000000000E+00  0.00000000000E+00  0.10559998763E+01  0.10560000000E+01  0.51109989000E-03 0. -1.
     -623   -1    0    0    0    0  0.00000000000E+00  0.00000000000E+00  0.47855275298E-10  0.17124000000E+03  0.17124000000E+03 0.  1.
       11    1    1    2    0    0 -0.19489590884E-01  0.10603815901E-01  0.43560482389E+00  0.43616981656E+00  0.51109989000E-03 0. -1.
     -623    1    1    2    0    0 -0.13506803753E-01  0.56480844427E-01  0.50999678419E-02  0.17124000992E+03  0.17124000000E+03 0.  1.
       22    1    1    2    0    0  0.32996394637E-01 -0.67084660329E-01  0.61529508467E+00  0.61982026018E+00  0.00000000000E+00 0. -1.
</event>
<event>
 5   1  0.2192208E+09  0.9118800E+02  0.7818608E-02  0.1180000E+00
       11   -1    0    0    0    0  0.00000000000E+00  0.00000000000E+00  0.10559998763E+01  0.10560000000E+01  0.51109989000E-03 0.  1.
     -623   -1    0    0    0    0  0.00000000000E+00  0.00000000000E+00  0.47855275298E-10  0.17124000000E+03  0.17124000000E+03 0.  1.
       11    1    1    2    0    0 -0.70446844333E-02  0.50517163492E-03  0.50595575169E+00  0.50600530301E+00  0.51109989000E-03 0.  1.
     -623    1    1    2    0    0  0.13483657939E-01 -0.13524190719E-01  0.24230592330E-03  0.17124000107E+03  0.17124000000E+03 0.  1.
       22    1    1    2    0    0 -0.64389734788E-02  0.13019019057E-01  0.54980181666E+00  0.54999362981E+00  0.00000000000E+00 0. -1.
</event>
<event>
 5   1  0.2192208E+09  0.9118800E+02  0.7818608E-02  0.1180000E+00
       11   -1    0    0    0    0  0.00000000000E+00  0.00000000000E+00  0.10559998763E+01  0.10560000000E+01  0.51109989000E-03 0.  1.
     -623   -1    0    0    0    0  0.00000000000E+00  0.00000000000E+00  0.47855275298E-10  0.17124000000E+03  0.17124000000E+03 0.  1.
       11    1    1    2    0    0  0.17231589170E-02 -0.12809465317E-02  0.99202114711E+00  0.99202360236E+00  0.51109989000E-03 0.  1.
     -623    1    1    2    0    0 -0.11625155675E-02  0.60077166400E-03  0.84091238530E-05  0.17124000001E+03  0.17124000000E+03 0.  1.
       22    1    1    2    0    0 -0.56064328353E-03  0.68017483364E-03  0.63970380038E-01  0.63976452551E-01  0.00000000000E+00 0.  1.
</event>
<event>
 5   1  0.2192208E+09  0.9118800E+02  0.7818608E-02  0.1180000E+00
       11   -1    0    0    0    0  0.00000000000E+00  0.00000000000E+00  0.10559998763E+01  0.10560000000E+01  0.51109989000E-03 0. -1.
     -623   -1    0    0    0    0  0.00000000000E+00  0.00000000000E+00  0.47855275298E-10  0.17124000000E+03  0.17124000000E+03 0.  1.
       11    1    1    2    0    0 -0.14708497907E-04  0.10925443607E-02  0.96559226909E+00  0.96559302256E+00  0.51109989000E-03 0. -1.
     -623    1    1    2    0    0  0.14639527384E-04  0.32856369815E-04  0.76346953390E-05  0.17124000000E+03  0.17124000000E+03 0.  1.
       22    1    1    2    0    0  0.68970541676E-07 -0.11254007305E-02  0.90399971212E-01  0.90406976069E-01  0.00000000000E+00 0.  1.
</event>
<event>
 5   1  0.2192208E+09  0.9118800E+02  0.7818608E-02  0.1180000E+00
       11   -1    0    0    0    0  0.00000000000E+00  0.00000000000E+00  0.10559998763E+01  0.10560000000E+01  0.51109989000E-03 0. -1.
     -623   -1    0    0    0    0  0.00000000000E+00  0.00000000000E+00  0.47855275298E-10  0.17124000000E+03  0.17124000000E+03 0.  1.
       11    1    1    2    0    0 -0.30490764446E-04 -0.24857139379E-03  0.10051734317E+01  0.10051735929E+01  0.51109989000E-03 0. -1.
     -623    1    1    2    0    0 -0.45389857698E-03 -0.27817925929E-03  0.50763087185E-05  0.17124000000E+03  0.17124000000E+03 0.  1.
       22    1    1    2    0    0  0.48438932790E-03  0.52675064478E-03  0.50821336836E-01  0.50826374817E-01  0.00000000000E+00 0. -1.
</event>
<event>
 5   1  0.2192208E+09  0.9118800E+02  0.7818608E-02  0.1180000E+00
       11   -1    0    0    0    0  0.00000000000E+00  0.00000000000E+00  0.10559998763E+01  0.10560000000E+01  0.51109989000E-03 0.  1.
     -623   -1    0    0    0    0  0.00000000000E+00  0.00000000000E+00  0.47855275298E-10  0.17124000000E+03  0.17124000000E+03 0.  1.
       11    1    1    2    0    0 -0.43620492445E-02  0.40435158339E-02  0.31719368199E+00  0.31724985518E+00  0.51109989000E-03 0.  1.
     -623    1    1    2    0    0  0.21039755351E-01 -0.13255124384E-01  0.30358182313E-03  0.17124000181E+03  0.17124000000E+03 0.  1.
       22    1    1    2    0    0 -0.16677705872E-01  0.92116084024E-02  0.73850260079E+00  0.73874832722E+00  0.00000000000E+00 0.  1.
</event>
<event>
 5   1  0.2192208E+09  0.9118800E+02  0.7818608E-02  0.1180000E+00
       11   -1    0    0    0    0  0.00000000000E+00  0.00000000000E+00  0.10559998763E+01  0.10560000000E+01  0.51109989000E-03 0. -1.
     -623   -1    0    0    0    0  0.00000000000E+00  0.00000000000E+00  0.47855275298E-10  0.17124000000E+03  0.17124000000E+03 0.  1.
       11    1    1    2    0    0 -0.19268786187E-02 -0.51075882819E-02  0.81935279642E+00  0.81937114090E+00  0.51109989000E-03 0. -1.
     -623    1    1    2    0    0  0.12127238231E-02  0.75512128582E-02  0.32087155445E-04  0.17124000017E+03  0.17124000000E+03 0.  1.
       22    1    1    2    0    0  0.71415474125E-03 -0.24436249145E-02  0.23661504008E+00  0.23662873560E+00  0.00000000000E+00 0. -1.
</event>
<event>
 5   1  0.2192208E+09  0.9118800E+02  0.7818608E-02  0.1180000E+00
       11   -1    0    0    0    0  0.00000000000E+00  0.00000000000E+00  0.10559998763E+01  0.10560000000E+01  0.51109989000E-03 0. -1.
     -623   -1    0    0    0    0  0.00000000000E+00  0.00000000000E+00  0.47855275298E-10  0.17124000000E+03  0.17124000000E+03 0.  1.
       11    1    1    2    0    0 -0.56935824968E-03  0.57315365588E-02  0.94600443681E+00  0.94602210881E+00  0.51109989000E-03 0. -1.
     -623    1    1    2    0    0  0.17472058236E-02 -0.69701037900E-02  0.30981599040E-04  0.17124000015E+03  0.17124000000E+03 0.  1.
       22    1    1    2    0    0 -0.11778476163E-02  0.12385674005E-02  0.10996448359E+00  0.10997776605E+00  0.00000000000E+00 0. -1.
</event>
<event>
 5   1  0.2192208E+09  0.9118800E+02  0.7818608E-02  0.1180000E+00
       11   -1    0    0    0    0  0.00000000000E+00  0.00000000000E+00  0.10559998763E+01  0.10560000000E+01  0.51109989000E-03 0.  1.
     -623   -1    0    0    0    0  0.00000000000E+00  0.00000000000E+00  0.47855275298E-10  0.17124000000E+03  0.17124000000E+03 0. -1.
       11    1    1    2    0    0 -0.15009047625E-02 -0.15242174089E-02  0.83447994140E+00  0.83448283972E+00  0.51109989000E-03 0.  1.
     -623    1    1    2    0    0 -0.83072634379E-03 -0.13574825954E-02  0.33799220703E-04  0.17124000001E+03  0.17124000000E+03 0. -1.
       22    1    1    2    0    0  0.23316311201E-02  0.28817000268E-02  0.22148615323E+00  0.22151717037E+00  0.00000000000E+00 0. -1.
</event>
<event>
 5   1  0.2192208E+09  0.9118800E+02  0.7818608E-02  0.1180000E+00
       11   -1    0    0    0    0  0.00000000000E+00  0.00000000000E+00  0.10559998763E+01  0.10560000000E+01  0.51109989000E-03 0. -1.
     -623   -1    0    0    0    0  0.00000000000E+00  0.00000000000E+00  0.47855275298E-10  0.17124000000E+03  0.17124000000E+03 0. -1.
       11    1    1    2    0    0  0.52909890192E-02  0.22028114630E-01  0.97354980983E+00  0.97381349643E+00  0.51109989000E-03 0. -1.
     -623    1    1    2    0    0 -0.57830157682E-02 -0.24025865890E-01  0.29110395371E-03  0.17124000178E+03  0.17124000000E+03 0. -1.
       22    1    1    2    0    0  0.49202857186E-03  0.19977588337E-02  0.82159295351E-01  0.82185053052E-01  0.00000000000E+00 0.  1.
</event>
<event>
 5   1  0.2192208E+09  0.9118800E+02  0.7818608E-02  0.1180000E+00
       11   -1    0    0    0    0  0.00000000000E+00  0.00000000000E+00  0.10559998763E+01  0.10560000000E+01  0.51109989000E-03 0. -1.
     -623   -1    0    0    0    0  0.00000000000E+00  0.00000000000E+00  0.47855275298E-10  0.17124000000E+03  0.17124000000E+03 0. -1.
       11    1    1    2    0    0 -0.88580490358E-02 -0.11108313429E-01  0.28377857882E+00  0.28413447992E+00  0.51109989000E-03 0. -1.
     -623    1    1    2    0    0 -0.21496227699E-02 -0.16439536054E-02  0.53965488862E-03  0.17124000002E+03  0.17124000000E+03 0. -1.
       22    1    1    2    0    0  0.11007671806E-01  0.12752267034E-01  0.77168164261E+00  0.77186549780E+00  0.00000000000E+00 0. -1.
</event>
<event>
 5   1  0.2192208E+09  0.9118800E+02  0.7818608E-02  0.1180000E+00
       11   -1    0    0    0    0  0.00000000000E+00  0.00000000000E+00  0.10559998763E+01  0.10560000000E+01  0.51109989000E-03 0.  1.
     -623   -1    0    0    0    0  0.00000000000E+00  0.00000000000E+00  0.47855275298E-10  0.17124000000E+03  0.17124000000E+03 0.  1.
       11    1    1    2    0    0  0.24838045200E-02 -0.69850787925E-03  0.92099512566E+00  0.92099888161E+00  0.51109989000E-03 0.  1.
     -623    1    1    2    0    0 -0.20266928156E-02  0.23621062135E-02  0.14685063987E-04  0.17124000003E+03  0.17124000000E+03 0.  1.
       22    1    1    2    0    0 -0.45711170070E-03 -0.16635983386E-02  0.13499006757E+00  0.13500109204E+00  0.00000000000E+00 0. -1.
</event>
<event>
 5   1  0.2192208E+09  0.9118800E+02  0.7818608E-02  0.1180000E+00
       11   -1    0    0    0    0  0.00000000000E+00  0.00000000000E+00  0.10559998763E+01  0.10560000000E+01  0.51109989000E-03 0.  1.
     -623   -1    0    0    0    0  0.00000000000E+00  0.00000000000E+00  0.47855275298E-10  0.17124000000E+03  0.17124000000E+03 0.  1.
       11    1    1    2    0    0  0.41499656508E-02 -0.10104353056E-01  0.96436888353E+00  0.96443088136E+00  0.51109989000E-03 0.  1.
     -623    1    1    2    0    0 -0.46084746496E-02  0.11049856978E-01  0.68322325137E-04  0.17124000042E+03  0.17124000000E+03 0.  1.
       22    1    1    2    0    0  0.45850254379E-03 -0.94548844520E-03  0.91561191502E-01  0.91567221003E-01  0.00000000000E+00 0.  1.
</event>
<event>
 5   1  0.2192208E+09  0.9118800E+02  0.7818608E-02  0.1180000E+00
       11   -1    0    0    0    0  0.00000000000E+00  0.00000000000E+00  0.10559998763E+01  0.10560000000E+01  0.51109989000E-03 0.  1.
     -623   -1    0    0    0    0  0.00000000000E+00  0.00000000000E+00  0.47855275298E-10  0.17124000000E+03  0.17124000000E+03 0.  1.
       11    1    1    2    0    0  0.44852609469E-02  0.15538567396E-01  0.85255995656E+00  0.85271349550E+00  0.51109989000E-03 0.  1.
     -623    1    1    2    0    0 -0.61490622843E-02 -0.18718558577E-01  0.18623237513E-03  0.17124000113E+03  0.17124000000E+03 0.  1.
       22    1    1    2    0    0  0.16638029059E-02  0.31799959563E-02  0.20325395674E+00  0.20328564028E+00  0.00000000000E+00 0.  1.
</event>
<event>
 5   1  0.2192208E+09  0.9118800E+02  0.7818608E-02  0.1180000E+00
       11   -1    0    0    0    0  0.00000000000E+00  0.00000000000E+00  0.10559998763E+01  0.10560000000E+01  0.51109989000E-03 0. -1.
     -623   -1    0    0    0    0  0.00000000000E+00  0.00000000000E+00  0.47855275298E-10  0.17124000000E+03  0.17124000000E+03 0. -1.
       11    1    1    2    0    0  0.10304275006E-01  0.13544242340E-01  0.93666088526E+00  0.93681561675E+00  0.51109989000E-03 0. -1.
     -623    1    1    2    0    0 -0.13914018525E-01 -0.14744138862E-01  0.21652836742E-03  0.17124000120E+03  0.17124000000E+03 0. -1.
       22    1    1    2    0    0  0.36097435685E-02  0.11998965735E-02  0.11912246649E+00  0.11918318683E+00  0.00000000000E+00 0.  1.
</event>
<event>
 5   1  0.2192208E+09  0.9118800E+02  0.7818608E-02  0.1180000E+00
       11   -1    0    0    0    0  0.00000000000E+00  0.00000000000E+00  0.10559998763E+01  0.10560000000E+01  0.51109989000E-03 0.  1.
     -623   -1    0    0    0    0  0.00000000000E+00  0.00000000000E+00  0.47855275298E-10  0.17124000000E+03  0.17124000000E+03 0.  1.
       11    1    1    2    0    0 -0.69930398003E-02  0.10621529968E-01  0.85957957516E+00  0.85967379090E+00  0.51109989000E-03 0.  1.
     -623    1    1    2    0    0  0.83715719502E-02 -0.12979107110E-01  0.11378486055E-03  0.17124000070E+03  0.17124000000E+03 0.  1.
       22    1    1    2    0    0 -0.13785342991E-02  0.23575804744E-02  0.19630678742E+00  0.19632578366E+00  0.00000000000E+00 0.  1.
</event>
<event>
 5   1  0.2192208E+09  0.9118800E+02  0.7818608E-02  0.1180000E+00
       11   -1    0    0    0    0  0.00000000000E+00  0.00000000000E+00  0.10559998763E+01  0.10560000000E+01  0.51109989000E-03 0.  1.
     -623   -1    0    0    0    0  0.00000000000E+00  0.00000000000E+00  0.47855275298E-10  0.17124000000E+03  0.17124000000E+03 0. -1.
       11    1    1    2    0    0 -0.20587956036E-01 -0.78109519221E-02  0.89415980834E+00  0.89443104764E+00  0.51109989000E-03 0.  1.
     -623    1    1    2    0    0  0.22635764477E-01  0.94620696448E-02  0.29428917001E-03  0.17124000176E+03  0.17124000000E+03 0. -1.
       22    1    1    2    0    0 -0.20478088427E-02 -0.16511178906E-02  0.16154579758E+00  0.16156721335E+00  0.00000000000E+00 0. -1.
</event>
<event>
 5   1  0.2192208E+09  0.9118800E+02  0.7818608E-02  0.1180000E+00
       11   -1    0    0    0    0  0.00000000000E+00  0.00000000000E+00  0.10559998763E+01  0.10560000000E+01  0.51109989000E-03 0. -1.
     -623   -1    0    0    0    0  0.00000000000E+00  0.00000000000E+00  0.47855275298E-10  0.17124000000E+03  0.17124000000E+03 0.  1.
       11    1    1    2    0    0  0.40870098180E-03 -0.46668391931E-02  0.63303048599E+00  0.63304802648E+00  0.51109989000E-03 0. -1.
     -623    1    1    2    0    0 -0.60342702063E-03 -0.40274448237E-03  0.47846826486E-04  0.17124000000E+03  0.17124000000E+03 0.  1.
       22    1    1    2    0    0  0.19472604315E-03  0.50695836783E-02  0.42292155111E+00  0.42295197953E+00  0.00000000000E+00 0.  1.
</event>
<event>
 5   1  0.2192208E+09  0.9118800E+02  0.7818608E-02  0.1180000E+00
       11   -1    0    0    0    0  0.00000000000E+00  0.00000000000E+00  0.10559998763E+01  0.10560000000E+01  0.51109989000E-03 0.  1.
     -623   -1    0    0    0    0  0.00000000000E+00  0.00000000000E+00  0.47855275298E-10  0.17124000000E+03  0.17124000000E+03 0. -1.
       11    1    1    2    0    0 -0.15704728916E-02  0.43013856280E-02  0.86089803559E+00  0.86091036537E+00  0.51109989000E-03 0.  1.
     -623    1    1    2    0    0 -0.65684986352E-05 -0.52533792637E-04  0.64855232163E-04  0.17124000000E+03  0.17124000000E+03 0. -1.
       22    1    1    2    0    0  0.15770413902E-02 -0.42488518353E-02  0.19503698589E+00  0.19508963495E+00  0.00000000000E+00 0. -1.
</event>
<event>
 5   1  0.2192208E+09  0.9118800E+02  0.7818608E-02  0.1180000E+00
       11   -1    0    0    0    0  0.00000000000E+00  0.00000000000E+00  0.10559998763E+01  0.10560000000E+01  0.51109989000E-03 0.  1.
     -623   -1    0    0    0    0  0.00000000000E+00  0.00000000000E+00  0.47855275298E-10  0.17124000000E+03  0.17124000000E+03 0. -1.
       11    1    1    2    0    0  0.18820666872E-02  0.11872885648E-01  0.71412958986E+00  0.71423094300E+00  0.51109989000E-03 0.  1.
     -623    1    1    2    0    0 -0.24879027802E-02 -0.17508096366E-01  0.14914068294E-03  0.17124000091E+03  0.17124000000E+03 0. -1.
       22    1    1    2    0    0  0.60583798505E-03  0.56352240337E-02  0.34172194880E+00  0.34176894692E+00  0.00000000000E+00 0.  1.
</event>
<event>
 5   1  0.2192208E+09  0.9118800E+02  0.7818608E-02  0.1180000E+00
       11   -1    0    0    0    0  0.00000000000E+00  0.00000000000E+00  0.10559998763E+01  0.10560000000E+01  0.51109989000E-03 0.  1.
     -623   -1    0    0    0    0  0.00000000000E+00  0.00000000000E+00  0.47855275298E-10  0.17124000000E+03  0.17124000000E+03 0.  1.
       11    1    1    2    0    0 -0.63378632578E-03 -0.14501785367E-02  0.96640738690E+00  0.96640881793E+00  0.51109989000E-03 0.  1.
     -623    1    1    2    0    0 -0.51613655965E-03 -0.20799285414E-02  0.78280984004E-04  0.17124000001E+03  0.17124000000E+03 0.  1.
       22    1    1    2    0    0  0.11499228863E-02  0.35301070816E-02  0.89514210271E-01  0.89591170430E-01  0.00000000000E+00 0. -1.
</event>
<event>
 5   1  0.2192208E+09  0.9118800E+02  0.7818608E-02  0.1180000E+00
       11   -1    0    0    0    0  0.00000000000E+00  0.00000000000E+00  0.10559998763E+01  0.10560000000E+01  0.51109989000E-03 0. -1.
     -623   -1    0    0    0    0  0.00000000000E+00  0.00000000000E+00  0.47855275298E-10  0.17124000000E+03  0.17124000000E+03 0.  1.
       11    1    1    2    0    0  0.35257857867E-03 -0.87013893060E-03  0.97835282943E+00  0.97835341341E+00  0.51109989000E-03 0. -1.
     -623    1    1    2    0    0 -0.56058432102E-04 -0.14263782065E-03  0.76319582318E-05  0.17124000000E+03  0.17124000000E+03 0.  1.
       22    1    1    2    0    0 -0.29652014614E-03  0.10127767524E-02  0.77639423138E-01  0.77646594685E-01  0.00000000000E+00 0. -1.
</event>
<event>
 5   1  0.2192208E+09  0.9118800E+02  0.7818608E-02  0.1180000E+00
       11   -1    0    0    0    0  0.00000000000E+00  0.00000000000E+00  0.10559998763E+01  0.10560000000E+01  0.51109989000E-03 0. -1.
     -623   -1    0    0    0    0  0.00000000000E+00  0.00000000000E+00  0.47855275298E-10  0.17124000000E+03  0.17124000000E+03 0.  1.
       11    1    1    2    0    0 -0.66042908698E-03  0.28639160974E-02  0.97425438573E+00  0.97425895301E+00  0.51109989000E-03 0. -1.
     -623    1    1    2    0    0  0.12202440419E-02 -0.18840231219E-02  0.12249077744E-04  0.17124000001E+03  0.17124000000E+03 0.  1.
       22    1    1    2    0    0 -0.55981497179E-03 -0.97989294943E-03  0.81733256154E-01  0.81741046877E-01  0.00000000000E+00 0.  1.
</event>
<event>
 5   1  0.2192208E+09  0.9118800E+02  0.7818608E-02  0.1180000E+00
       11   -1    0    0    0    0  0.00000000000E+00  0.00000000000E+00  0.10559998763E+01  0.10560000000E+01  0.51109989000E-03 0. -1.
     -623   -1    0    0    0    0  0.00000000000E+00  0.00000000000E+00  0.47855275298E-10  0.17124000000E+03  0.17124000000E+03 0. -1.
       11    1    1    2    0    0  0.53889102444E-02 -0.67422674998E-02  0.10055533406E+01  0.10055905134E+01  0.51109989000E-03 0. -1.
     -623    1    1    2    0    0 -0.55014846713E-02  0.73107616440E-02  0.40624982192E-04  0.17124000024E+03  0.17124000000E+03 0. -1.
       22    1    1    2    0    0  0.11257404974E-03 -0.56849364302E-03  0.50405838355E-01  0.50409169783E-01  0.00000000000E+00 0. -1.
</event>
<event>
 5   1  0.2192208E+09  0.9118800E+02  0.7818608E-02  0.1180000E+00
       11   -1    0    0    0    0  0.00000000000E+00  0.00000000000E+00  0.10559998763E+01  0.10560000000E+01  0.51109989000E-03 0. -1.
     -623   -1    0    0    0    0  0.00000000000E+00  0.00000000000E+00  0.47855275298E-10  0.17124000000E+03  0.17124000000E+03 0.  1.
       11    1    1    2    0    0 -0.64265932505E-04  0.71360337550E-03  0.99977329005E+00  0.99977367743E+00  0.51109989000E-03 0. -1.
     -623    1    1    2    0    0 -0.71155882531E-04 -0.11532338304E-03  0.36099906626E-05  0.17124000000E+03  0.17124000000E+03 0.  1.
       22    1    1    2    0    0  0.13542182230E-03 -0.59827998068E-03  0.56223084161E-01  0.56226430356E-01  0.00000000000E+00 0. -1.
</event>
<event>
 5   1  0.2192208E+09  0.9118800E+02  0.7818608E-02  0.1180000E+00
       11   -1    0    0    0    0  0.00000000000E+00  0.00000000000E+00  0.10559998763E+01  0.10560000000E+01  0.51109989000E-03 0.  1.
     -623   -1    0    0    0    0  0.00000000000E+00  0.00000000000E+00  0.47855275298E-10  0.17124000000E+03  0.17124000000E+03 0.  1.
       11    1    1    2    0    0 -0.14849618300E-02 -0.22555714255E-02  0.83082264725E+00  0.83082719330E+00  0.51109989000E-03 0.  1.
     -623    1    1    2    0    0 -0.14316075872E-04 -0.36834925651E-03  0.24703244794E-04  0.17124000000E+03  0.17124000000E+03 0.  1.
       22    1    1    2    0    0  0.14992779058E-02  0.26239206789E-02  0.22515251696E+00  0.22517279740E+00  0.00000000000E+00 0.  1.
</event>
<event>
 5   1  0.2192208E+09  0.9118800E+02  0.7818608E-02  0.1180000E+00
       11   -1    0    0    0    0  0.00000000000E+00  0.00000000000E+00  0.10559998763E+01  0.10560000000E+01  0.51109989000E-03 0.  1.
     -623   -1    0    0    0    0  0.00000000000E+00  0.00000000000E+00  0.47855275298E-10  0.17124000000E+03  0.17124000000E+03 0.  1.
       11    1    1    2    0    0  0.19279584171E-01 -0.11409841437E-01  0.95160780702E+00  0.95187161238E+00  0.51109989000E-03 0.  1.
     -623    1    1    2    0    0 -0.21481499517E-01  0.12597212466E-01  0.29554837681E-03  0.17124000181E+03  0.17124000000E+03 0.  1.
       22    1    1    2    0    0  0.22019025521E-02 -0.11873635261E-02  0.10409589217E+00  0.10412594765E+00  0.00000000000E+00 0.  1.
</event>
<event>
 5   1  0.2192208E+09  0.9118800E+02  0.7818608E-02  0.1180000E+00
       11   -1    0    0    0    0  0.00000000000E+00  0.00000000000E+00  0.10559998763E+01  0.10560000000E+01  0.51109989000E-03 0. -1.
     -623   -1    0    0    0    0  0.00000000000E+00  0.00000000000E+00  0.47855275298E-10  0.17124000000E+03  0.17124000000E+03 0.  1.
       11    1    1    2    0    0 -0.44992392608E-03  0.50689794570E-02  0.62712786954E+00  0.62714872475E+00  0.51109989000E-03 0. -1.
     -623    1    1    2    0    0 -0.10772875715E-03  0.14351605449E-03  0.52773222048E-04  0.17124000000E+03  0.17124000000E+03 0.  1.
       22    1    1    2    0    0  0.55765268332E-03 -0.52124955116E-02  0.42881923452E+00  0.42885127607E+00  0.00000000000E+00 0. -1.
</event>
<event>
 5   1  0.2192208E+09  0.9118800E+02  0.7818608E-02  0.1180000E+00
       11   -1    0    0    0    0  0.00000000000E+00  0.00000000000E+00  0.10559998763E+01  0.10560000000E+01  0.51109989000E-03 0.  1.
     -623   -1    0    0    0    0  0.00000000000E+00  0.00000000000E+00  0.47855275298E-10  0.17124000000E+03  0.17124000000E+03 0.  1.
       11    1    1    2    0    0 -0.62125846495E-02 -0.19370708990E-01  0.93024871900E+00  0.93047125748E+00  0.51109989000E-03 0.  1.
     -623    1    1    2    0    0 -0.66375932478E-04  0.22231901102E-01  0.41364906603E-03  0.17124000144E+03  0.17124000000E+03 0.  1.
       22    1    1    2    0    0  0.62789605820E-02 -0.28611920967E-02  0.12533750757E+00  0.12552729811E+00  0.00000000000E+00 0.  1.
</event>
<event>
 5   1  0.2192208E+09  0.9118800E+02  0.7818608E-02  0.1180000E+00
       11   -1    0    0    0    0  0.00000000000E+00  0.00000000000E+00  0.10559998763E+01  0.10560000000E+01  0.51109989000E-03 0.  1.
     -623   -1    0    0    0    0  0.00000000000E+00  0.00000000000E+00  0.47855275298E-10  0.17124000000E+03  0.17124000000E+03 0. -1.
       11    1    1    2    0    0 -0.22319834429E-02 -0.13996969450E-02  0.76312779996E+00  0.76313251876E+00  0.51109989000E-03 0.  1.
     -623    1    1    2    0    0  0.23560983741E-02  0.45735870146E-02  0.21897450728E-04  0.17124000008E+03  0.17124000000E+03 0. -1.
       22    1    1    2    0    0 -0.12411494065E-03 -0.31738900881E-02  0.29285018321E+00  0.29286740820E+00  0.00000000000E+00 0.  1.
</event>
<event>
 5   1  0.2192208E+09  0.9118800E+02  0.7818608E-02  0.1180000E+00
       11   -1    0    0    0    0  0.00000000000E+00  0.00000000000E+00  0.10559998763E+01  0.10560000000E+01  0.51109989000E-03 0.  1.
     -623   -1    0    0    0    0  0.00000000000E+00  0.00000000000E+00  0.47855275298E-10  0.17124000000E+03  0.17124000000E+03 0.  1.
       11    1    1    2    0    0  0.26396814322E-03 -0.10680486650E-02  0.88411302385E+00  0.88411385611E+00  0.51109989000E-03 0.  1.
     -623    1    1    2    0    0 -0.10003072043E-02 -0.68085767245E-03  0.11187794288E-04  0.17124000000E+03  0.17124000000E+03 0.  1.
       22    1    1    2    0    0  0.73633909289E-03  0.17489063591E-02  0.17187569835E+00  0.17188617324E+00  0.00000000000E+00 0. -1.
</event>
<event>
 5   1  0.2192208E+09  0.9118800E+02  0.7818608E-02  0.1180000E+00
       11   -1    0    0    0    0  0.00000000000E+00  0.00000000000E+00  0.10559998763E+01  0.10560000000E+01  0.51109989000E-03 0. -1.
     -623   -1    0    0    0    0  0.00000000000E+00  0.00000000000E+00  0.47855275298E-10  0.17124000000E+03  0.17124000000E+03 0. -1.
       11    1    1    2    0    0  0.73605325297E-02  0.86127770433E-02  0.60333310482E+00  0.60343968544E+00  0.51109989000E-03 0. -1.
     -623    1    1    2    0    0 -0.12713647135E-01 -0.14003245241E-01  0.17126898200E-03  0.17124000104E+03  0.17124000000E+03 0. -1.
       22    1    1    2    0    0  0.53531140269E-02  0.53904675599E-02  0.45249545448E+00  0.45255922187E+00  0.00000000000E+00 0. -1.
</event>
<event>
 5   1  0.2192208E+09  0.9118800E+02  0.7818608E-02  0.1180000E+00
       11   -1    0    0    0    0  0.00000000000E+00  0.00000000000E+00  0.10559998763E+01  0.10560000000E+01  0.51109989000E-03 0.  1.
     -623   -1    0    0    0    0  0.00000000000E+00  0.00000000000E+00  0.47855275298E-10  0.17124000000E+03  0.17124000000E+03 0.  1.
       11    1    1    2    0    0 -0.34220739774E-04 -0.48743648283E-03  0.99957232029E+00  0.99957257039E+00  0.51109989000E-03 0.  1.
     -623    1    1    2    0    0 -0.12417317114E-03 -0.22029623189E-03  0.47874609848E-05  0.17124000000E+03  0.17124000000E+03 0.  1.
       22    1    1    2    0    0  0.15839392213E-03  0.70773273460E-03  0.56422863962E-01  0.56427524772E-01  0.00000000000E+00 0.  1.
</event>
<event>
 5   1  0.2192208E+09  0.9118800E+02  0.7818608E-02  0.1180000E+00
       11   -1    0    0    0    0  0.00000000000E+00  0.00000000000E+00  0.10559998763E+01  0.10560000000E+01  0.51109989000E-03 0. -1.
     -623   -1    0    0    0    0  0.00000000000E+00  0.00000000000E+00  0.47855275298E-10  0.17124000000E+03  0.17124000000E+03 0.  1.
       11    1    1    2    0    0 -0.79992100840E-03  0.11174137824E-01  0.80120074122E+00  0.80127922111E+00  0.51109989000E-03 0. -1.
     -623    1    1    2    0    0  0.47436399229E-03 -0.15066953169E-01  0.10897600041E-03  0.17124000066E+03  0.17124000000E+03 0.  1.
       22    1    1    2    0    0  0.32555682260E-03  0.38928214907E-02  0.25469058986E+00  0.25472054611E+00  0.00000000000E+00 0.  1.
</event>
<event>
 5   1  0.2192208E+09  0.9118800E+02  0.7818608E-02  0.1180000E+00
       11   -1    0    0    0    0  0.00000000000E+00  0.00000000000E+00  0.10559998763E+01  0.10560000000E+01  0.51109989000E-03 0. -1.
     -623   -1    0    0    0    0  0.00000000000E+00  0.00000000000E+00  0.47855275298E-10  0.17124000000E+03  0.17124000000E+03 0.  1.
       11    1    1    2    0    0 -0.55004283494E-02  0.37882268872E-02  0.80748501649E+00  0.80751279771E+00  0.51109989000E-03 0. -1.
     -623    1    1    2    0    0  0.25555605572E-02  0.14210471907E-02  0.99746603398E-04  0.17124000002E+03  0.17124000000E+03 0.  1.
       22    1    1    2    0    0  0.29448677939E-02 -0.52092740769E-02  0.24841511256E+00  0.24848717659E+00  0.00000000000E+00 0.  1.
</event>
<event>
 5   1  0.2192208E+09  0.9118800E+02  0.7818608E-02  0.1180000E+00
       11   -1    0    0    0    0  0.00000000000E+00  0.00000000000E+00  0.10559998763E+01  0.10560000000E+01  0.51109989000E-03 0. -1.
     -623   -1    0    0    0    0  0.00000000000E+00  0.00000000000E+00  0.47855275298E-10  0.17124000000E+03  0.17124000000E+03 0. -1.
       11    1    1    2    0    0 -0.57917926433E-02 -0.15893744097E-01  0.97212748118E+00  0.97227478465E+00  0.51109989000E-03 0. -1.
     -623    1    1    2    0    0  0.63108683376E-02  0.17293612031E-01  0.16148247169E-03  0.17124000099E+03  0.17124000000E+03 0. -1.
       22    1    1    2    0    0 -0.51908438905E-03 -0.13998917603E-02  0.83712367369E-01  0.83725680625E-01  0.00000000000E+00 0.  1.
</event>
<event>
 5   1  0.2192208E+09  0.9118800E+02  0.7818608E-02  0.1180000E+00
       11   -1    0    0    0    0  0.00000000000E+00  0.00000000000E+00  0.10559998763E+01  0.10560000000E+01  0.51109989000E-03 0. -1.
     -623   -1    0    0    0    0  0.00000000000E+00  0.00000000000E+00  0.47855275298E-10  0.17124000000E+03  0.17124000000E+03 0. -1.
       11    1    1    2    0    0  0.85628696763E-03  0.85873989087E-03  0.97448069934E+00  0.97448158795E+00  0.51109989000E-03 0. -1.
     -623    1    1    2    0    0 -0.66993025751E-03  0.32050007480E-04  0.58465038257E-05  0.17124000000E+03  0.17124000000E+03 0. -1.
       22    1    1    2    0    0 -0.18635669503E-03 -0.89078989907E-03  0.81513354307E-01  0.81518434516E-01  0.00000000000E+00 0. -1.
</event>
<event>
 5   1  0.2192208E+09  0.9118800E+02  0.7818608E-02  0.1180000E+00
       11   -1    0    0    0    0  0.00000000000E+00  0.00000000000E+00  0.10559998763E+01  0.10560000000E+01  0.51109989000E-03 0. -1.
     -623   -1    0    0    0    0  0.00000000000E+00  0.00000000000E+00  0.47855275298E-10  0.17124000000E+03  0.17124000000E+03 0.  1.
       11    1    1    2    0    0  0.44889324045E-02 -0.11683817449E-01  0.95760708494E+00  0.95768901657E+00  0.51109989000E-03 0. -1.
     -623    1    1    2    0    0 -0.50032129779E-02  0.13082747910E-01  0.93679866016E-04  0.17124000057E+03  0.17124000000E+03 0.  1.
       22    1    1    2    0    0  0.51428632458E-03 -0.13989454998E-02  0.98300325312E-01  0.98311624416E-01  0.00000000000E+00 0.  1.
</event>
<event>
 5   1  0.2192208E+09  0.9118800E+02  0.7818608E-02  0.1180000E+00
       11   -1    0    0    0    0  0.00000000000E+00  0.00000000000E+00  0.10559998763E+01  0.10560000000E+01  0.51109989000E-03 0.  1.
     -623   -1    0    0    0    0  0.00000000000E+00  0.00000000000E+00  0.47855275298E-10  0.17124000000E+03  0.17124000000E+03 0. -1.
       11    1    1    2    0    0 -0.10169256360E-01  0.10962089393E-01  0.89900134798E+00  0.89912583439E+00  0.51109989000E-03 0.  1.
     -623    1    1    2    0    0  0.11929300833E-01 -0.12703166710E-01  0.14478597475E-03  0.17124000089E+03  0.17124000000E+03 0. -1.
       22    1    1    2    0    0 -0.17600309989E-02  0.17410629690E-02  0.15685254988E+00  0.15687208615E+00  0.00000000000E+00 0.  1.
</event>
<event>
 5   1  0.2192208E+09  0.9118800E+02  0.7818608E-02  0.1180000E+00
       11   -1    0    0    0    0  0.00000000000E+00  0.00000000000E+00  0.10559998763E+01  0.10560000000E+01  0.51109989000E-03 0. -1.
     -623   -1    0    0    0    0  0.00000000000E+00  0.00000000000E+00  0.47855275298E-10  0.17124000000E+03  0.17124000000E+03 0.  1.
       11    1    1    2    0    0 -0.26265998682E-02  0.98153894323E-02  0.79645083478E+00  0.79651580922E+00  0.51109989000E-03 0. -1.
     -623    1    1    2    0    0  0.30996792735E-02 -0.12702065605E-01  0.81838443029E-04  0.17124000050E+03  0.17124000000E+03 0.  1.
       22    1    1    2    0    0 -0.47308217423E-03  0.28866875198E-02  0.25946814638E+00  0.25948463492E+00  0.00000000000E+00 0.  1.
</event>
<event>
 5   1  0.2192208E+09  0.9118800E+02  0.7818608E-02  0.1180000E+00
       11   -1    0    0    0    0  0.00000000000E+00  0.00000000000E+00  0.10559998763E+01  0.10560000000E+01  0.51109989000E-03 0.  1.
     -623   -1    0    0    0    0  0.00000000000E+00  0.00000000000E+00  0.47855275298E-10  0.17124000000E+03  0.17124000000E+03 0.  1.
       11    1    1    2    0    0 -0.82419337516E-02  0.16807502730E-01  0.91080103735E+00  0.91099353042E+00  0.51109989000E-03 0.  1.
     -623    1    1    2    0    0  0.87318665256E-02 -0.19782436936E-01  0.22508293156E-03  0.17124000137E+03  0.17124000000E+03 0.  1.
       22    1    1    2    0    0 -0.48993258762E-03  0.29749337843E-02  0.14497373355E+00  0.14500508158E+00  0.00000000000E+00 0.  1.
</event>
<event>
 5   1  0.2192208E+09  0.9118800E+02  0.7818608E-02  0.1180000E+00
       11   -1    0    0    0    0  0.00000000000E+00  0.00000000000E+00  0.10559998763E+01  0.10560000000E+01  0.51109989000E-03 0. -1.
     -623   -1    0    0    0    0  0.00000000000E+00  0.00000000000E+00  0.47855275298E-10  0.17124000000E+03  0.17124000000E+03 0. -1.
       11    1    1    2    0    0 -0.15806657923E-02 -0.16902041004E-01  0.97171668602E+00  0.97186509177E+00  0.51109989000E-03 0. -1.
     -623    1    1    2    0    0  0.11303204691E-02  0.18485621866E-01  0.16539372746E-03  0.17124000100E+03  0.17124000000E+03 0. -1.
       22    1    1    2    0    0  0.45034529895E-03 -0.15835812595E-02  0.84117819330E-01  0.84133929359E-01  0.00000000000E+00 0.  1.
</event>
<event>
 5   1  0.2192208E+09  0.9118800E+02  0.7818608E-02  0.1180000E+00
       11   -1    0    0    0    0  0.00000000000E+00  0.00000000000E+00  0.10559998763E+01  0.10560000000E+01  0.51109989000E-03 0.  1.
     -623   -1    0    0    0    0  0.00000000000E+00  0.00000000000E+00  0.47855275298E-10  0.17124000000E+03  0.17124000000E+03 0.  1.
       11    1    1    2    0    0 -0.30790935802E-01  0.14382787222E-01  0.94675574250E+00  0.94736563346E+00  0.51109989000E-03 0.  1.
     -623    1    1    2    0    0  0.34385242808E-01 -0.15957743247E-01  0.68486822504E-03  0.17124000420E+03  0.17124000000E+03 0.  1.
       22    1    1    2    0    0 -0.35943538263E-02  0.15749777540E-02  0.10856070261E+00  0.10863160721E+00  0.00000000000E+00 0.  1.
</event>
<event>
 5   1  0.2192208E+09  0.9118800E+02  0.7818608E-02  0.1180000E+00
       11   -1    0    0    0    0  0.00000000000E+00  0.00000000000E+00  0.10559998763E+01  0.10560000000E+01  0.51109989000E-03 0. -1.
     -623   -1    0    0    0    0  0.00000000000E+00  0.00000000000E+00  0.47855275298E-10  0.17124000000E+03  0.17124000000E+03 0. -1.
       11    1    1    2    0    0 -0.39981734386E-03 -0.67522173114E-03  0.10046285603E+01  0.10046289968E+01  0.51109989000E-03 0. -1.
     -623    1    1    2    0    0 -0.10463793095E-04 -0.43224869439E-04  0.69755589984E-05  0.17124000000E+03  0.17124000000E+03 0. -1.
       22    1    1    2    0    0  0.41028113721E-03  0.71844660165E-03  0.51364366780E-01  0.51371029489E-01  0.00000000000E+00 0.  1.
</event>
<event>
 5   1  0.2192208E+09  0.9118800E+02  0.7818608E-02  0.1180000E+00
       11   -1    0    0    0    0  0.00000000000E+00  0.00000000000E+00  0.10559998763E+01  0.10560000000E+01  0.51109989000E-03 0. -1.
     -623   -1    0    0    0    0  0.00000000000E+00  0.00000000000E+00  0.47855275298E-10  0.17124000000E+03  0.17124000000E+03 0.  1.
       11    1    1    2    0    0  0.96300985801E-02 -0.42790585754E-02  0.79965695042E+00  0.79972654621E+00  0.51109989000E-03 0. -1.
     -623    1    1    2    0    0 -0.25848063964E-02 -0.14827863788E-02  0.23116372357E-03  0.17124000003E+03  0.17124000000E+03 0.  1.
       22    1    1    2    0    0 -0.70452921820E-02  0.57618449552E-02  0.25611176290E+00  0.25627342838E+00  0.00000000000E+00 0. -1.
</event>
<event>
 5   1  0.2192208E+09  0.9118800E+02  0.7818608E-02  0.1180000E+00
       11   -1    0    0    0    0  0.00000000000E+00  0.00000000000E+00  0.10559998763E+01  0.10560000000E+01  0.51109989000E-03 0. -1.
     -623   -1    0    0    0    0  0.00000000000E+00  0.00000000000E+00  0.47855275298E-10  0.17124000000E+03  0.17124000000E+03 0. -1.
       11    1    1    2    0    0 -0.99703355891E-02 -0.19067918004E-01  0.88645469439E+00  0.88671595199E+00  0.51109989000E-03 0. -1.
     -623    1    1    2    0    0  0.86040871866E-03  0.27505532749E-02  0.12958673259E-02  0.17124000003E+03  0.17124000000E+03 0. -1.
       22    1    1    2    0    0  0.91099268705E-02  0.16317364729E-01  0.16824931457E+00  0.16928401878E+00  0.00000000000E+00 0.  1.
</event>
<event>
 5   1  0.2192208E+09  0.9118800E+02  0.7818608E-02  0.1180000E+00
       11   -1    0    0    0    0  0.00000000000E+00  0.00000000000E+00  0.10559998763E+01  0.10560000000E+01  0.51109989000E-03 0.  1.
     -623   -1    0    0    0    0  0.00000000000E+00  0.00000000000E+00  0.47855275298E-10  0.17124000000E+03  0.17124000000E+03 0. -1.
       11    1    1    2    0    0 -0.73558351502E-03  0.23013465841E-02  0.98445394295E+00  0.98445704035E+00  0.51109989000E-03 0.  1.
     -623    1    1    2    0    0  0.93096814231E-03 -0.24603190866E-03  0.32772421159E-04  0.17124000000E+03  0.17124000000E+03 0. -1.
       22    1    1    2    0    0 -0.19538463824E-03 -0.20553146725E-02  0.71513173413E-01  0.71542969362E-01  0.00000000000E+00 0. -1.
</event>
<event>
 5   1  0.2192208E+09  0.9118800E+02  0.7818608E-02  0.1180000E+00
       11   -1    0    0    0    0  0.00000000000E+00  0.00000000000E+00  0.10559998763E+01  0.10560000000E+01  0.51109989000E-03 0.  1.
     -623   -1    0    0    0    0  0.00000000000E+00  0.00000000000E+00  0.47855275298E-10  0.17124000000E+03  0.17124000000E+03 0.  1.
       11    1    1    2    0    0 -0.23846855111E-02 -0.19247532717E-02  0.94984830604E+00  0.94985338717E+00  0.51109989000E-03 0.  1.
     -623    1    1    2    0    0  0.12728670100E-02  0.32957536771E-02  0.19671742645E-04  0.17124000004E+03  0.17124000000E+03 0.  1.
       22    1    1    2    0    0  0.11118184930E-02 -0.13710004265E-02  0.10613190535E+00  0.10614658316E+00  0.00000000000E+00 0.  1.
</event>
<event>
 5   1  0.2192208E+09  0.9118800E+02  0.7818608E-02  0.1180000E+00
       11   -1    0    0    0    0  0.00000000000E+00  0.00000000000E+00  0.10559998763E+01  0.10560000000E+01  0.51109989000E-03 0.  1.
     -623   -1    0    0    0    0  0.00000000000E+00  0.00000000000E+00  0.47855275298E-10  0.17124000000E+03  0.17124000000E+03 0. -1.
       11    1    1    2    0    0  0.23491320734E-02  0.84247639432E-02  0.40656558191E+00  0.40665996691E+00  0.51109989000E-03 0.  1.
     -623    1    1    2    0    0  0.79820319760E-04  0.35455761360E-03  0.15815775658E-03  0.17124000000E+03  0.17124000000E+03 0. -1.
       22    1    1    2    0    0 -0.24289523933E-02 -0.87793215574E-02  0.64927613856E+00  0.64934003450E+00  0.00000000000E+00 0.  1.
</event>
<event>
 5   1  0.2192208E+09  0.9118800E+02  0.7818608E-02  0.1180000E+00
       11   -1    0    0    0    0  0.00000000000E+00  0.00000000000E+00  0.10559998763E+01  0.10560000000E+01  0.51109989000E-03 0. -1.
     -623   -1    0    0    0    0  0.00000000000E+00  0.00000000000E+00  0.47855275298E-10  0.17124000000E+03  0.17124000000E+03 0. -1.
       11    1    1    2    0    0 -0.31051781436E-02 -0.11446038312E-02  0.99167129253E+00  0.99167694634E+00  0.51109989000E-03 0. -1.
     -623    1    1    2    0    0  0.31601870386E-02  0.18582508947E-02  0.95519268584E-05  0.17124000004E+03  0.17124000000E+03 0. -1.
       22    1    1    2    0    0 -0.55008740778E-04 -0.71364697275E-03  0.64318980355E-01  0.64322962866E-01  0.00000000000E+00 0.  1.
</event>
<event>
 5   1  0.2192208E+09  0.9118800E+02  0.7818608E-02  0.1180000E+00
       11   -1    0    0    0    0  0.00000000000E+00  0.00000000000E+00  0.10559998763E+01  0.10560000000E+01  0.51109989000E-03 0.  1.
     -623   -1    0    0    0    0  0.00000000000E+00  0.00000000000E+00  0.47855275298E-10  0.17124000000E+03  0.17124000000E+03 0. -1.
       11    1    1    2    0    0  0.29298876916E-02 -0.95670192506E-02  0.74246929528E+00  0.74253688646E+00  0.51109989000E-03 0.  1.
     -623    1    1    2    0    0 -0.37797112446E-02  0.13568890155E-01  0.94745258172E-04  0.17124000058E+03  0.17124000000E+03 0. -1.
       22    1    1    2    0    0  0.84981998040E-03 -0.40018580785E-02  0.31343483775E+00  0.31346153605E+00  0.00000000000E+00 0.  1.
</event>
<event>
 5   1  0.2192208E+09  0.9118800E+02  0.7818608E-02  0.1180000E+00
       11   -1    0    0    0    0  0.00000000000E+00  0.00000000000E+00  0.10559998763E+01  0.10560000000E+01  0.51109989000E-03 0. -1.
     -623   -1    0    0    0    0  0.00000000000E+00  0.00000000000E+00  0.47855275298E-10  0.17124000000E+03  0.17124000000E+03 0. -1.
       11    1    1    2    0    0 -0.22684123887E-02 -0.49659433556E-02  0.33493740415E+00  0.33498228641E+00  0.51109989000E-03 0. -1.
     -623    1    1    2    0    0  0.55797145228E-02 -0.22655417019E-02  0.88733803236E-04  0.17124000011E+03  0.17124000000E+03 0. -1.
       22    1    1    2    0    0 -0.33113021573E-02  0.72314850669E-02  0.72097374280E+00  0.72101761206E+00  0.00000000000E+00 0. -1.
</event>
<event>
 5   1  0.2192208E+09  0.9118800E+02  0.7818608E-02  0.1180000E+00
       11   -1    0    0    0    0  0.00000000000E+00  0.00000000000E+00  0.10559998763E+01  0.10560000000E+01  0.51109989000E-03 0. -1.
     -623   -1    0    0    0    0  0.00000000000E+00  0.00000000000E+00  0.47855275298E-10  0.17124000000E+03  0.17124000000E+03 0. -1.
       11    1    1    2    0    0  0.15246121309E-02 -0.25846720370E-02  0.89763519982E+00  0.89764036126E+00  0.51109989000E-03 0. -1.
     -623    1    1    2    0    0  0.38479052965E-02  0.17568538527E-03  0.11457609883E-03  0.17124000004E+03  0.17124000000E+03 0. -1.
       22    1    1    2    0    0 -0.53725174298E-02  0.24089866516E-02  0.15825010110E+00  0.15835959604E+00  0.00000000000E+00 0. -1.
</event>
<event>
 5   1  0.2192208E+09  0.9118800E+02  0.7818608E-02  0.1180000E+00
       11   -1    0    0    0    0  0.00000000000E+00  0.00000000000E+00  0.10559998763E+01  0.10560000000E+01  0.51109989000E-03 0.  1.
     -623   -1    0    0    0    0  0.00000000000E+00  0.00000000000E+00  0.47855275298E-10  0.17124000000E+03  0.17124000000E+03 0. -1.
       11    1    1    2    0    0 -0.92035186105E-03  0.28019969442E-02  0.79768092376E+00  0.79768653968E+00  0.51109989000E-03 0.  1.
     -623    1    1    2    0    0 -0.50381613526E-04  0.69116286847E-04  0.23272895269E-04  0.17124000000E+03  0.17124000000E+03 0. -1.
       22    1    1    2    0    0  0.97073347483E-03 -0.28711132314E-02  0.25829568502E+00  0.25831346560E+00  0.00000000000E+00 0. -1.
</event>
<event>
 5   1  0.2192208E+09  0.9118800E+02  0.7818608E-02  0.1180000E+00
       11   -1    0    0    0    0  0.00000000000E+00  0.00000000000E+00  0.10559998763E+01  0.10560000000E+01  0.51109989000E-03 0.  1.
     -623   -1    0    0    0    0  0.00000000000E+00  0.00000000000E+00  0.47855275298E-10  0.17124000000E+03  0.17124000000E+03 0.  1.
       11    1    1    2    0    0  0.30098476012E-02  0.69787586353E-02  0.53239585814E+00  0.53245034815E+00  0.51109989000E-03 0.  1.
     -623    1    1    2    0    0 -0.35500981290E-02 -0.16523871598E-02  0.81784741550E-04  0.17124000004E+03  0.17124000000E+03 0.  1.
       22    1    1    2    0    0  0.54025052277E-03 -0.53263714779E-02  0.52352223198E+00  0.52354960556E+00  0.00000000000E+00 0.  1.
</event>
<event>
 5   1  0.2192208E+09  0.9118800E+02  0.7818608E-02  0.1180000E+00
       11   -1    0    0    0    0  0.00000000000E+00  0.00000000000E+00  0.10559998763E+01  0.10560000000E+01  0.51109989000E-03 0. -1.
     -623   -1    0    0    0    0  0.00000000000E+00  0.00000000000E+00  0.47855275298E-10  0.17124000000E+03  0.17124000000E+03 0.  1.
       11    1    1    2    0    0 -0.18587126252E-02 -0.22467195235E-02  0.39888761039E+00  0.39889859552E+00  0.51109989000E-03 0. -1.
     -623    1    1    2    0    0  0.47939013980E-02  0.89775013287E-02  0.52192960986E-04  0.17124000030E+03  0.17124000000E+03 0.  1.
       22    1    1    2    0    0 -0.29351890573E-02 -0.67307823380E-02  0.65706013568E+00  0.65710116471E+00  0.00000000000E+00 0. -1.
</event>
<event>
 5   1  0.2192208E+09  0.9118800E+02  0.7818608E-02  0.1180000E+00
       11   -1    0    0    0    0  0.00000000000E+00  0.00000000000E+00  0.10559998763E+01  0.10560000000E+01  0.51109989000E-03 0. -1.
     -623   -1    0    0    0    0  0.00000000000E+00  0.00000000000E+00  0.47855275298E-10  0.17124000000E+03  0.17124000000E+03 0. -1.
       11    1    1    2    0    0 -0.13079721581E-01  0.14627805507E-01  0.88970247422E+00  0.88991898826E+00  0.51109989000E-03 0. -1.
     -623    1    1    2    0    0  0.13339395714E-01 -0.16563392006E-01  0.22919378730E-03  0.17124000132E+03  0.17124000000E+03 0. -1.
       22    1    1    2    0    0 -0.25967433026E-03  0.19355867439E-02  0.16606822397E+00  0.16607970659E+00  0.00000000000E+00 0.  1.
</event>
<event>
 5   1  0.2192208E+09  0.9118800E+02  0.7818608E-02  0.1180000E+00
       11   -1    0    0    0    0  0.00000000000E+00  0.00000000000E+00  0.10559998763E+01  0.10560000000E+01  0.51109989000E-03 0.  1.
     -623   -1    0    0    0    0  0.00000000000E+00  0.00000000000E+00  0.47855275298E-10  0.17124000000E+03  0.17124000000E+03 0.  1.
       11    1    1    2    0    0  0.57075102314E-02 -0.26079920757E-02  0.69037119411E+00  0.69039990164E+00  0.51109989000E-03 0.  1.
     -623    1    1    2    0    0 -0.21373731787E-02 -0.15072955958E-02  0.69198939370E-04  0.17124000002E+03  0.17124000000E+03 0.  1.
       22    1    1    2    0    0 -0.35701370424E-02  0.41152876787E-02  0.36555948839E+00  0.36560008345E+00  0.00000000000E+00 0.  1.
</event>
<event>
 5   1  0.2192208E+09  0.9118800E+02  0.7818608E-02  0.1180000E+00
       11   -1    0    0    0    0  0.00000000000E+00  0.00000000000E+00  0.10559998763E+01  0.10560000000E+01  0.51109989000E-03 0.  1.
     -623   -1    0    0    0    0  0.00000000000E+00  0.00000000000E+00  0.47855275298E-10  0.17124000000E+03  0.17124000000E+03 0. -1.
       11    1    1    2    0    0 -0.35448119991E-03  0.30955887100E-02  0.87463995947E+00  0.87464565868E+00  0.51109989000E-03 0.  1.
     -623    1    1    2    0    0 -0.23733990676E-04 -0.27364577419E-04  0.31926588999E-04  0.17124000000E+03  0.17124000000E+03 0. -1.
       22    1    1    2    0    0  0.37821519106E-03 -0.30682241321E-02  0.18132801153E+00  0.18135436254E+00  0.00000000000E+00 0.  1.
</event>
<event>
 5   1  0.2192208E+09  0.9118800E+02  0.7818608E-02  0.1180000E+00
       11   -1    0    0    0    0  0.00000000000E+00  0.00000000000E+00  0.10559998763E+01  0.10560000000E+01  0.51109989000E-03 0.  1.
     -623   -1    0    0    0    0  0.00000000000E+00  0.00000000000E+00  0.47855275298E-10  0.17124000000E+03  0.17124000000E+03 0. -1.
       11    1    1    2    0    0  0.11847352971E-02 -0.18915672576E-01  0.98616587463E+00  0.98634811288E+00  0.51109989000E-03 0.  1.
     -623    1    1    2    0    0 -0.91437108508E-03  0.20027257865E-01  0.19268379881E-03  0.17124000117E+03  0.17124000000E+03 0. -1.
       22    1    1    2    0    0 -0.27036420527E-03 -0.11115854374E-02  0.69641325758E-01  0.69650721262E-01  0.00000000000E+00 0. -1.
</event>
<event>
 5   1  0.2192208E+09  0.9118800E+02  0.7818608E-02  0.1180000E+00
       11   -1    0    0    0    0  0.00000000000E+00  0.00000000000E+00  0.10559998763E+01  0.10560000000E+01  0.51109989000E-03 0.  1.
     -623   -1    0    0    0    0  0.00000000000E+00  0.00000000000E+00  0.47855275298E-10  0.17124000000E+03  0.17124000000E+03 0.  1.
       11    1    1    2    0    0 -0.73065708358E-04 -0.13093241764E-02  0.99469582569E+00  0.99469682142E+00  0.51109989000E-03 0.  1.
     -623    1    1    2    0    0 -0.21130244954E-03  0.23359207906E-03  0.10971094704E-04  0.17124000000E+03  0.17124000000E+03 0.  1.
       22    1    1    2    0    0  0.28436815931E-03  0.10757320958E-02  0.61293086632E-01  0.61303185346E-01  0.00000000000E+00 0. -1.
</event>
<event>
 5   1  0.2192208E+09  0.9118800E+02  0.7818608E-02  0.1180000E+00
       11   -1    0    0    0    0  0.00000000000E+00  0.00000000000E+00  0.10559998763E+01  0.10560000000E+01  0.51109989000E-03 0. -1.
     -623   -1    0    0    0    0  0.00000000000E+00  0.00000000000E+00  0.47855275298E-10  0.17124000000E+03  0.17124000000E+03 0. -1.
       11    1    1    2    0    0 -0.17893432544E-01 -0.21584879171E-01  0.70869981238E+00  0.70925437414E+00  0.51109989000E-03 0. -1.
     -623    1    1    2    0    0  0.23369646532E-01  0.32985201536E-01  0.78994506583E-03  0.17124000477E+03  0.17124000000E+03 0. -1.
       22    1    1    2    0    0 -0.54762141419E-02 -0.11400322582E-01  0.34651012587E+00  0.34674085944E+00  0.00000000000E+00 0. -1.
</event>
<event>
 5   1  0.2192208E+09  0.9118800E+02  0.7818608E-02  0.1180000E+00
       11   -1    0    0    0    0  0.00000000000E+00  0.00000000000E+00  0.10559998763E+01  0.10560000000E+01  0.51109989000E-03 0. -1.
     -623   -1    0    0    0    0  0.00000000000E+00  0.00000000000E+00  0.47855275298E-10  0.17124000000E+03  0.17124000000E+03 0. -1.
       11    1    1    2    0    0 -0.24006614414E-02  0.10025839287E-01  0.54230876587E+00  0.54240698686E+00  0.51109989000E-03 0. -1.
     -623    1    1    2    0    0 -0.14943383791E-03  0.20331633443E-03  0.20630621981E-03  0.17124000000E+03  0.17124000000E+03 0. -1.
       22    1    1    2    0    0  0.25500952792E-02 -0.10229155621E-01  0.51348480328E+00  0.51359301184E+00  0.00000000000E+00 0. -1.
</event>
<event>
 5   1  0.2192208E+09  0.9118800E+02  0.7818608E-02  0.1180000E+00
       11   -1    0    0    0    0  0.00000000000E+00  0.00000000000E+00  0.10559998763E+01  0.10560000000E+01  0.51109989000E-03 0. -1.
     -623   -1    0    0    0    0  0.00000000000E+00  0.00000000000E+00  0.47855275298E-10  0.17124000000E+03  0.17124000000E+03 0.  1.
       11    1    1    2    0    0  0.85973317876E-03 -0.39929253112E-02  0.73308728019E+00  0.73309883658E+00  0.51109989000E-03 0. -1.
     -623    1    1    2    0    0  0.78958109538E-04  0.43387975677E-03  0.32412477388E-04  0.17124000000E+03  0.17124000000E+03 0.  1.
       22    1    1    2    0    0 -0.93869128821E-03  0.35590455549E-02  0.32288018251E+00  0.32290116167E+00  0.00000000000E+00 0. -1.
</event>
<event>
 5   1  0.2192208E+09  0.9118800E+02  0.7818608E-02  0.1180000E+00
       11   -1    0    0    0    0  0.00000000000E+00  0.00000000000E+00  0.10559998763E+01  0.10560000000E+01  0.51109989000E-03 0.  1.
     -623   -1    0    0    0    0  0.00000000000E+00  0.00000000000E+00  0.47855275298E-10  0.17124000000E+03  0.17124000000E+03 0. -1.
       11    1    1    2    0    0  0.84603688027E-03  0.11239072242E-02  0.98826343478E+00  0.98826456817E+00  0.51109989000E-03 0.  1.
     -623    1    1    2    0    0 -0.89412583622E-06 -0.23846642322E-04  0.15216504620E-04  0.17124000000E+03  0.17124000000E+03 0. -1.
       22    1    1    2    0    0 -0.84514275443E-03 -0.11000605817E-02  0.67721233523E-01  0.67735440277E-01  0.00000000000E+00 0. -1.
</event>
<event>
 5   1  0.2192208E+09  0.9118800E+02  0.7818608E-02  0.1180000E+00
       11   -1    0    0    0    0  0.00000000000E+00  0.00000000000E+00  0.10559998763E+01  0.10560000000E+01  0.51109989000E-03 0.  1.
     -623   -1    0    0    0    0  0.00000000000E+00  0.00000000000E+00  0.47855275298E-10  0.17124000000E+03  0.17124000000E+03 0. -1.
       11    1    1    2    0    0 -0.45075603589E-01 -0.12748385341E-01  0.15717963100E+00  0.16401228305E+00  0.51109989000E-03 0.  1.
     -623    1    1    2    0    0 -0.83609922953E-02 -0.52076076094E-02  0.86161633618E-02  0.17124000050E+03  0.17124000000E+03 0. -1.
       22    1    1    2    0    0  0.53436595884E-01  0.17955992951E-01  0.89020408199E+00  0.89198721687E+00  0.00000000000E+00 0.  1.
</event>
<event>
 5   1  0.2192208E+09  0.9118800E+02  0.7818608E-02  0.1180000E+00
       11   -1    0    0    0    0  0.00000000000E+00  0.00000000000E+00  0.10559998763E+01  0.10560000000E+01  0.51109989000E-03 0. -1.
     -623   -1    0    0    0    0  0.00000000000E+00  0.00000000000E+00  0.47855275298E-10  0.17124000000E+03  0.17124000000E+03 0.  1.
       11    1    1    2    0    0 -0.91246787626E-02  0.93514240125E-03  0.10029003627E+01  0.10029424375E+01  0.51109989000E-03 0. -1.
     -623    1    1    2    0    0  0.91050176141E-02 -0.12007465646E-03  0.48457855157E-04  0.17124000024E+03  0.17124000000E+03 0.  1.
       22    1    1    2    0    0  0.19661299979E-04 -0.81506774679E-03  0.53051038275E-01  0.53057302834E-01  0.00000000000E+00 0.  1.
</event>
<event>
 5   1  0.2192208E+09  0.9118800E+02  0.7818608E-02  0.1180000E+00
       11   -1    0    0    0    0  0.00000000000E+00  0.00000000000E+00  0.10559998763E+01  0.10560000000E+01  0.51109989000E-03 0. -1.
     -623   -1    0    0    0    0  0.00000000000E+00  0.00000000000E+00  0.47855275298E-10  0.17124000000E+03  0.17124000000E+03 0. -1.
       11    1    1    2    0    0  0.20043459979E-02  0.96437342029E-02  0.67833156944E+00  0.67840327117E+00  0.51109989000E-03 0. -1.
     -623    1    1    2    0    0 -0.21791840242E-02 -0.14657801563E-01  0.10555197386E-03  0.17124000064E+03  0.17124000000E+03 0. -1.
       22    1    1    2    0    0  0.17483787433E-03  0.50140663374E-02  0.37756268130E+00  0.37759601393E+00  0.00000000000E+00 0. -1.
</event>
<event>
 5   1  0.2192208E+09  0.9118800E+02  0.7818608E-02  0.1180000E+00
       11   -1    0    0    0    0  0.00000000000E+00  0.00000000000E+00  0.10559998763E+01  0.10560000000E+01  0.51109989000E-03 0. -1.
     -623   -1    0    0    0    0  0.00000000000E+00  0.00000000000E+00  0.47855275298E-10  0.17124000000E+03  0.17124000000E+03 0.  1.
       11    1    1    2    0    0 -0.12312007511E-02 -0.46286860223E-02  0.88531138392E+00  0.88532448758E+00  0.51109989000E-03 0. -1.
     -623    1    1    2    0    0 -0.23913819363E-03 -0.14114540378E-03  0.85979956205E-04  0.17124000000E+03  0.17124000000E+03 0.  1.
       22    1    1    2    0    0  0.14703389449E-02  0.47698314262E-02  0.17060251319E+00  0.17067551288E+00  0.00000000000E+00 0. -1.
</event>
<event>
 5   1  0.2192208E+09  0.9118800E+02  0.7818608E-02  0.1180000E+00
       11   -1    0    0    0    0  0.00000000000E+00  0.00000000000E+00  0.10559998763E+01  0.10560000000E+01  0.51109989000E-03 0.  1.
     -623   -1    0    0    0    0  0.00000000000E+00  0.00000000000E+00  0.47855275298E-10  0.17124000000E+03  0.17124000000E+03 0.  1.
       11    1    1    2    0    0  0.13251823254E-02  0.10950654413E-01  0.79884986996E+00  0.79892618488E+00  0.51109989000E-03 0.  1.
     -623    1    1    2    0    0  0.31610150355E-03 -0.15686969009E-01  0.12578512109E-03  0.17124000072E+03  0.17124000000E+03 0.  1.
       22    1    1    2    0    0 -0.16412838213E-02  0.47363142192E-02  0.25702419590E+00  0.25707307086E+00  0.00000000000E+00 0.  1.
</event>
<event>
 5   1  0.2192208E+09  0.9118800E+02  0.7818608E-02  0.1180000E+00
       11   -1    0    0    0    0  0.00000000000E+00  0.00000000000E+00  0.10559998763E+01  0.10560000000E+01  0.51109989000E-03 0. -1.
     -623   -1    0    0    0    0  0.00000000000E+00  0.00000000000E+00  0.47855275298E-10  0.17124000000E+03  0.17124000000E+03 0.  1.
       11    1    1    2    0    0 -0.38467203684E-04  0.94526444146E-02  0.87853591480E+00  0.87858691590E+00  0.51109989000E-03 0. -1.
     -623    1    1    2    0    0 -0.45764067902E-03 -0.11314460613E-01  0.61715025289E-04  0.17124000037E+03  0.17124000000E+03 0.  1.
       22    1    1    2    0    0  0.49610806118E-03  0.18618206107E-02  0.17740265834E+00  0.17741312152E+00  0.00000000000E+00 0.  1.
</event>
<event>
 5   1  0.2192208E+09  0.9118800E+02  0.7818608E-02  0.1180000E+00
       11   -1    0    0    0    0  0.00000000000E+00  0.00000000000E+00  0.10559998763E+01  0.10560000000E+01  0.51109989000E-03 0. -1.
     -623   -1    0    0    0    0  0.00000000000E+00  0.00000000000E+00  0.47855275298E-10  0.17124000000E+03  0.17124000000E+03 0.  1.
       11    1    1    2    0    0  0.23937101052E-02 -0.15707587333E-02  0.94839271161E+00  0.94839717091E+00  0.51109989000E-03 0. -1.
     -623    1    1    2    0    0  0.82269315922E-04  0.12608589021E-03  0.42527167214E-04  0.17124000000E+03  0.17124000000E+03 0.  1.
       22    1    1    2    0    0 -0.24759794210E-02  0.14446728433E-02  0.10756463529E+00  0.10760282673E+00  0.00000000000E+00 0. -1.
</event>
<event>
 5   1  0.2192208E+09  0.9118800E+02  0.7818608E-02  0.1180000E+00
       11   -1    0    0    0    0  0.00000000000E+00  0.00000000000E+00  0.10559998763E+01  0.10560000000E+01  0.51109989000E-03 0.  1.
     -623   -1    0    0    0    0  0.00000000000E+00  0.00000000000E+00  0.47855275298E-10  0.17124000000E+03  0.17124000000E+03 0.  1.
       11    1    1    2    0    0  0.99711000200E-02  0.61109653338E-02  0.96878867891E+00  0.96885939762E+00  0.51109989000E-03 0.  1.
     -623    1    1    2    0    0 -0.10285164340E-01 -0.71490337631E-02  0.77802479170E-04  0.17124000046E+03  0.17124000000E+03 0.  1.
       22    1    1    2    0    0  0.31406471097E-03  0.10380687010E-02  0.87133435099E-01  0.87140184390E-01  0.00000000000E+00 0. -1.
</event>
<event>
 5   1  0.2192208E+09  0.9118800E+02  0.7818608E-02  0.1180000E+00
       11   -1    0    0    0    0  0.00000000000E+00  0.00000000000E+00  0.10559998763E+01  0.10560000000E+01  0.51109989000E-03 0. -1.
     -623   -1    0    0    0    0  0.00000000000E+00  0.00000000000E+00  0.47855275298E-10  0.17124000000E+03  0.17124000000E+03 0.  1.
       11    1    1    2    0    0 -0.56489264614E-02 -0.10339103377E-01  0.93075263957E+00  0.93082734421E+00  0.51109989000E-03 0. -1.
     -623    1    1    2    0    0  0.40758976144E-02  0.11967774213E-01  0.95529155028E-04  0.17124000047E+03  0.17124000000E+03 0.  1.
       22    1    1    2    0    0  0.15730287870E-02 -0.16286710130E-02  0.12515172317E+00  0.12517220459E+00  0.00000000000E+00 0.  1.
</event>
<event>
 5   1  0.2192208E+09  0.9118800E+02  0.7818608E-02  0.1180000E+00
       11   -1    0    0    0    0  0.00000000000E+00  0.00000000000E+00  0.10559998763E+01  0.10560000000E+01  0.51109989000E-03 0.  1.
     -623   -1    0    0    0    0  0.00000000000E+00  0.00000000000E+00  0.47855275298E-10  0.17124000000E+03  0.17124000000E+03 0.  1.
       11    1    1    2    0    0 -0.29925057559E-02 -0.42035275657E-02  0.71679842095E+00  0.71681717490E+00  0.51109989000E-03 0.  1.
     -623    1    1    2    0    0  0.79061635456E-04  0.85561833443E-05  0.57086624381E-04  0.17124000000E+03  0.17124000000E+03 0.  1.
       22    1    1    2    0    0  0.29134441204E-02  0.41949713823E-02  0.33914436920E+00  0.33918282548E+00  0.00000000000E+00 0.  1.
</event>
<event>
 5   1  0.2192208E+09  0.9118800E+02  0.7818608E-02  0.1180000E+00
       11   -1    0    0    0    0  0.00000000000E+00  0.00000000000E+00  0.10559998763E+01  0.10560000000E+01  0.51109989000E-03 0. -1.
     -623   -1    0    0    0    0  0.00000000000E+00  0.00000000000E+00  0.47855275298E-10  0.17124000000E+03  0.17124000000E+03 0. -1.
       11    1    1    2    0    0 -0.12950065500E-01 -0.36530615959E-02  0.97065078164E+00  0.97074417339E+00  0.51109989000E-03 0. -1.
     -623    1    1    2    0    0  0.10983349750E-01  0.91573505800E-02  0.29447139997E-03  0.17124000060E+03  0.17124000000E+03 0. -1.
       22    1    1    2    0    0  0.19667157563E-02 -0.55042889786E-02  0.85054622689E-01  0.85255228630E-01  0.00000000000E+00 0. -1.
</event>
<event>
 5   1  0.2192208E+09  0.9118800E+02  0.7818608E-02  0.1180000E+00
       11   -1    0    0    0    0  0.00000000000E+00  0.00000000000E+00  0.10559998763E+01  0.10560000000E+01  0.51109989000E-03 0.  1.
     -623   -1    0    0    0    0  0.00000000000E+00  0.00000000000E+00  0.47855275298E-10  0.17124000000E+03  0.17124000000E+03 0. -1.
       11    1    1    2    0    0 -0.27266674088E-02 -0.13431876700E-01  0.99222449761E+00  0.99231928576E+00  0.51109989000E-03 0.  1.
     -623    1    1    2    0    0  0.28201177117E-02  0.14283573071E-01  0.10104786979E-03  0.17124000062E+03  0.17124000000E+03 0. -1.
       22    1    1    2    0    0 -0.93453408881E-04 -0.85171210263E-03  0.63675493834E-01  0.63681258327E-01  0.00000000000E+00 0. -1.
</event>
<event>
 5   1  0.2192208E+09  0.9118800E+02  0.7818608E-02  0.1180000E+00
       11   -1    0    0    0    0  0.00000000000E+00  0.00000000000E+00  0.10559998763E+01  0.10560000000E+01  0.51109989000E-03 0. -1.
     -623   -1    0    0    0    0  0.00000000000E+00  0.00000000000E+00  0.47855275298E-10  0.17124000000E+03  0.17124000000E+03 0. -1.
       11    1    1    2    0    0 -0.57919747713E-03  0.50956578123E-03  0.14650886381E-01  0.14680082488E-01  0.51109989000E-03 0. -1.
     -623    1    1    2    0    0 -0.58398668232E-02 -0.11292446885E-01  0.10516033019E-03  0.17124000047E+03  0.17124000000E+03 0. -1.
       22    1    1    2    0    0  0.64190642950E-02  0.10782881093E-01  0.10412438287E+01  0.10413194446E+01  0.00000000000E+00 0. -1.
</event>
<event>
 5   1  0.2192208E+09  0.9118800E+02  0.7818608E-02  0.1180000E+00
       11   -1    0    0    0    0  0.00000000000E+00  0.00000000000E+00  0.10559998763E+01  0.10560000000E+01  0.51109989000E-03 0. -1.
     -623   -1    0    0    0    0  0.00000000000E+00  0.00000000000E+00  0.47855275298E-10  0.17124000000E+03  0.17124000000E+03 0.  1.
       11    1    1    2    0    0  0.75666734737E-03  0.13013041287E-01  0.10038631941E+01  0.10039479496E+01  0.51109989000E-03 0. -1.
     -623    1    1    2    0    0 -0.92221971071E-03 -0.13863289170E-01  0.92403594146E-04  0.17124000056E+03  0.17124000000E+03 0.  1.
       22    1    1    2    0    0  0.16555272514E-03  0.85025332192E-03  0.52044692939E-01  0.52051901037E-01  0.00000000000E+00 0.  1.
</event>
<event>
 5   1  0.2192208E+09  0.9118800E+02  0.7818608E-02  0.1180000E+00
       11   -1    0    0    0    0  0.00000000000E+00  0.00000000000E+00  0.10559998763E+01  0.10560000000E+01  0.51109989000E-03 0.  1.
     -623   -1    0    0    0    0  0.00000000000E+00  0.00000000000E+00  0.47855275298E-10  0.17124000000E+03  0.17124000000E+03 0. -1.
       11    1    1    2    0    0 -0.88881231908E-03  0.13220840868E-02  0.96666522804E+00  0.96666667586E+00  0.51109989000E-03 0.  1.
     -623    1    1    2    0    0  0.26141880678E-04  0.25982187671E-04  0.15661994085E-04  0.17124000000E+03  0.17124000000E+03 0. -1.
       22    1    1    2    0    0  0.86267043780E-03 -0.13480662750E-02  0.89319010755E-01  0.89333348562E-01  0.00000000000E+00 0. -1.
</event>
<event>
 5   1  0.2192208E+09  0.9118800E+02  0.7818608E-02  0.1180000E+00
       11   -1    0    0    0    0  0.00000000000E+00  0.00000000000E+00  0.10559998763E+01  0.10560000000E+01  0.51109989000E-03 0.  1.
     -623   -1    0    0    0    0  0.00000000000E+00  0.00000000000E+00  0.47855275298E-10  0.17124000000E+03  0.17124000000E+03 0. -1.
       11    1    1    2    0    0  0.16339751225E-01 -0.18701573865E-01  0.84658794952E+00  0.84695227365E+00  0.51109989000E-03 0.  1.
     -623    1    1    2    0    0 -0.20903892652E-01  0.24552218543E-01  0.49897651728E-03  0.17124000304E+03  0.17124000000E+03 0. -1.
       22    1    1    2    0    0  0.45641414953E-02 -0.58506447585E-02  0.20891295377E+00  0.20904469303E+00  0.00000000000E+00 0.  1.
</event>
<event>
 5   1  0.2192208E+09  0.9118800E+02  0.7818608E-02  0.1180000E+00
       11   -1    0    0    0    0  0.00000000000E+00  0.00000000000E+00  0.10559998763E+01  0.10560000000E+01  0.51109989000E-03 0.  1.
     -623   -1    0    0    0    0  0.00000000000E+00  0.00000000000E+00  0.47855275298E-10  0.17124000000E+03  0.17124000000E+03 0.  1.
       11    1    1    2    0    0  0.66168200754E-02  0.92851340099E-02  0.84348452273E+00  0.84356173297E+00  0.51109989000E-03 0.  1.
     -623    1    1    2    0    0 -0.85774683422E-02 -0.11487533505E-01  0.98151888295E-04  0.17124000060E+03  0.17124000000E+03 0.  1.
       22    1    1    2    0    0  0.19606602079E-02  0.22024154874E-02  0.21241867172E+00  0.21243913697E+00  0.00000000000E+00 0.  1.
</event>
<event>
 5   1  0.2192208E+09  0.9118800E+02  0.7818608E-02  0.1180000E+00
       11   -1    0    0    0    0  0.00000000000E+00  0.00000000000E+00  0.10559998763E+01  0.10560000000E+01  0.51109989000E-03 0.  1.
     -623   -1    0    0    0    0  0.00000000000E+00  0.00000000000E+00  0.47855275298E-10  0.17124000000E+03  0.17124000000E+03 0.  1.
       11    1    1    2    0    0  0.19268230973E-02  0.11671984352E-01  0.90934286889E+00  0.90941995925E+00  0.51109989000E-03 0.  1.
     -623    1    1    2    0    0 -0.25261346534E-02 -0.13416963372E-01  0.89123344123E-04  0.17124000054E+03  0.17124000000E+03 0.  1.
       22    1    1    2    0    0  0.59930913366E-03  0.17449661530E-02  0.14656687156E+00  0.14657848381E+00  0.00000000000E+00 0. -1.
</event>
<event>
 5   1  0.2192208E+09  0.9118800E+02  0.7818608E-02  0.1180000E+00
       11   -1    0    0    0    0  0.00000000000E+00  0.00000000000E+00  0.10559998763E+01  0.10560000000E+01  0.51109989000E-03 0. -1.
     -623   -1    0    0    0    0  0.00000000000E+00  0.00000000000E+00  0.47855275298E-10  0.17124000000E+03  0.17124000000E+03 0.  1.
       11    1    1    2    0    0 -0.52121942452E-02 -0.11313402447E-01  0.99730609435E+00  0.99738401185E+00  0.51109989000E-03 0. -1.
     -623    1    1    2    0    0  0.55762361503E-02  0.12079567254E-01  0.84448810511E-04  0.17124000052E+03  0.17124000000E+03 0.  1.
       22    1    1    2    0    0 -0.36404368137E-03 -0.76616865547E-03  0.58609669551E-01  0.58615807656E-01  0.00000000000E+00 0.  1.
</event>
<event>
 5   1  0.2192208E+09  0.9118800E+02  0.7818608E-02  0.1180000E+00
       11   -1    0    0    0    0  0.00000000000E+00  0.00000000000E+00  0.10559998763E+01  0.10560000000E+01  0.51109989000E-03 0.  1.
     -623   -1    0    0    0    0  0.00000000000E+00  0.00000000000E+00  0.47855275298E-10  0.17124000000E+03  0.17124000000E+03 0. -1.
       11    1    1    2    0    0  0.74730614076E-02  0.65687861378E-02  0.61896259228E+00  0.61904276707E+00  0.51109989000E-03 0.  1.
     -623    1    1    2    0    0 -0.12999526810E-01 -0.14167791338E-01  0.18216712047E-03  0.17124000108E+03  0.17124000000E+03 0. -1.
       22    1    1    2    0    0  0.55264646038E-02  0.75990043295E-02  0.43685505206E+00  0.43695608840E+00  0.00000000000E+00 0. -1.
</event>
<event>
 5   1  0.2192208E+09  0.9118800E+02  0.7818608E-02  0.1180000E+00
       11   -1    0    0    0    0  0.00000000000E+00  0.00000000000E+00  0.10559998763E+01  0.10560000000E+01  0.51109989000E-03 0. -1.
     -623   -1    0    0    0    0  0.00000000000E+00  0.00000000000E+00  0.47855275298E-10  0.17124000000E+03  0.17124000000E+03 0. -1.
       11    1    1    2    0    0  0.13612064694E-01  0.12224867980E-01  0.52145036283E+00  0.52177148046E+00  0.51109989000E-03 0. -1.
     -623    1    1    2    0    0 -0.26984375584E-01 -0.25062027617E-01  0.64665044115E-03  0.17124000396E+03  0.17124000000E+03 0. -1.
       22    1    1    2    0    0  0.13372310885E-01  0.12837159631E-01  0.53390286288E+00  0.53422455799E+00  0.00000000000E+00 0. -1.
</event>
<event>
 5   1  0.2192208E+09  0.9118800E+02  0.7818608E-02  0.1180000E+00
       11   -1    0    0    0    0  0.00000000000E+00  0.00000000000E+00  0.10559998763E+01  0.10560000000E+01  0.51109989000E-03 0. -1.
     -623   -1    0    0    0    0  0.00000000000E+00  0.00000000000E+00  0.47855275298E-10  0.17124000000E+03  0.17124000000E+03 0.  1.
       11    1    1    2    0    0  0.43055555520E-02 -0.57943221746E-03  0.68228752330E+00  0.68230154567E+00  0.51109989000E-03 0. -1.
     -623    1    1    2    0    0 -0.43323929553E-02 -0.63526590062E-02  0.78372923558E-04  0.17124000017E+03  0.17124000000E+03 0.  1.
       22    1    1    2    0    0  0.26837400356E-04  0.69320912193E-02  0.37363397941E+00  0.37369828094E+00  0.00000000000E+00 0. -1.
</event>
<event>
 5   1  0.2192208E+09  0.9118800E+02  0.7818608E-02  0.1180000E+00
       11   -1    0    0    0    0  0.00000000000E+00  0.00000000000E+00  0.10559998763E+01  0.10560000000E+01  0.51109989000E-03 0. -1.
     -623   -1    0    0    0    0  0.00000000000E+00  0.00000000000E+00  0.47855275298E-10  0.17124000000E+03  0.17124000000E+03 0. -1.
       11    1    1    2    0    0 -0.78058894319E-04 -0.32541585985E-03  0.10051988936E+01  0.10051990792E+01  0.51109989000E-03 0. -1.
     -623    1    1    2    0    0  0.16699048822E-03 -0.21903499179E-03  0.30576874130E-05  0.17124000000E+03  0.17124000000E+03 0. -1.
       22    1    1    2    0    0 -0.88931595909E-04  0.54445085427E-03  0.50797937815E-01  0.50800933277E-01  0.00000000000E+00 0. -1.
</event>
<event>
 5   1  0.2192208E+09  0.9118800E+02  0.7818608E-02  0.1180000E+00
       11   -1    0    0    0    0  0.00000000000E+00  0.00000000000E+00  0.10559998763E+01  0.10560000000E+01  0.51109989000E-03 0. -1.
     -623   -1    0    0    0    0  0.00000000000E+00  0.00000000000E+00  0.47855275298E-10  0.17124000000E+03  0.17124000000E+03 0.  1.
       11    1    1    2    0    0 -0.39930439404E-02  0.54331037302E-02  0.97830502259E+00  0.97832839142E+00  0.51109989000E-03 0. -1.
     -623    1    1    2    0    0  0.44761167946E-02 -0.62888455299E-02  0.29635700570E-04  0.17124000017E+03  0.17124000000E+03 0.  1.
       22    1    1    2    0    0 -0.48307272466E-03  0.85574161764E-03  0.77665187510E-01  0.77671404030E-01  0.00000000000E+00 0.  1.
</event>
<event>
 5   1  0.2192208E+09  0.9118800E+02  0.7818608E-02  0.1180000E+00
       11   -1    0    0    0    0  0.00000000000E+00  0.00000000000E+00  0.10559998763E+01  0.10560000000E+01  0.51109989000E-03 0.  1.
     -623   -1    0    0    0    0  0.00000000000E+00  0.00000000000E+00  0.47855275298E-10  0.17124000000E+03  0.17124000000E+03 0. -1.
       11    1    1    2    0    0  0.14374839744E-02  0.58348862129E-02  0.55291423549E+00  0.55294712703E+00  0.51109989000E-03 0.  1.
     -623    1    1    2    0    0 -0.69825474989E-03 -0.21869905012E-03  0.64663773565E-04  0.17124000000E+03  0.17124000000E+03 0. -1.
       22    1    1    2    0    0 -0.73922922741E-03 -0.56161871637E-02  0.50302097272E+00  0.50305286702E+00  0.00000000000E+00 0.  1.
</event>
<event>
 5   1  0.2192208E+09  0.9118800E+02  0.7818608E-02  0.1180000E+00
       11   -1    0    0    0    0  0.00000000000E+00  0.00000000000E+00  0.10559998763E+01  0.10560000000E+01  0.51109989000E-03 0. -1.
     -623   -1    0    0    0    0  0.00000000000E+00  0.00000000000E+00  0.47855275298E-10  0.17124000000E+03  0.17124000000E+03 0. -1.
       11    1    1    2    0    0 -0.10722612901E-01  0.10120666090E-01  0.97004589056E+00  0.97015807647E+00  0.51109989000E-03 0. -1.
     -623    1    1    2    0    0  0.11267718470E-01 -0.11226029945E-01  0.12164900870E-03  0.17124000074E+03  0.17124000000E+03 0. -1.
       22    1    1    2    0    0 -0.54510374890E-03  0.11053620414E-02  0.85832166220E-01  0.85841014215E-01  0.00000000000E+00 0.  1.
</event>
<event>
 5   1  0.2192208E+09  0.9118800E+02  0.7818608E-02  0.1180000E+00
       11   -1    0    0    0    0  0.00000000000E+00  0.00000000000E+00  0.10559998763E+01  0.10560000000E+01  0.51109989000E-03 0.  1.
     -623   -1    0    0    0    0  0.00000000000E+00  0.00000000000E+00  0.47855275298E-10  0.17124000000E+03  0.17124000000E+03 0.  1.
       11    1    1    2    0    0 -0.19996668754E-03  0.75321338967E-02  0.95161229296E+00  0.95164225965E+00  0.51109989000E-03 0.  1.
     -623    1    1    2    0    0  0.46006779608E-04 -0.87093570493E-02  0.36818276294E-04  0.17124000022E+03  0.17124000000E+03 0.  1.
       22    1    1    2    0    0  0.15395992354E-03  0.11772201985E-02  0.10435040697E+00  0.10435716069E+00  0.00000000000E+00 0.  1.
</event>
<event>
 5   1  0.2192208E+09  0.9118800E+02  0.7818608E-02  0.1180000E+00
       11   -1    0    0    0    0  0.00000000000E+00  0.00000000000E+00  0.10559998763E+01  0.10560000000E+01  0.51109989000E-03 0. -1.
     -623   -1    0    0    0    0  0.00000000000E+00  0.00000000000E+00  0.47855275298E-10  0.17124000000E+03  0.17124000000E+03 0. -1.
       11    1    1    2    0    0 -0.39892726729E-02  0.24233796148E-02  0.96057066526E+00  0.96058214186E+00  0.51109989000E-03 0. -1.
     -623    1    1    2    0    0  0.51093059864E-02 -0.97169943036E-03  0.29050043188E-04  0.17124000008E+03  0.17124000000E+03 0. -1.
       22    1    1    2    0    0 -0.11200332496E-02 -0.14516801966E-02  0.95400147854E-01  0.95417765958E-01  0.00000000000E+00 0. -1.
</event>
<event>
 5   1  0.2192208E+09  0.9118800E+02  0.7818608E-02  0.1180000E+00
       11   -1    0    0    0    0  0.00000000000E+00  0.00000000000E+00  0.10559998763E+01  0.10560000000E+01  0.51109989000E-03 0.  1.
     -623   -1    0    0    0    0  0.00000000000E+00  0.00000000000E+00  0.47855275298E-10  0.17124000000E+03  0.17124000000E+03 0.  1.
       11    1    1    2    0    0 -0.88763337070E-03  0.10496575229E-02  0.96728333678E+00  0.96728444860E+00  0.51109989000E-03 0.  1.
     -623    1    1    2    0    0 -0.68976606615E-04  0.37418775890E-04  0.12806742773E-04  0.17124000000E+03  0.17124000000E+03 0.  1.
       22    1    1    2    0    0  0.95660997973E-03 -0.10870763001E-02  0.88703769877E-01  0.88715588415E-01  0.00000000000E+00 0.  1.
</event>
<event>
 5   1  0.2192208E+09  0.9118800E+02  0.7818608E-02  0.1180000E+00
       11   -1    0    0    0    0  0.00000000000E+00  0.00000000000E+00  0.10559998763E+01  0.10560000000E+01  0.51109989000E-03 0.  1.
     -623   -1    0    0    0    0  0.00000000000E+00  0.00000000000E+00  0.47855275298E-10  0.17124000000E+03  0.17124000000E+03 0. -1.
       11    1    1    2    0    0  0.16874231627E-02 -0.23573605542E-01  0.99347882117E+00  0.99376002718E+00  0.51109989000E-03 0.  1.
     -623    1    1    2    0    0 -0.17542284998E-02  0.24472803970E-01  0.28937223024E-03  0.17124000176E+03  0.17124000000E+03 0. -1.
       22    1    1    2    0    0  0.66805456697E-04 -0.89920009639E-03  0.62231754917E-01  0.62238286800E-01  0.00000000000E+00 0.  1.
</event>
<event>
 5   1  0.2192208E+09  0.9118800E+02  0.7818608E-02  0.1180000E+00
       11   -1    0    0    0    0  0.00000000000E+00  0.00000000000E+00  0.10559998763E+01  0.10560000000E+01  0.51109989000E-03 0. -1.
     -623   -1    0    0    0    0  0.00000000000E+00  0.00000000000E+00  0.47855275298E-10  0.17124000000E+03  0.17124000000E+03 0. -1.
       11    1    1    2    0    0 -0.95715549307E-02 -0.15367765066E-01  0.98098447152E+00  0.98115165874E+00  0.51109989000E-03 0. -1.
     -623    1    1    2    0    0  0.10285352812E-01  0.16464288979E-01  0.17960071590E-03  0.17124000110E+03  0.17124000000E+03 0. -1.
       22    1    1    2    0    0 -0.71379736814E-03 -0.10965230906E-02  0.74835751402E-01  0.74847188040E-01  0.00000000000E+00 0. -1.
</event>
<event>
 5   1  0.2192208E+09  0.9118800E+02  0.7818608E-02  0.1180000E+00
       11   -1    0    0    0    0  0.00000000000E+00  0.00000000000E+00  0.10559998763E+01  0.10560000000E+01  0.51109989000E-03 0.  1.
     -623   -1    0    0    0    0  0.00000000000E+00  0.00000000000E+00  0.47855275298E-10  0.17124000000E+03  0.17124000000E+03 0.  1.
       11    1    1    2    0    0 -0.58089193645E-02  0.18252805966E-01  0.92841738487E+00  0.92861510338E+00  0.51109989000E-03 0.  1.
     -623    1    1    2    0    0  0.63060346706E-02 -0.20542521925E-01  0.22049391313E-03  0.17124000135E+03  0.17124000000E+03 0.  1.
       22    1    1    2    0    0 -0.49711580992E-03  0.22897175998E-02  0.12736208191E+00  0.12738363254E+00  0.00000000000E+00 0.  1.
</event>
<event>
 5   1  0.2192208E+09  0.9118800E+02  0.7818608E-02  0.1180000E+00
       11   -1    0    0    0    0  0.00000000000E+00  0.00000000000E+00  0.10559998763E+01  0.10560000000E+01  0.51109989000E-03 0. -1.
     -623   -1    0    0    0    0  0.00000000000E+00  0.00000000000E+00  0.47855275298E-10  0.17124000000E+03  0.17124000000E+03 0.  1.
       11    1    1    2    0    0  0.24828555445E-03  0.20292130771E-03  0.99190533003E+00  0.99190551354E+00  0.51109989000E-03 0. -1.
     -623    1    1    2    0    0 -0.53505580996E-03 -0.90202546196E-03  0.45174730792E-05  0.17124000000E+03  0.17124000000E+03 0.  1.
       22    1    1    2    0    0  0.28677025604E-03  0.69910415514E-03  0.64090029891E-01  0.64094484281E-01  0.00000000000E+00 0.  1.
</event>
<event>
 5   1  0.2192208E+09  0.9118800E+02  0.7818608E-02  0.1180000E+00
       11   -1    0    0    0    0  0.00000000000E+00  0.00000000000E+00  0.10559998763E+01  0.10560000000E+01  0.51109989000E-03 0.  1.
     -623   -1    0    0    0    0  0.00000000000E+00  0.00000000000E+00  0.47855275298E-10  0.17124000000E+03  0.17124000000E+03 0.  1.
       11    1    1    2    0    0 -0.82488861363E-03 -0.18184928013E-02  0.91381844514E+00  0.91382076977E+00  0.51109989000E-03 0.  1.
     -623    1    1    2    0    0 -0.19664878553E-06 -0.96958880926E-04  0.17498452056E-04  0.17124000000E+03  0.17124000000E+03 0.  1.
       22    1    1    2    0    0  0.82508526242E-03  0.19154516830E-02  0.14216394218E+00  0.14217923962E+00  0.00000000000E+00 0. -1.
</event>
<event>
 5   1  0.2192208E+09  0.9118800E+02  0.7818608E-02  0.1180000E+00
       11   -1    0    0    0    0  0.00000000000E+00  0.00000000000E+00  0.10559998763E+01  0.10560000000E+01  0.51109989000E-03 0. -1.
     -623   -1    0    0    0    0  0.00000000000E+00  0.00000000000E+00  0.47855275298E-10  0.17124000000E+03  0.17124000000E+03 0. -1.
       11    1    1    2    0    0  0.10876900799E-01  0.15784129977E-01  0.94568455981E+00  0.94587895294E+00  0.51109989000E-03 0. -1.
     -623    1    1    2    0    0 -0.11957978919E-01 -0.17284137532E-01  0.21108341431E-03  0.17124000129E+03  0.17124000000E+03 0. -1.
       22    1    1    2    0    0  0.10810782836E-02  0.15000077920E-02  0.11010424758E+00  0.11011977156E+00  0.00000000000E+00 0. -1.
</event>
<event>
 5   1  0.2192208E+09  0.9118800E+02  0.7818608E-02  0.1180000E+00
       11   -1    0    0    0    0  0.00000000000E+00  0.00000000000E+00  0.10559998763E+01  0.10560000000E+01  0.51109989000E-03 0. -1.
     -623   -1    0    0    0    0  0.00000000000E+00  0.00000000000E+00  0.47855275298E-10  0.17124000000E+03  0.17124000000E+03 0.  1.
       11    1    1    2    0    0  0.16584806140E-01  0.15280055221E-01  0.89194853161E+00  0.89223370266E+00  0.51109989000E-03 0. -1.
     -623    1    1    2    0    0 -0.18692899490E-01 -0.18611177996E-01  0.33453384253E-03  0.17124000203E+03  0.17124000000E+03 0.  1.
       22    1    1    2    0    0  0.21080912690E-02  0.33311207031E-02  0.16371669340E+00  0.16376414782E+00  0.00000000000E+00 0. -1.
</event>
<event>
 5   1  0.2192208E+09  0.9118800E+02  0.7818608E-02  0.1180000E+00
       11   -1    0    0    0    0  0.00000000000E+00  0.00000000000E+00  0.10559998763E+01  0.10560000000E+01  0.51109989000E-03 0.  1.
     -623   -1    0    0    0    0  0.00000000000E+00  0.00000000000E+00  0.47855275298E-10  0.17124000000E+03  0.17124000000E+03 0. -1.
       11    1    1    2    0    0  0.16171451231E-01 -0.87554009128E-02  0.72329656338E+00  0.72353047807E+00  0.51109989000E-03 0.  1.
     -623    1    1    2    0    0 -0.23483313580E-01  0.12440068616E-01  0.33669081798E-03  0.17124000206E+03  0.17124000000E+03 0. -1.
       22    1    1    2    0    0  0.73118526354E-02 -0.36846625577E-02  0.33236618548E+00  0.33246702269E+00  0.00000000000E+00 0.  1.
</event>
<event>
 5   1  0.2192208E+09  0.9118800E+02  0.7818608E-02  0.1180000E+00
       11   -1    0    0    0    0  0.00000000000E+00  0.00000000000E+00  0.10559998763E+01  0.10560000000E+01  0.51109989000E-03 0.  1.
     -623   -1    0    0    0    0  0.00000000000E+00  0.00000000000E+00  0.47855275298E-10  0.17124000000E+03  0.17124000000E+03 0.  1.
       11    1    1    2    0    0 -0.34840018479E-04 -0.18216409422E-02  0.91056934135E+00  0.91057130760E+00  0.51109989000E-03 0.  1.
     -623    1    1    2    0    0 -0.23970757591E-03 -0.35414366154E-03  0.18379386395E-04  0.17124000000E+03  0.17124000000E+03 0.  1.
       22    1    1    2    0    0  0.27454759835E-03  0.21757846096E-02  0.14541217311E+00  0.14542870935E+00  0.00000000000E+00 0.  1.
</event>
<event>
 5   1  0.2192208E+09  0.9118800E+02  0.7818608E-02  0.1180000E+00
       11   -1    0    0    0    0  0.00000000000E+00  0.00000000000E+00  0.10559998763E+01  0.10560000000E+01  0.51109989000E-03 0.  1.
     -623   -1    0    0    0    0  0.00000000000E+00  0.00000000000E+00  0.47855275298E-10  0.17124000000E+03  0.17124000000E+03 0. -1.
       11    1    1    2    0    0 -0.47645839982E-02 -0.15046324995E-01  0.59010525532E+00  0.59031649709E+00  0.51109989000E-03 0.  1.
     -623    1    1    2    0    0  0.82275191418E-02  0.21569926903E-01  0.27124745939E-03  0.17124000156E+03  0.17124000000E+03 0. -1.
       22    1    1    2    0    0 -0.34629351942E-02 -0.65236020410E-02  0.46562338009E+00  0.46568195304E+00  0.00000000000E+00 0.  1.
</event>
<event>
 5   1  0.2192208E+09  0.9118800E+02  0.7818608E-02  0.1180000E+00
       11   -1    0    0    0    0  0.00000000000E+00  0.00000000000E+00  0.10559998763E+01  0.10560000000E+01  0.51109989000E-03 0.  1.
     -623   -1    0    0    0    0  0.00000000000E+00  0.00000000000E+00  0.47855275298E-10  0.17124000000E+03  0.17124000000E+03 0. -1.
       11    1    1    2    0    0 -0.25716187274E-03  0.13733288910E-02  0.94240400265E+00  0.94240517698E+00  0.51109989000E-03 0.  1.
     -623    1    1    2    0    0 -0.21621365476E-03  0.68554662364E-04  0.11188699247E-04  0.17124000000E+03  0.17124000000E+03 0. -1.
       22    1    1    2    0    0  0.47337552285E-03 -0.14418835519E-02  0.11358466229E+00  0.11359480014E+00  0.00000000000E+00 0.  1.
</event>
<event>
 5   1  0.2192208E+09  0.9118800E+02  0.7818608E-02  0.1180000E+00
       11   -1    0    0    0    0  0.00000000000E+00  0.00000000000E+00  0.10559998763E+01  0.10560000000E+01  0.51109989000E-03 0.  1.
     -623   -1    0    0    0    0  0.00000000000E+00  0.00000000000E+00  0.47855275298E-10  0.17124000000E+03  0.17124000000E+03 0.  1.
       11    1    1    2    0    0  0.12832053277E-02  0.50927874261E-02  0.66363404697E+00  0.66365502531E+00  0.51109989000E-03 0.  1.
     -623    1    1    2    0    0 -0.21510136661E-03  0.19384453228E-03  0.57927815122E-04  0.17124000000E+03  0.17124000000E+03 0.  1.
       22    1    1    2    0    0 -0.10681039608E-02 -0.52866319587E-02  0.39230790297E+00  0.39234497583E+00  0.00000000000E+00 0.  1.
</event>
<event>
 5   1  0.2192208E+09  0.9118800E+02  0.7818608E-02  0.1180000E+00
       11   -1    0    0    0    0  0.00000000000E+00  0.00000000000E+00  0.10559998763E+01  0.10560000000E+01  0.51109989000E-03 0.  1.
     -623   -1    0    0    0    0  0.00000000000E+00  0.00000000000E+00  0.47855275298E-10  0.17124000000E+03  0.17124000000E+03 0.  1.
       11    1    1    2    0    0  0.46084282640E-02  0.37639969188E-02  0.70045332658E+00  0.70047878571E+00  0.51109989000E-03 0.  1.
     -623    1    1    2    0    0 -0.26234176694E-04  0.21873681318E-03  0.77176940375E-04  0.17124000000E+03  0.17124000000E+03 0.  1.
       22    1    1    2    0    0 -0.45821940873E-02 -0.39827337318E-02  0.35546937160E+00  0.35552121289E+00  0.00000000000E+00 0.  1.
</event>
<event>
 5   1  0.2192208E+09  0.9118800E+02  0.7818608E-02  0.1180000E+00
       11   -1    0    0    0    0  0.00000000000E+00  0.00000000000E+00  0.10559998763E+01  0.10560000000E+01  0.51109989000E-03 0.  1.
     -623   -1    0    0    0    0  0.00000000000E+00  0.00000000000E+00  0.47855275298E-10  0.17124000000E+03  0.17124000000E+03 0.  1.
       11    1    1    2    0    0  0.21613570654E-03  0.11309629680E-01  0.92826311618E+00  0.92833217574E+00  0.51109989000E-03 0.  1.
     -623    1    1    2    0    0 -0.17843653776E-03 -0.12806724662E-01  0.78198666683E-04  0.17124000048E+03  0.17124000000E+03 0.  1.
       22    1    1    2    0    0 -0.37699187369E-04  0.14970936484E-02  0.12765845154E+00  0.12766723527E+00  0.00000000000E+00 0. -1.
</event>
<event>
 5   1  0.2192208E+09  0.9118800E+02  0.7818608E-02  0.1180000E+00
       11   -1    0    0    0    0  0.00000000000E+00  0.00000000000E+00  0.10559998763E+01  0.10560000000E+01  0.51109989000E-03 0.  1.
     -623   -1    0    0    0    0  0.00000000000E+00  0.00000000000E+00  0.47855275298E-10  0.17124000000E+03  0.17124000000E+03 0. -1.
       11    1    1    2    0    0  0.20328094985E-01  0.19551021890E-01  0.86217971443E+00  0.86264105809E+00  0.51109989000E-03 0.  1.
     -623    1    1    2    0    0 -0.25118853764E-01 -0.24779431023E-01  0.59493943693E-03  0.17124000364E+03  0.17124000000E+03 0. -1.
       22    1    1    2    0    0  0.47907557179E-02  0.52284061128E-02  0.19322509388E+00  0.19335517701E+00  0.00000000000E+00 0. -1.
</event>
<event>
 5   1  0.2192208E+09  0.9118800E+02  0.7818608E-02  0.1180000E+00
       11   -1    0    0    0    0  0.00000000000E+00  0.00000000000E+00  0.10559998763E+01  0.10560000000E+01  0.51109989000E-03 0. -1.
     -623   -1    0    0    0    0  0.00000000000E+00  0.00000000000E+00  0.47855275298E-10  0.17124000000E+03  0.17124000000E+03 0. -1.
       11    1    1    2    0    0 -0.19922409416E-01 -0.23590902691E-01  0.97042695114E+00  0.97091820552E+00  0.51109989000E-03 0. -1.
     -623    1    1    2    0    0  0.20482991033E-01  0.25553586356E-01  0.51875218156E-03  0.17124000313E+03  0.17124000000E+03 0. -1.
       22    1    1    2    0    0 -0.56058275154E-03 -0.19626850796E-02  0.85054231504E-01  0.85078720503E-01  0.00000000000E+00 0. -1.
</event>
<event>
 5   1  0.2192208E+09  0.9118800E+02  0.7818608E-02  0.1180000E+00
       11   -1    0    0    0    0  0.00000000000E+00  0.00000000000E+00  0.10559998763E+01  0.10560000000E+01  0.51109989000E-03 0.  1.
     -623   -1    0    0    0    0  0.00000000000E+00  0.00000000000E+00  0.47855275298E-10  0.17124000000E+03  0.17124000000E+03 0. -1.
       11    1    1    2    0    0  0.58331470288E-02  0.17944521086E-01  0.10021772177E+01  0.10023549612E+01  0.51109989000E-03 0.  1.
     -623    1    1    2    0    0 -0.61825463411E-02 -0.18807025598E-01  0.18683669505E-03  0.17124000114E+03  0.17124000000E+03 0. -1.
       22    1    1    2    0    0  0.34940088940E-03  0.86250930986E-03  0.53636091335E-01  0.53644163680E-01  0.00000000000E+00 0.  1.
</event>
<event>
 5   1  0.2192208E+09  0.9118800E+02  0.7818608E-02  0.1180000E+00
       11   -1    0    0    0    0  0.00000000000E+00  0.00000000000E+00  0.10559998763E+01  0.10560000000E+01  0.51109989000E-03 0. -1.
     -623   -1    0    0    0    0  0.00000000000E+00  0.00000000000E+00  0.47855275298E-10  0.17124000000E+03  0.17124000000E+03 0. -1.
       11    1    1    2    0    0 -0.97967158653E-03  0.32797046216E-02  0.77860091991E+00  0.77860861152E+00  0.51109989000E-03 0. -1.
     -623    1    1    2    0    0 -0.92830544057E-05  0.15307380998E-03  0.30572590134E-04  0.17124000000E+03  0.17124000000E+03 0. -1.
       22    1    1    2    0    0  0.98895464098E-03 -0.34327784322E-02  0.27736838795E+00  0.27739139250E+00  0.00000000000E+00 0.  1.
</event>
<event>
 5   1  0.2192208E+09  0.9118800E+02  0.7818608E-02  0.1180000E+00
       11   -1    0    0    0    0  0.00000000000E+00  0.00000000000E+00  0.10559998763E+01  0.10560000000E+01  0.51109989000E-03 0.  1.
     -623   -1    0    0    0    0  0.00000000000E+00  0.00000000000E+00  0.47855275298E-10  0.17124000000E+03  0.17124000000E+03 0.  1.
       11    1    1    2    0    0 -0.10871255088E-02 -0.51440240390E-02  0.61714264872E+00  0.61716525576E+00  0.51109989000E-03 0.  1.
     -623    1    1    2    0    0  0.35687215951E-03  0.21168594761E-03  0.50811240662E-04  0.17124000000E+03  0.17124000000E+03 0.  1.
       22    1    1    2    0    0  0.73025334692E-03  0.49323380900E-02  0.43880642334E+00  0.43883475067E+00  0.00000000000E+00 0.  1.
</event>
<event>
 5   1  0.2192208E+09  0.9118800E+02  0.7818608E-02  0.1180000E+00
       11   -1    0    0    0    0  0.00000000000E+00  0.00000000000E+00  0.10559998763E+01  0.10560000000E+01  0.51109989000E-03 0. -1.
     -623   -1    0    0    0    0  0.00000000000E+00  0.00000000000E+00  0.47855275298E-10  0.17124000000E+03  0.17124000000E+03 0.  1.
       11    1    1    2    0    0  0.56525704404E-02  0.78222336809E-02  0.79649929441E+00  0.79655792389E+00  0.51109989000E-03 0. -1.
     -623    1    1    2    0    0 -0.69835206273E-02 -0.11400346726E-01  0.87117147442E-04  0.17124000052E+03  0.17124000000E+03 0.  1.
       22    1    1    2    0    0  0.13309499479E-02  0.35781126554E-02  0.25941342866E+00  0.25944151805E+00  0.00000000000E+00 0.  1.
</event>
<event>
 5   1  0.2192208E+09  0.9118800E+02  0.7818608E-02  0.1180000E+00
       11   -1    0    0    0    0  0.00000000000E+00  0.00000000000E+00  0.10559998763E+01  0.10560000000E+01  0.51109989000E-03 0. -1.
     -623   -1    0    0    0    0  0.00000000000E+00  0.00000000000E+00  0.47855275298E-10  0.17124000000E+03  0.17124000000E+03 0. -1.
       11    1    1    2    0    0 -0.22756760525E-02 -0.82328375719E-02  0.54047775136E+00  0.54054548305E+00  0.51109989000E-03 0. -1.
     -623    1    1    2    0    0 -0.23242055349E-03 -0.33292102230E-04  0.13999554707E-03  0.17124000000E+03  0.17124000000E+03 0. -1.
       22    1    1    2    0    0  0.25080966059E-02  0.82661296742E-02  0.51538212913E+00  0.51545451640E+00  0.00000000000E+00 0. -1.
</event>
<event>
 5   1  0.2192208E+09  0.9118800E+02  0.7818608E-02  0.1180000E+00
       11   -1    0    0    0    0  0.00000000000E+00  0.00000000000E+00  0.10559998763E+01  0.10560000000E+01  0.51109989000E-03 0. -1.
     -623   -1    0    0    0    0  0.00000000000E+00  0.00000000000E+00  0.47855275298E-10  0.17124000000E+03  0.17124000000E+03 0.  1.
       11    1    1    2    0    0 -0.14618524807E-03 -0.10707626036E-02  0.99465015703E+00  0.99465087544E+00  0.51109989000E-03 0. -1.
     -623    1    1    2    0    0  0.28733498263E-03  0.17051940832E-03  0.73629783248E-05  0.17124000000E+03  0.17124000000E+03 0.  1.
       22    1    1    2    0    0 -0.14114972457E-03  0.90024320123E-03  0.61342319647E-01  0.61349087530E-01  0.00000000000E+00 0.  1.
</event>
<event>
 5   1  0.2192208E+09  0.9118800E+02  0.7818608E-02  0.1180000E+00
       11   -1    0    0    0    0  0.00000000000E+00  0.00000000000E+00  0.10559998763E+01  0.10560000000E+01  0.51109989000E-03 0.  1.
     -623   -1    0    0    0    0  0.00000000000E+00  0.00000000000E+00  0.47855275298E-10  0.17124000000E+03  0.17124000000E+03 0. -1.
       11    1    1    2    0    0 -0.34192898072E-03 -0.18823473122E-02  0.97539358965E+00  0.97539559980E+00  0.51109989000E-03 0.  1.
     -623    1    1    2    0    0 -0.36393082433E-03  0.14245365063E-03  0.23758876145E-04  0.17124000000E+03  0.17124000000E+03 0. -1.
       22    1    1    2    0    0  0.70585980822E-03  0.17398936603E-02  0.80582537029E-01  0.80604408949E-01  0.00000000000E+00 0.  1.
</event>
<event>
 5   1  0.2192208E+09  0.9118800E+02  0.7818608E-02  0.1180000E+00
       11   -1    0    0    0    0  0.00000000000E+00  0.00000000000E+00  0.10559998763E+01  0.10560000000E+01  0.51109989000E-03 0. -1.
     -623   -1    0    0    0    0  0.00000000000E+00  0.00000000000E+00  0.47855275298E-10  0.17124000000E+03  0.17124000000E+03 0. -1.
       11    1    1    2    0    0 -0.80497957116E-02 -0.24347761795E-02  0.97339349444E+00  0.97342995824E+00  0.51109989000E-03 0. -1.
     -623    1    1    2    0    0  0.85995145151E-02  0.33713674525E-02  0.43731391252E-04  0.17124000025E+03  0.17124000000E+03 0. -1.
       22    1    1    2    0    0 -0.54971843041E-03 -0.93659112682E-03  0.82562604722E-01  0.82569746831E-01  0.00000000000E+00 0.  1.
</event>
<event>
 5   1  0.2192208E+09  0.9118800E+02  0.7818608E-02  0.1180000E+00
       11   -1    0    0    0    0  0.00000000000E+00  0.00000000000E+00  0.10559998763E+01  0.10560000000E+01  0.51109989000E-03 0.  1.
     -623   -1    0    0    0    0  0.00000000000E+00  0.00000000000E+00  0.47855275298E-10  0.17124000000E+03  0.17124000000E+03 0. -1.
       11    1    1    2    0    0 -0.18145585494E-01 -0.13927121557E-01  0.99758120171E+00  0.99784354596E+00  0.51109989000E-03 0.  1.
     -623    1    1    2    0    0  0.19163435748E-01  0.14745677233E-01  0.27859807750E-03  0.17124000171E+03  0.17124000000E+03 0. -1.
       22    1    1    2    0    0 -0.10178270527E-02 -0.81853782406E-03  0.58138798450E-01  0.58153468180E-01  0.00000000000E+00 0. -1.
</event>
<event>
 5   1  0.2192208E+09  0.9118800E+02  0.7818608E-02  0.1180000E+00
       11   -1    0    0    0    0  0.00000000000E+00  0.00000000000E+00  0.10559998763E+01  0.10560000000E+01  0.51109989000E-03 0.  1.
     -623   -1    0    0    0    0  0.00000000000E+00  0.00000000000E+00  0.47855275298E-10  0.17124000000E+03  0.17124000000E+03 0.  1.
       11    1    1    2    0    0  0.13235883254E-02 -0.16342315467E-02  0.98572141515E+00  0.98572379098E+00  0.51109989000E-03 0.  1.
     -623    1    1    2    0    0  0.14207227325E-03 -0.67510503852E-04  0.38149024619E-04  0.17124000000E+03  0.17124000000E+03 0.  1.
       22    1    1    2    0    0 -0.14656605989E-02  0.17017420506E-02  0.70240313455E-01  0.70276210208E-01  0.00000000000E+00 0.  1.
</event>
<event>
 5   1  0.2192208E+09  0.9118800E+02  0.7818608E-02  0.1180000E+00
       11   -1    0    0    0    0  0.00000000000E+00  0.00000000000E+00  0.10559998763E+01  0.10560000000E+01  0.51109989000E-03 0. -1.
     -623   -1    0    0    0    0  0.00000000000E+00  0.00000000000E+00  0.47855275298E-10  0.17124000000E+03  0.17124000000E+03 0.  1.
       11    1    1    2    0    0 -0.12907065110E-03 -0.38741164496E-02  0.93277206316E+00  0.93278025733E+00  0.51109989000E-03 0. -1.
     -623    1    1    2    0    0 -0.29114833326E-03  0.73796250493E-03  0.48705871311E-04  0.17124000000E+03  0.17124000000E+03 0.  1.
       22    1    1    2    0    0  0.42021898596E-03  0.31361539406E-02  0.12317911310E+00  0.12321974659E+00  0.00000000000E+00 0. -1.
</event>
<event>
 5   1  0.2192208E+09  0.9118800E+02  0.7818608E-02  0.1180000E+00
       11   -1    0    0    0    0  0.00000000000E+00  0.00000000000E+00  0.10559998763E+01  0.10560000000E+01  0.51109989000E-03 0. -1.
     -623   -1    0    0    0    0  0.00000000000E+00  0.00000000000E+00  0.47855275298E-10  0.17124000000E+03  0.17124000000E+03 0. -1.
       11    1    1    2    0    0  0.64728183887E-04  0.53667415742E-02  0.61373697346E+00  0.61376065361E+00  0.51109989000E-03 0. -1.
     -623    1    1    2    0    0 -0.25373164862E-03 -0.11612328935E-03  0.54768001911E-04  0.17124000000E+03  0.17124000000E+03 0. -1.
       22    1    1    2    0    0  0.18900346671E-03 -0.52506182839E-02  0.44220814311E+00  0.44223935436E+00  0.00000000000E+00 0.  1.
</event>
<event>
 5   1  0.2192208E+09  0.9118800E+02  0.7818608E-02  0.1180000E+00
       11   -1    0    0    0    0  0.00000000000E+00  0.00000000000E+00  0.10559998763E+01  0.10560000000E+01  0.51109989000E-03 0.  1.
     -623   -1    0    0    0    0  0.00000000000E+00  0.00000000000E+00  0.47855275298E-10  0.17124000000E+03  0.17124000000E+03 0. -1.
       11    1    1    2    0    0 -0.62742227527E-03 -0.14044640609E-02  0.93793549060E+00  0.93793689122E+00  0.51109989000E-03 0.  1.
     -623    1    1    2    0    0 -0.23519175380E-03 -0.92247182547E-04  0.13916215633E-04  0.17124000000E+03  0.17124000000E+03 0. -1.
       22    1    1    2    0    0  0.86261402377E-03  0.14967112413E-02  0.11805044574E+00  0.11806308478E+00  0.00000000000E+00 0. -1.
</event>
<event>
 5   1  0.2192208E+09  0.9118800E+02  0.7818608E-02  0.1180000E+00
       11   -1    0    0    0    0  0.00000000000E+00  0.00000000000E+00  0.10559998763E+01  0.10560000000E+01  0.51109989000E-03 0.  1.
     -623   -1    0    0    0    0  0.00000000000E+00  0.00000000000E+00  0.47855275298E-10  0.17124000000E+03  0.17124000000E+03 0.  1.
       11    1    1    2    0    0  0.45265790979E-02 -0.84819702330E-02  0.97463569539E+00  0.97468324787E+00  0.51109989000E-03 0.  1.
     -623    1    1    2    0    0 -0.50177303824E-02  0.93662468128E-02  0.54050083981E-04  0.17124000033E+03  0.17124000000E+03 0.  1.
       22    1    1    2    0    0  0.49115003612E-03 -0.88427424959E-03  0.81309868185E-01  0.81316159732E-01  0.00000000000E+00 0.  1.
</event>
<event>
 5   1  0.2192208E+09  0.9118800E+02  0.7818608E-02  0.1180000E+00
       11   -1    0    0    0    0  0.00000000000E+00  0.00000000000E+00  0.10559998763E+01  0.10560000000E+01  0.51109989000E-03 0. -1.
     -623   -1    0    0    0    0  0.00000000000E+00  0.00000000000E+00  0.47855275298E-10  0.17124000000E+03  0.17124000000E+03 0.  1.
       11    1    1    2    0    0  0.58818232328E-03  0.28502632671E-02  0.80008069876E+00  0.80008615518E+00  0.51109989000E-03 0. -1.
     -623    1    1    2    0    0 -0.10338124445E-02  0.18684830417E-03  0.23746445660E-04  0.17124000000E+03  0.17124000000E+03 0.  1.
       22    1    1    2    0    0  0.44563011740E-03 -0.30371115705E-02  0.25589542722E+00  0.25591383766E+00  0.00000000000E+00 0. -1.
</event>
<event>
 5   1  0.2192208E+09  0.9118800E+02  0.7818608E-02  0.1180000E+00
       11   -1    0    0    0    0  0.00000000000E+00  0.00000000000E+00  0.10559998763E+01  0.10560000000E+01  0.51109989000E-03 0. -1.
     -623   -1    0    0    0    0  0.00000000000E+00  0.00000000000E+00  0.47855275298E-10  0.17124000000E+03  0.17124000000E+03 0.  1.
       11    1    1    2    0    0  0.56957644869E-03  0.30126833625E-02  0.81745218996E+00  0.81745809970E+00  0.51109989000E-03 0. -1.
     -623    1    1    2    0    0 -0.96845875817E-03  0.13527276771E-02  0.46075469339E-04  0.17124000001E+03  0.17124000000E+03 0.  1.
       22    1    1    2    0    0  0.39888231398E-03 -0.43654110459E-02  0.23850161584E+00  0.23854189712E+00  0.00000000000E+00 0. -1.
</event>
<event>
 5   1  0.2192208E+09  0.9118800E+02  0.7818608E-02  0.1180000E+00
       11   -1    0    0    0    0  0.00000000000E+00  0.00000000000E+00  0.10559998763E+01  0.10560000000E+01  0.51109989000E-03 0.  1.
     -623   -1    0    0    0    0  0.00000000000E+00  0.00000000000E+00  0.47855275298E-10  0.17124000000E+03  0.17124000000E+03 0.  1.
       11    1    1    2    0    0  0.11370119623E-02 -0.78502937352E-03  0.97311985906E+00  0.97312097418E+00  0.51109989000E-03 0.  1.
     -623    1    1    2    0    0  0.21681119589E-03 -0.15580211064E-03  0.17390708114E-04  0.17124000000E+03  0.17124000000E+03 0.  1.
       22    1    1    2    0    0 -0.13538231634E-02  0.94083148791E-03  0.82862652028E-01  0.82879051045E-01  0.00000000000E+00 0.  1.
</event>
<event>
 5   1  0.2192208E+09  0.9118800E+02  0.7818608E-02  0.1180000E+00
       11   -1    0    0    0    0  0.00000000000E+00  0.00000000000E+00  0.10559998763E+01  0.10560000000E+01  0.51109989000E-03 0. -1.
     -623   -1    0    0    0    0  0.00000000000E+00  0.00000000000E+00  0.47855275298E-10  0.17124000000E+03  0.17124000000E+03 0. -1.
       11    1    1    2    0    0  0.18317508619E-01 -0.16208393646E-01  0.96708713673E+00  0.96739652387E+00  0.51109989000E-03 0. -1.
     -623    1    1    2    0    0 -0.19940650417E-01  0.17729859059E-01  0.33927810423E-03  0.17124000208E+03  0.17124000000E+03 0. -1.
       22    1    1    2    0    0  0.16231431745E-02 -0.15214666369E-02  0.88573534369E-01  0.88601469768E-01  0.00000000000E+00 0.  1.
</event>
<event>
 5   1  0.2192208E+09  0.9118800E+02  0.7818608E-02  0.1180000E+00
       11   -1    0    0    0    0  0.00000000000E+00  0.00000000000E+00  0.10559998763E+01  0.10560000000E+01  0.51109989000E-03 0.  1.
     -623   -1    0    0    0    0  0.00000000000E+00  0.00000000000E+00  0.47855275298E-10  0.17124000000E+03  0.17124000000E+03 0.  1.
       11    1    1    2    0    0  0.18125642043E-02 -0.37175043595E-04  0.97030312315E+00  0.97030495144E+00  0.51109989000E-03 0.  1.
     -623    1    1    2    0    0 -0.79979679323E-03  0.11191107917E-02  0.14525665854E-04  0.17124000001E+03  0.17124000000E+03 0.  1.
       22    1    1    2    0    0 -0.10127674248E-02 -0.10819357289E-02  0.85682209505E-01  0.85695024992E-01  0.00000000000E+00 0.  1.
</event>
<event>
 5   1  0.2192208E+09  0.9118800E+02  0.7818608E-02  0.1180000E+00
       11   -1    0    0    0    0  0.00000000000E+00  0.00000000000E+00  0.10559998763E+01  0.10560000000E+01  0.51109989000E-03 0. -1.
     -623   -1    0    0    0    0  0.00000000000E+00  0.00000000000E+00  0.47855275298E-10  0.17124000000E+03  0.17124000000E+03 0.  1.
       11    1    1    2    0    0 -0.59653960865E-04  0.11734990574E-02  0.58593979985E-01  0.58607988979E-01  0.51109989000E-03 0.  1.
     -623    1    1    2    0    0  0.19809014951E-02 -0.21308824059E-01  0.22034028209E-03  0.17124000134E+03  0.17124000000E+03 0.  1.
       22    1    1    2    0    0 -0.19212474261E-02  0.20135323838E-01  0.99718549847E+00  0.99739061597E+00  0.00000000000E+00 0. -1.
</event>
<event>
 5   1  0.2192208E+09  0.9118800E+02  0.7818608E-02  0.1180000E+00
       11   -1    0    0    0    0  0.00000000000E+00  0.00000000000E+00  0.10559998763E+01  0.10560000000E+01  0.51109989000E-03 0.  1.
     -623   -1    0    0    0    0  0.00000000000E+00  0.00000000000E+00  0.47855275298E-10  0.17124000000E+03  0.17124000000E+03 0.  1.
       11    1    1    2    0    0  0.10985706021E-01 -0.39421415391E-02  0.62700920248E+00  0.62711803309E+00  0.51109989000E-03 0.  1.
     -623    1    1    2    0    0 -0.73677549271E-02  0.99389295687E-02  0.16634264057E-03  0.17124000045E+03  0.17124000000E+03 0.  1.
       22    1    1    2    0    0 -0.36179510744E-02 -0.59967880565E-02  0.42882433410E+00  0.42888152275E+00  0.00000000000E+00 0. -1.
</event>
<event>
 5   1  0.2192208E+09  0.9118800E+02  0.7818608E-02  0.1180000E+00
       11   -1    0    0    0    0  0.00000000000E+00  0.00000000000E+00  0.10559998763E+01  0.10560000000E+01  0.51109989000E-03 0.  1.
     -623   -1    0    0    0    0  0.00000000000E+00  0.00000000000E+00  0.47855275298E-10  0.17124000000E+03  0.17124000000E+03 0. -1.
       11    1    1    2    0    0  0.34499767477E-02  0.71604463895E-02  0.68535571504E+00  0.68540199277E+00  0.51109989000E-03 0.  1.
     -623    1    1    2    0    0  0.46690481893E-03  0.41611037888E-03  0.14431530816E-03  0.17124000000E+03  0.17124000000E+03 0. -1.
       22    1    1    2    0    0 -0.39168815660E-02 -0.75765567678E-02  0.37049984451E+00  0.37059800452E+00  0.00000000000E+00 0. -1.
</event>
<event>
 5   1  0.2192208E+09  0.9118800E+02  0.7818608E-02  0.1180000E+00
       11   -1    0    0    0    0  0.00000000000E+00  0.00000000000E+00  0.10559998763E+01  0.10560000000E+01  0.51109989000E-03 0. -1.
     -623   -1    0    0    0    0  0.00000000000E+00  0.00000000000E+00  0.47855275298E-10  0.17124000000E+03  0.17124000000E+03 0.  1.
       11    1    1    2    0    0 -0.13149499174E-01 -0.50593443762E-02  0.25974179166E+00  0.26012413546E+00  0.51109989000E-03 0. -1.
     -623    1    1    2    0    0 -0.40217042848E-02  0.17930269111E-01  0.67257118211E-03  0.17124000099E+03  0.17124000000E+03 0.  1.
       22    1    1    2    0    0  0.17171203458E-01 -0.12870924732E-01  0.79558551333E+00  0.79587487707E+00  0.00000000000E+00 0. -1.
</event>
<event>
 5   1  0.2192208E+09  0.9118800E+02  0.7818608E-02  0.1180000E+00
       11   -1    0    0    0    0  0.00000000000E+00  0.00000000000E+00  0.10559998763E+01  0.10560000000E+01  0.51109989000E-03 0.  1.
     -623   -1    0    0    0    0  0.00000000000E+00  0.00000000000E+00  0.47855275298E-10  0.17124000000E+03  0.17124000000E+03 0. -1.
       11    1    1    2    0    0  0.54913428843E-01 -0.10696383931E-01  0.96007407266E+00  0.96170285614E+00  0.51109989000E-03 0.  1.
     -623    1    1    2    0    0 -0.57336978208E-01  0.85076533502E-02  0.16950469850E-02  0.17124000982E+03  0.17124000000E+03 0. -1.
       22    1    1    2    0    0  0.24235494215E-02  0.21887305722E-02  0.94230757766E-01  0.94287325991E-01  0.00000000000E+00 0.  1.
</event>
<event>
 5   1  0.2192208E+09  0.9118800E+02  0.7818608E-02  0.1180000E+00
       11   -1    0    0    0    0  0.00000000000E+00  0.00000000000E+00  0.10559998763E+01  0.10560000000E+01  0.51109989000E-03 0. -1.
     -623   -1    0    0    0    0  0.00000000000E+00  0.00000000000E+00  0.47855275298E-10  0.17124000000E+03  0.17124000000E+03 0.  1.
       11    1    1    2    0    0  0.16397879685E-02  0.30403481817E-02  0.89870788497E+00  0.89871466905E+00  0.51109989000E-03 0. -1.
     -623    1    1    2    0    0 -0.18775010100E-03 -0.93114504140E-04  0.40979656862E-04  0.17124000000E+03  0.17124000000E+03 0.  1.
       22    1    1    2    0    0 -0.14520378678E-02 -0.29472336777E-02  0.15725100982E+00  0.15728532891E+00  0.00000000000E+00 0. -1.
</event>
<event>
 5   1  0.2192208E+09  0.9118800E+02  0.7818608E-02  0.1180000E+00
       11   -1    0    0    0    0  0.00000000000E+00  0.00000000000E+00  0.10559998763E+01  0.10560000000E+01  0.51109989000E-03 0.  1.
     -623   -1    0    0    0    0  0.00000000000E+00  0.00000000000E+00  0.47855275298E-10  0.17124000000E+03  0.17124000000E+03 0. -1.
       11    1    1    2    0    0 -0.29415489402E-03 -0.39029926028E-02  0.77779091970E+00  0.77780093589E+00  0.51109989000E-03 0.  1.
     -623    1    1    2    0    0  0.92729651246E-04 -0.52714650756E-05  0.37419375038E-04  0.17124000000E+03  0.17124000000E+03 0. -1.
       22    1    1    2    0    0  0.20142524134E-03  0.39082640680E-02  0.27817155361E+00  0.27819908040E+00  0.00000000000E+00 0.  1.
</event>
<event>
 5   1  0.2192208E+09  0.9118800E+02  0.7818608E-02  0.1180000E+00
       11   -1    0    0    0    0  0.00000000000E+00  0.00000000000E+00  0.10559998763E+01  0.10560000000E+01  0.51109989000E-03 0.  1.
     -623   -1    0    0    0    0  0.00000000000E+00  0.00000000000E+00  0.47855275298E-10  0.17124000000E+03  0.17124000000E+03 0. -1.
       11    1    1    2    0    0 -0.61127422072E-02 -0.12254679500E-01  0.96138710649E+00  0.96148477499E+00  0.51109989000E-03 0.  1.
     -623    1    1    2    0    0  0.64394037597E-02  0.13650590093E-01  0.10908347396E-03  0.17124000067E+03  0.17124000000E+03 0. -1.
       22    1    1    2    0    0 -0.32666255069E-03 -0.13959127085E-02  0.94503850087E-01  0.94514723519E-01  0.00000000000E+00 0. -1.
</event>
<event>
 5   1  0.2192208E+09  0.9118800E+02  0.7818608E-02  0.1180000E+00
       11   -1    0    0    0    0  0.00000000000E+00  0.00000000000E+00  0.10559998763E+01  0.10560000000E+01  0.51109989000E-03 0. -1.
     -623   -1    0    0    0    0  0.00000000000E+00  0.00000000000E+00  0.47855275298E-10  0.17124000000E+03  0.17124000000E+03 0. -1.
       11    1    1    2    0    0  0.10525228156E-01  0.11807687752E-01  0.28586743003E+00  0.28630517056E+00  0.51109989000E-03 0. -1.
     -623    1    1    2    0    0 -0.13093760120E-01  0.37657582828E-02  0.60001368488E-03  0.17124000054E+03  0.17124000000E+03 0. -1.
       22    1    1    2    0    0  0.25685319646E-02 -0.15573446035E-01  0.76953243269E+00  0.76969428642E+00  0.00000000000E+00 0. -1.
</event>
<event>
 5   1  0.2192208E+09  0.9118800E+02  0.7818608E-02  0.1180000E+00
       11   -1    0    0    0    0  0.00000000000E+00  0.00000000000E+00  0.10559998763E+01  0.10560000000E+01  0.51109989000E-03 0. -1.
     -623   -1    0    0    0    0  0.00000000000E+00  0.00000000000E+00  0.47855275298E-10  0.17124000000E+03  0.17124000000E+03 0. -1.
       11    1    1    2    0    0  0.86409883555E-03  0.97469906883E-02  0.44381373417E+00  0.44392188768E+00  0.51109989000E-03 0. -1.
     -623    1    1    2    0    0 -0.21757049588E-02 -0.21789304660E-01  0.22931052796E-03  0.17124000140E+03  0.17124000000E+03 0. -1.
       22    1    1    2    0    0  0.13116061914E-02  0.12042314654E-01  0.61195686472E+00  0.61207674513E+00  0.00000000000E+00 0. -1.
</event>
<event>
 5   1  0.2192208E+09  0.9118800E+02  0.7818608E-02  0.1180000E+00
       11   -1    0    0    0    0  0.00000000000E+00  0.00000000000E+00  0.10559998763E+01  0.10560000000E+01  0.51109989000E-03 0. -1.
     -623   -1    0    0    0    0  0.00000000000E+00  0.00000000000E+00  0.47855275298E-10  0.17124000000E+03  0.17124000000E+03 0.  1.
       11    1    1    2    0    0  0.52420901750E-02 -0.19151657361E-01  0.79223006668E+00  0.79247902513E+00  0.51109989000E-03 0. -1.
     -623    1    1    2    0    0 -0.69787937445E-02  0.23948154267E-01  0.30003150552E-03  0.17124000182E+03  0.17124000000E+03 0.  1.
       22    1    1    2    0    0  0.17367045639E-02 -0.47965003189E-02  0.26346992861E+00  0.26351930828E+00  0.00000000000E+00 0. -1.
</event>
<event>
 5   1  0.2192208E+09  0.9118800E+02  0.7818608E-02  0.1180000E+00
       11   -1    0    0    0    0  0.00000000000E+00  0.00000000000E+00  0.10559998763E+01  0.10560000000E+01  0.51109989000E-03 0. -1.
     -623   -1    0    0    0    0  0.00000000000E+00  0.00000000000E+00  0.47855275298E-10  0.17124000000E+03  0.17124000000E+03 0.  1.
       11    1    1    2    0    0  0.94077621076E-03 -0.26122240830E-02  0.23882364760E+00  0.23884033297E+00  0.51109989000E-03 0. -1.
     -623    1    1    2    0    0 -0.72699522352E-02  0.13139090282E-01  0.10954117828E-03  0.17124000066E+03  0.17124000000E+03 0.  1.
       22    1    1    2    0    0  0.63291771642E-02 -0.10526868259E-01  0.81706685312E+00  0.81715917415E+00  0.00000000000E+00 0. -1.
</event>
<event>
 5   1  0.2192208E+09  0.9118800E+02  0.7818608E-02  0.1180000E+00
       11   -1    0    0    0    0  0.00000000000E+00  0.00000000000E+00  0.10559998763E+01  0.10560000000E+01  0.51109989000E-03 0. -1.
     -623   -1    0    0    0    0  0.00000000000E+00  0.00000000000E+00  0.47855275298E-10  0.17124000000E+03  0.17124000000E+03 0. -1.
       11    1    1    2    0    0 -0.50429260297E-03 -0.80321087844E-03  0.98711022248E+00  0.98711081040E+00  0.51109989000E-03 0. -1.
     -623    1    1    2    0    0  0.65056498838E-04  0.74753596511E-04  0.57162617755E-05  0.17124000000E+03  0.17124000000E+03 0. -1.
       22    1    1    2    0    0  0.43923610059E-03  0.72845727786E-03  0.68883995044E-01  0.68889246995E-01  0.00000000000E+00 0.  1.
</event>
<event>
 5   1  0.2192208E+09  0.9118800E+02  0.7818608E-02  0.1180000E+00
       11   -1    0    0    0    0  0.00000000000E+00  0.00000000000E+00  0.10559998763E+01  0.10560000000E+01  0.51109989000E-03 0. -1.
     -623   -1    0    0    0    0  0.00000000000E+00  0.00000000000E+00  0.47855275298E-10  0.17124000000E+03  0.17124000000E+03 0. -1.
       11    1    1    2    0    0 -0.32024707343E-03 -0.11113348098E-01  0.66718211739E+00  0.66727494187E+00  0.51109989000E-03 0. -1.
     -623    1    1    2    0    0 -0.68388242466E-03  0.17230898693E-01  0.14300674728E-03  0.17124000087E+03  0.17124000000E+03 0. -1.
       22    1    1    2    0    0  0.10041296483E-02 -0.61175543797E-02  0.38867498411E+00  0.38872442169E+00  0.00000000000E+00 0. -1.
</event>
<event>
 5   1  0.2192208E+09  0.9118800E+02  0.7818608E-02  0.1180000E+00
       11   -1    0    0    0    0  0.00000000000E+00  0.00000000000E+00  0.10559998763E+01  0.10560000000E+01  0.51109989000E-03 0. -1.
     -623   -1    0    0    0    0  0.00000000000E+00  0.00000000000E+00  0.47855275298E-10  0.17124000000E+03  0.17124000000E+03 0.  1.
       11    1    1    2    0    0  0.23848491941E-03  0.70886301408E-03  0.98990346957E+00  0.98990388404E+00  0.51109989000E-03 0. -1.
     -623    1    1    2    0    0 -0.38029482194E-05 -0.21162671267E-04  0.42851957560E-05  0.17124000000E+03  0.17124000000E+03 0.  1.
       22    1    1    2    0    0 -0.23468197087E-03 -0.68770034103E-03  0.66092210911E-01  0.66096205265E-01  0.00000000000E+00 0. -1.
</event>
<event>
 5   1  0.2192208E+09  0.9118800E+02  0.7818608E-02  0.1180000E+00
       11   -1    0    0    0    0  0.00000000000E+00  0.00000000000E+00  0.10559998763E+01  0.10560000000E+01  0.51109989000E-03 0. -1.
     -623   -1    0    0    0    0  0.00000000000E+00  0.00000000000E+00  0.47855275298E-10  0.17124000000E+03  0.17124000000E+03 0.  1.
       11    1    1    2    0    0 -0.87061870192E-03 -0.89677019134E-02  0.98977170145E+00  0.98981284083E+00  0.51109989000E-03 0. -1.
     -623    1    1    2    0    0 -0.49263016220E-03  0.10570005667E-01  0.74785468761E-04  0.17124000033E+03  0.17124000000E+03 0.  1.
       22    1    1    2    0    0  0.13632488644E-02 -0.16023037596E-02  0.66153390090E-01  0.66186832869E-01  0.00000000000E+00 0.  1.
</event>
<event>
 5   1  0.2192208E+09  0.9118800E+02  0.7818608E-02  0.1180000E+00
       11   -1    0    0    0    0  0.00000000000E+00  0.00000000000E+00  0.10559998763E+01  0.10560000000E+01  0.51109989000E-03 0. -1.
     -623   -1    0    0    0    0  0.00000000000E+00  0.00000000000E+00  0.47855275298E-10  0.17124000000E+03  0.17124000000E+03 0.  1.
       11    1    1    2    0    0 -0.26358753809E-02  0.35919190682E-02  0.97047383033E+00  0.97048419168E+00  0.51109989000E-03 0. -1.
     -623    1    1    2    0    0  0.46253646279E-02  0.53133678698E-03  0.13293546186E-03  0.17124000006E+03  0.17124000000E+03 0.  1.
       22    1    1    2    0    0 -0.19894892551E-02 -0.41232558561E-02  0.85393112429E-01  0.85515746834E-01  0.00000000000E+00 0. -1.
</event>
<event>
 5   1  0.2192208E+09  0.9118800E+02  0.7818608E-02  0.1180000E+00
       11   -1    0    0    0    0  0.00000000000E+00  0.00000000000E+00  0.10559998763E+01  0.10560000000E+01  0.51109989000E-03 0. -1.
     -623   -1    0    0    0    0  0.00000000000E+00  0.00000000000E+00  0.47855275298E-10  0.17124000000E+03  0.17124000000E+03 0. -1.
       11    1    1    2    0    0 -0.58441223255E-02  0.22731243527E-02  0.44687062009E+00  0.44691490598E+00  0.51109989000E-03 0. -1.
     -623    1    1    2    0    0  0.15737125152E-01 -0.10132214436E-01  0.17624593463E-03  0.17124000102E+03  0.17124000000E+03 0. -1.
       22    1    1    2    0    0 -0.98930034237E-02  0.78590904679E-02  0.60895305043E+00  0.60908411114E+00  0.00000000000E+00 0. -1.
</event>
<event>
 5   1  0.2192208E+09  0.9118800E+02  0.7818608E-02  0.1180000E+00
       11   -1    0    0    0    0  0.00000000000E+00  0.00000000000E+00  0.10559998763E+01  0.10560000000E+01  0.51109989000E-03 0.  1.
     -623   -1    0    0    0    0  0.00000000000E+00  0.00000000000E+00  0.47855275298E-10  0.17124000000E+03  0.17124000000E+03 0. -1.
       11    1    1    2    0    0  0.23348264175E-02 -0.21544427709E-01  0.98603222929E+00  0.98627046605E+00  0.51109989000E-03 0.  1.
     -623    1    1    2    0    0 -0.22149713632E-02  0.23483870307E-01  0.26681846846E-03  0.17124000162E+03  0.17124000000E+03 0. -1.
       22    1    1    2    0    0 -0.11985521852E-03 -0.19394408566E-02  0.69700750336E-01  0.69727830839E-01  0.00000000000E+00 0. -1.
</event>
<event>
 5   1  0.2192208E+09  0.9118800E+02  0.7818608E-02  0.1180000E+00
       11   -1    0    0    0    0  0.00000000000E+00  0.00000000000E+00  0.10559998763E+01  0.10560000000E+01  0.51109989000E-03 0.  1.
     -623   -1    0    0    0    0  0.00000000000E+00  0.00000000000E+00  0.47855275298E-10  0.17124000000E+03  0.17124000000E+03 0.  1.
       11    1    1    2    0    0 -0.34835865687E-03  0.55168439386E-03  0.10049259747E+01  0.10049263164E+01  0.51109989000E-03 0.  1.
     -623    1    1    2    0    0  0.11178516482E-04  0.41193786873E-04  0.47725007086E-05  0.17124000000E+03  0.17124000000E+03 0.  1.
       22    1    1    2    0    0  0.33718013938E-03 -0.59287818444E-03  0.51069224108E-01  0.51073778458E-01  0.00000000000E+00 0.  1.
</event>
<event>
 5   1  0.2192208E+09  0.9118800E+02  0.7818608E-02  0.1180000E+00
       11   -1    0    0    0    0  0.00000000000E+00  0.00000000000E+00  0.10559998763E+01  0.10560000000E+01  0.51109989000E-03 0. -1.
     -623   -1    0    0    0    0  0.00000000000E+00  0.00000000000E+00  0.47855275298E-10  0.17124000000E+03  0.17124000000E+03 0. -1.
       11    1    1    2    0    0 -0.53770877600E-03  0.10010836350E-02  0.99115564538E+00  0.99115642856E+00  0.51109989000E-03 0. -1.
     -623    1    1    2    0    0 -0.22249651922E-04  0.33115012042E-04  0.11325477205E-04  0.17124000000E+03  0.17124000000E+03 0. -1.
       22    1    1    2    0    0  0.55995842901E-03 -0.10341986486E-02  0.64832957054E-01  0.64843622976E-01  0.00000000000E+00 0.  1.
</event>
<event>
 5   1  0.2192208E+09  0.9118800E+02  0.7818608E-02  0.1180000E+00
       11   -1    0    0    0    0  0.00000000000E+00  0.00000000000E+00  0.10559998763E+01  0.10560000000E+01  0.51109989000E-03 0.  1.
     -623   -1    0    0    0    0  0.00000000000E+00  0.00000000000E+00  0.47855275298E-10  0.17124000000E+03  0.17124000000E+03 0.  1.
       11    1    1    2    0    0 -0.43178268580E-02  0.42137316656E-02  0.80562411764E+00  0.80564687011E+00  0.51109989000E-03 0.  1.
     -623    1    1    2    0    0 -0.62145575258E-03  0.13401304035E-03  0.10912162536E-03  0.17124000000E+03  0.17124000000E+03 0.  1.
       22    1    1    2    0    0  0.49392826131E-02 -0.43477447065E-02  0.25026664140E+00  0.25035313298E+00  0.00000000000E+00 0.  1.
</event>
<event>
 5   1  0.2192208E+09  0.9118800E+02  0.7818608E-02  0.1180000E+00
       11   -1    0    0    0    0  0.00000000000E+00  0.00000000000E+00  0.10559998763E+01  0.10560000000E+01  0.51109989000E-03 0. -1.
     -623   -1    0    0    0    0  0.00000000000E+00  0.00000000000E+00  0.47855275298E-10  0.17124000000E+03  0.17124000000E+03 0.  1.
       11    1    1    2    0    0 -0.69488483406E-02  0.69637048606E-02  0.87987854648E+00  0.87993368924E+00  0.51109989000E-03 0. -1.
     -623    1    1    2    0    0  0.85782786127E-02 -0.88249827577E-02  0.72840409947E-04  0.17124000044E+03  0.17124000000E+03 0.  1.
       22    1    1    2    0    0 -0.16294340962E-02  0.18612818311E-02  0.17604896020E+00  0.17606633924E+00  0.00000000000E+00 0. -1.
</event>
<event>
 5   1  0.2192208E+09  0.9118800E+02  0.7818608E-02  0.1180000E+00
       11   -1    0    0    0    0  0.00000000000E+00  0.00000000000E+00  0.10559998763E+01  0.10560000000E+01  0.51109989000E-03 0.  1.
     -623   -1    0    0    0    0  0.00000000000E+00  0.00000000000E+00  0.47855275298E-10  0.17124000000E+03  0.17124000000E+03 0.  1.
       11    1    1    2    0    0  0.43654380803E-02  0.14994242708E-01  0.52529101909E+00  0.52552335850E+00  0.51109989000E-03 0.  1.
     -623    1    1    2    0    0 -0.11368929782E-01 -0.28209426384E-01  0.44579896374E-03  0.17124000270E+03  0.17124000000E+03 0.  1.
       22    1    1    2    0    0  0.70034916011E-02  0.13215183426E-01  0.53026304894E+00  0.53047393060E+00  0.00000000000E+00 0.  1.
</event>
<event>
 5   1  0.2192208E+09  0.9118800E+02  0.7818608E-02  0.1180000E+00
       11   -1    0    0    0    0  0.00000000000E+00  0.00000000000E+00  0.10559998763E+01  0.10560000000E+01  0.51109989000E-03 0.  1.
     -623   -1    0    0    0    0  0.00000000000E+00  0.00000000000E+00  0.47855275298E-10  0.17124000000E+03  0.17124000000E+03 0.  1.
       11    1    1    2    0    0  0.94085494712E-02  0.14607458086E-02  0.65637974717E+00  0.65644899901E+00  0.51109989000E-03 0.  1.
     -623    1    1    2    0    0 -0.12442549263E-01 -0.66943415842E-02  0.11550983622E-03  0.17124000058E+03  0.17124000000E+03 0.  1.
       22    1    1    2    0    0  0.30339998974E-02  0.52335958324E-02  0.39950462831E+00  0.39955042700E+00  0.00000000000E+00 0.  1.
</event>
<event>
 5   1  0.2192208E+09  0.9118800E+02  0.7818608E-02  0.1180000E+00
       11   -1    0    0    0    0  0.00000000000E+00  0.00000000000E+00  0.10559998763E+01  0.10560000000E+01  0.51109989000E-03 0. -1.
     -623   -1    0    0    0    0  0.00000000000E+00  0.00000000000E+00  0.47855275298E-10  0.17124000000E+03  0.17124000000E+03 0.  1.
       11    1    1    2    0    0  0.69804666684E-02 -0.12682471936E-02  0.71140840091E+00  0.71144396088E+00  0.51109989000E-03 0. -1.
     -623    1    1    2    0    0  0.12593851076E-01 -0.73175256130E-02  0.69968022721E-03  0.17124000062E+03  0.17124000000E+03 0.  1.
       22    1    1    2    0    0 -0.19574317739E-01  0.85857728038E-02  0.34389179481E+00  0.34455541782E+00  0.00000000000E+00 0.  1.
</event>
<event>
 5   1  0.2192208E+09  0.9118800E+02  0.7818608E-02  0.1180000E+00
       11   -1    0    0    0    0  0.00000000000E+00  0.00000000000E+00  0.10559998763E+01  0.10560000000E+01  0.51109989000E-03 0. -1.
     -623   -1    0    0    0    0  0.00000000000E+00  0.00000000000E+00  0.47855275298E-10  0.17124000000E+03  0.17124000000E+03 0.  1.
       11    1    1    2    0    0  0.26043018070E-02 -0.43158620334E-02  0.94975842293E+00  0.94977193695E+00  0.51109989000E-03 0. -1.
     -623    1    1    2    0    0 -0.32726457175E-02  0.64166632419E-02  0.36419911485E-04  0.17124000015E+03  0.17124000000E+03 0.  1.
       22    1    1    2    0    0  0.66834394759E-03 -0.21008012811E-02  0.10620504547E+00  0.10622792350E+00  0.00000000000E+00 0. -1.
</event>
<event>
 5   1  0.2192208E+09  0.9118800E+02  0.7818608E-02  0.1180000E+00
       11   -1    0    0    0    0  0.00000000000E+00  0.00000000000E+00  0.10559998763E+01  0.10560000000E+01  0.51109989000E-03 0.  1.
     -623   -1    0    0    0    0  0.00000000000E+00  0.00000000000E+00  0.47855275298E-10  0.17124000000E+03  0.17124000000E+03 0. -1.
       11    1    1    2    0    0  0.30776703304E-02  0.53736851949E-02  0.25367470940E+00  0.25375079893E+00  0.51109989000E-03 0.  1.
     -623    1    1    2    0    0 -0.14465312283E-01 -0.21574356589E-01  0.32237453316E-03  0.17124000197E+03  0.17124000000E+03 0. -1.
       22    1    1    2    0    0  0.11387644807E-01  0.16200675651E-01  0.80200300074E+00  0.80224743910E+00  0.00000000000E+00 0.  1.
</event>
<event>
 5   1  0.2268792E+10  0.9118800E+02  0.7818608E-02  0.1180000E+00
       11   -1    0    0    0    0  0.00000000000E+00  0.00000000000E+00  0.10559998763E+01  0.10560000000E+01  0.51109989000E-03 0.  1.
     -623   -1    0    0    0    0  0.00000000000E+00  0.00000000000E+00  0.47855275298E-10  0.17124000000E+03  0.17124000000E+03 0. -1.
       11    1    1    2    0    0  0.27987544513E-01 -0.16593572968E-01  0.78856907046E-01  0.85307223162E-01  0.51109989000E-03 0.  1.
     -623    1    1    2    0    0  0.71112669821E-02  0.88088251577E-01  0.97463386807E-02  0.17124002308E+03  0.17124000000E+03 0. -1.
       22    1    1    2    0    0 -0.35098811495E-01 -0.71494678610E-01  0.96739663066E+00  0.97066969493E+00  0.00000000000E+00 0.  1.
</event>
<event>
 5   1  0.2192208E+09  0.9118800E+02  0.7818608E-02  0.1180000E+00
       11   -1    0    0    0    0  0.00000000000E+00  0.00000000000E+00  0.10559998763E+01  0.10560000000E+01  0.51109989000E-03 0. -1.
     -623   -1    0    0    0    0  0.00000000000E+00  0.00000000000E+00  0.47855275298E-10  0.17124000000E+03  0.17124000000E+03 0. -1.
       11    1    1    2    0    0  0.70612336265E-04  0.74997281776E-02  0.78974628640E+00  0.78978206425E+00  0.51109989000E-03 0. -1.
     -623    1    1    2    0    0 -0.50388280423E-03 -0.10780144379E-01  0.56558813259E-04  0.17124000034E+03  0.17124000000E+03 0. -1.
       22    1    1    2    0    0  0.43327058878E-03  0.32804187863E-02  0.26619728433E+00  0.26621784887E+00  0.00000000000E+00 0.  1.
</event>
<event>
 5   1  0.2192208E+09  0.9118800E+02  0.7818608E-02  0.1180000E+00
       11   -1    0    0    0    0  0.00000000000E+00  0.00000000000E+00  0.10559998763E+01  0.10560000000E+01  0.51109989000E-03 0.  1.
     -623   -1    0    0    0    0  0.00000000000E+00  0.00000000000E+00  0.47855275298E-10  0.17124000000E+03  0.17124000000E+03 0.  1.
       11    1    1    2    0    0 -0.22603446746E-02  0.28113687337E-02  0.88723999302E+00  0.88724747359E+00  0.51109989000E-03 0.  1.
     -623    1    1    2    0    0  0.56590059890E-03 -0.56028242075E-03  0.30881645278E-04  0.17124000000E+03  0.17124000000E+03 0.  1.
       22    1    1    2    0    0  0.16944440763E-02 -0.22510863135E-02  0.16872900070E+00  0.16875252356E+00  0.00000000000E+00 0.  1.
</event>
<event>
 5   1  0.2192208E+09  0.9118800E+02  0.7818608E-02  0.1180000E+00
       11   -1    0    0    0    0  0.00000000000E+00  0.00000000000E+00  0.10559998763E+01  0.10560000000E+01  0.51109989000E-03 0. -1.
     -623   -1    0    0    0    0  0.00000000000E+00  0.00000000000E+00  0.47855275298E-10  0.17124000000E+03  0.17124000000E+03 0. -1.
       11    1    1    2    0    0 -0.11840481254E-02 -0.85386627347E-03  0.96416883023E+00  0.96417007082E+00  0.51109989000E-03 0. -1.
     -623    1    1    2    0    0  0.54074336588E-04 -0.13523216422E-03  0.13396820869E-04  0.17124000000E+03  0.17124000000E+03 0. -1.
       22    1    1    2    0    0  0.11299737884E-02  0.98909843883E-03  0.91817658205E-01  0.91829938009E-01  0.00000000000E+00 0. -1.
</event>
<event>
 5   1  0.2192208E+09  0.9118800E+02  0.7818608E-02  0.1180000E+00
       11   -1    0    0    0    0  0.00000000000E+00  0.00000000000E+00  0.10559998763E+01  0.10560000000E+01  0.51109989000E-03 0. -1.
     -623   -1    0    0    0    0  0.00000000000E+00  0.00000000000E+00  0.47855275298E-10  0.17124000000E+03  0.17124000000E+03 0. -1.
       11    1    1    2    0    0 -0.22572082397E-03  0.51136061931E-03  0.98741465428E+00  0.98741494477E+00  0.51109989000E-03 0. -1.
     -623    1    1    2    0    0  0.37174551684E-04  0.20037513648E-03  0.41192454239E-05  0.17124000000E+03  0.17124000000E+03 0. -1.
       22    1    1    2    0    0  0.18854627542E-03 -0.71173573890E-03  0.68581013790E-01  0.68584966064E-01  0.00000000000E+00 0. -1.
</event>
<event>
 5   1  0.2192208E+09  0.9118800E+02  0.7818608E-02  0.1180000E+00
       11   -1    0    0    0    0  0.00000000000E+00  0.00000000000E+00  0.10559998763E+01  0.10560000000E+01  0.51109989000E-03 0. -1.
     -623   -1    0    0    0    0  0.00000000000E+00  0.00000000000E+00  0.47855275298E-10  0.17124000000E+03  0.17124000000E+03 0. -1.
       11    1    1    2    0    0 -0.24364593269E-03  0.38037750619E-03  0.10052515384E+01  0.10052517699E+01  0.51109989000E-03 0. -1.
     -623    1    1    2    0    0 -0.70962053082E-04  0.22565296852E-03  0.47019205240E-05  0.17124000000E+03  0.17124000000E+03 0. -1.
       22    1    1    2    0    0  0.31460798775E-03 -0.60603048099E-03  0.50743665419E-01  0.50748259392E-01  0.00000000000E+00 0.  1.
</event>
<event>
 5   1  0.2192208E+09  0.9118800E+02  0.7818608E-02  0.1180000E+00
       11   -1    0    0    0    0  0.00000000000E+00  0.00000000000E+00  0.10559998763E+01  0.10560000000E+01  0.51109989000E-03 0.  1.
     -623   -1    0    0    0    0  0.00000000000E+00  0.00000000000E+00  0.47855275298E-10  0.17124000000E+03  0.17124000000E+03 0. -1.
       11    1    1    2    0    0  0.51789045830E-02  0.84076058999E-02  0.64098211072E+00  0.64105837205E+00  0.51109989000E-03 0.  1.
     -623    1    1    2    0    0  0.14251065317E-02 -0.14242414070E-01  0.17032364048E-03  0.17124000060E+03  0.17124000000E+03 0. -1.
       22    1    1    2    0    0 -0.66040111131E-02  0.58348081546E-02  0.41484744087E+00  0.41494102852E+00  0.00000000000E+00 0.  1.
</event>
<event>
 5   1  0.2192208E+09  0.9118800E+02  0.7818608E-02  0.1180000E+00
       11   -1    0    0    0    0  0.00000000000E+00  0.00000000000E+00  0.10559998763E+01  0.10560000000E+01  0.51109989000E-03 0. -1.
     -623   -1    0    0    0    0  0.00000000000E+00  0.00000000000E+00  0.47855275298E-10  0.17124000000E+03  0.17124000000E+03 0.  1.
       11    1    1    2    0    0  0.88388202076E-02 -0.16317163885E-01  0.96459037869E+00  0.96476900576E+00  0.51109989000E-03 0. -1.
     -623    1    1    2    0    0 -0.94738268370E-02  0.17677121452E-01  0.19202523740E-03  0.17124000117E+03  0.17124000000E+03 0.  1.
       22    1    1    2    0    0  0.63500354476E-03 -0.13599518114E-02  0.91217128662E-01  0.91229475828E-01  0.00000000000E+00 0. -1.
</event>
<event>
 5   1  0.2192208E+09  0.9118800E+02  0.7818608E-02  0.1180000E+00
       11   -1    0    0    0    0  0.00000000000E+00  0.00000000000E+00  0.10559998763E+01  0.10560000000E+01  0.51109989000E-03 0.  1.
     -623   -1    0    0    0    0  0.00000000000E+00  0.00000000000E+00  0.47855275298E-10  0.17124000000E+03  0.17124000000E+03 0. -1.
       11    1    1    2    0    0 -0.13347680471E-01 -0.15413693798E-01  0.95398048207E+00  0.95419849293E+00  0.51109989000E-03 0.  1.
     -623    1    1    2    0    0  0.14731808709E-01  0.17292308861E-01  0.24614136680E-03  0.17124000151E+03  0.17124000000E+03 0. -1.
       22    1    1    2    0    0 -0.13841295731E-02 -0.18786166300E-02  0.10177334862E+00  0.10180009580E+00  0.00000000000E+00 0. -1.
</event>
<event>
 5   1  0.2192208E+09  0.9118800E+02  0.7818608E-02  0.1180000E+00
       11   -1    0    0    0    0  0.00000000000E+00  0.00000000000E+00  0.10559998763E+01  0.10560000000E+01  0.51109989000E-03 0. -1.
     -623   -1    0    0    0    0  0.00000000000E+00  0.00000000000E+00  0.47855275298E-10  0.17124000000E+03  0.17124000000E+03 0.  1.
       11    1    1    2    0    0 -0.77848377480E-03 -0.18093556201E-02  0.90983799833E+00  0.90984027403E+00  0.51109989000E-03 0. -1.
     -623    1    1    2    0    0  0.34295815188E-04 -0.15438264906E-05  0.15265606573E-04  0.17124000000E+03  0.17124000000E+03 0.  1.
       22    1    1    2    0    0  0.74418796002E-03  0.18108994466E-02  0.14614659979E+00  0.14615971334E+00  0.00000000000E+00 0. -1.
</event>
<event>
 5   1  0.2192208E+09  0.9118800E+02  0.7818608E-02  0.1180000E+00
       11   -1    0    0    0    0  0.00000000000E+00  0.00000000000E+00  0.10559998763E+01  0.10560000000E+01  0.51109989000E-03 0.  1.
     -623   -1    0    0    0    0  0.00000000000E+00  0.00000000000E+00  0.47855275298E-10  0.17124000000E+03  0.17124000000E+03 0. -1.
       11    1    1    2    0    0 -0.15822361426E-02 -0.25171009981E-02  0.84305579228E+00  0.84306118958E+00  0.51109989000E-03 0.  1.
     -623    1    1    2    0    0  0.25075758781E-02 -0.76222668646E-03  0.32557403068E-04  0.17124000002E+03  0.17124000000E+03 0. -1.
       22    1    1    2    0    0 -0.92533973195E-03  0.32793276835E-02  0.21291152522E+00  0.21293878889E+00  0.00000000000E+00 0. -1.
</event>
<event>
 5   1  0.2192208E+09  0.9118800E+02  0.7818608E-02  0.1180000E+00
       11   -1    0    0    0    0  0.00000000000E+00  0.00000000000E+00  0.10559998763E+01  0.10560000000E+01  0.51109989000E-03 0. -1.
     -623   -1    0    0    0    0  0.00000000000E+00  0.00000000000E+00  0.47855275298E-10  0.17124000000E+03  0.17124000000E+03 0.  1.
       11    1    1    2    0    0  0.22716100782E-02 -0.80386256705E-02  0.77990071566E+00  0.77994561812E+00  0.51109989000E-03 0. -1.
     -623    1    1    2    0    0 -0.29208751352E-02  0.11031477577E-01  0.62146687016E-04  0.17124000038E+03  0.17124000000E+03 0.  1.
       22    1    1    2    0    0  0.64926767752E-03 -0.29928618040E-02  0.27603796137E+00  0.27605494904E+00  0.00000000000E+00 0. -1.
</event>
<event>
 5   1  0.2192208E+09  0.9118800E+02  0.7818608E-02  0.1180000E+00
       11   -1    0    0    0    0  0.00000000000E+00  0.00000000000E+00  0.10559998763E+01  0.10560000000E+01  0.51109989000E-03 0. -1.
     -623   -1    0    0    0    0  0.00000000000E+00  0.00000000000E+00  0.47855275298E-10  0.17124000000E+03  0.17124000000E+03 0.  1.
       11    1    1    2    0    0  0.83879656114E-02  0.44706919837E-03  0.29875761423E+00  0.29887611333E+00  0.51109989000E-03 0. -1.
     -623    1    1    2    0    0 -0.28246783554E-01  0.13248126614E-01  0.50562114214E-03  0.17124000284E+03  0.17124000000E+03 0.  1.
       22    1    1    2    0    0  0.19858817943E-01 -0.13695195812E-01  0.75673664099E+00  0.75712104373E+00  0.00000000000E+00 0. -1.
</event>
<event>
 5   1  0.2192208E+09  0.9118800E+02  0.7818608E-02  0.1180000E+00
       11   -1    0    0    0    0  0.00000000000E+00  0.00000000000E+00  0.10559998763E+01  0.10560000000E+01  0.51109989000E-03 0.  1.
     -623   -1    0    0    0    0  0.00000000000E+00  0.00000000000E+00  0.47855275298E-10  0.17124000000E+03  0.17124000000E+03 0.  1.
       11    1    1    2    0    0  0.10767988050E-02 -0.34019899929E-02  0.27093915235E+00  0.27096313131E+00  0.51109989000E-03 0.  1.
     -623    1    1    2    0    0 -0.10798588663E-02  0.13593676512E-01  0.90557583338E-04  0.17124000054E+03  0.17124000000E+03 0.  1.
       22    1    1    2    0    0  0.30600674872E-05 -0.10191686597E-01  0.78497017247E+00  0.78503633174E+00  0.00000000000E+00 0.  1.
</event>
<event>
 5   1  0.2192208E+09  0.9118800E+02  0.7818608E-02  0.1180000E+00
       11   -1    0    0    0    0  0.00000000000E+00  0.00000000000E+00  0.10559998763E+01  0.10560000000E+01  0.51109989000E-03 0.  1.
     -623   -1    0    0    0    0  0.00000000000E+00  0.00000000000E+00  0.47855275298E-10  0.17124000000E+03  0.17124000000E+03 0. -1.
       11    1    1    2    0    0 -0.19744053967E-01  0.35212300304E-01  0.64306795623E+00  0.64433406810E+00  0.51109989000E-03 0.  1.
     -623    1    1    2    0    0  0.44439588353E-01 -0.51623215894E-01  0.23488170391E-02  0.17124001356E+03  0.17124000000E+03 0. -1.
       22    1    1    2    0    0 -0.24695534387E-01  0.16410915593E-01  0.41058310313E+00  0.41165236808E+00  0.00000000000E+00 0.  1.
</event>
<event>
 5   1  0.2192208E+09  0.9118800E+02  0.7818608E-02  0.1180000E+00
       11   -1    0    0    0    0  0.00000000000E+00  0.00000000000E+00  0.10559998763E+01  0.10560000000E+01  0.51109989000E-03 0. -1.
     -623   -1    0    0    0    0  0.00000000000E+00  0.00000000000E+00  0.47855275298E-10  0.17124000000E+03  0.17124000000E+03 0. -1.
       11    1    1    2    0    0 -0.27867007101E-02 -0.27642253245E-02  0.40805003755E+00  0.40806923556E+00  0.51109989000E-03 0. -1.
     -623    1    1    2    0    0 -0.46364118710E-02 -0.42861439869E-02  0.10007666562E-03  0.17124000012E+03  0.17124000000E+03 0. -1.
       22    1    1    2    0    0  0.74231125888E-02  0.70503693185E-02  0.64784976390E+00  0.64793064976E+00  0.00000000000E+00 0.  1.
</event>
<event>
 5   1  0.2192208E+09  0.9118800E+02  0.7818608E-02  0.1180000E+00
       11   -1    0    0    0    0  0.00000000000E+00  0.00000000000E+00  0.10559998763E+01  0.10560000000E+01  0.51109989000E-03 0. -1.
     -623   -1    0    0    0    0  0.00000000000E+00  0.00000000000E+00  0.47855275298E-10  0.17124000000E+03  0.17124000000E+03 0. -1.
       11    1    1    2    0    0 -0.39747016676E-02 -0.11241423499E-01  0.72824761245E+00  0.72834539479E+00  0.51109989000E-03 0. -1.
     -623    1    1    2    0    0  0.70788047267E-02  0.15792827224E-01  0.14485186654E-03  0.17124000087E+03  0.17124000000E+03 0. -1.
       22    1    1    2    0    0 -0.31041036009E-02 -0.45514049338E-02  0.32760749286E+00  0.32765381140E+00  0.00000000000E+00 0. -1.
</event>
<event>
 5   1  0.2192208E+09  0.9118800E+02  0.7818608E-02  0.1180000E+00
       11   -1    0    0    0    0  0.00000000000E+00  0.00000000000E+00  0.10559998763E+01  0.10560000000E+01  0.51109989000E-03 0. -1.
     -623   -1    0    0    0    0  0.00000000000E+00  0.00000000000E+00  0.47855275298E-10  0.17124000000E+03  0.17124000000E+03 0. -1.
       11    1    1    2    0    0 -0.15999957515E-01 -0.21785952931E-01  0.99974532156E+00  0.10001107917E+01  0.51109989000E-03 0. -1.
     -623    1    1    2    0    0  0.16930587946E-01  0.23495065101E-01  0.40168824023E-03  0.17124000245E+03  0.17124000000E+03 0. -1.
       22    1    1    2    0    0 -0.93063237951E-03 -0.17091148732E-02  0.55852988036E-01  0.55886880597E-01  0.00000000000E+00 0.  1.
</event>
<event>
 5   1  0.2192208E+09  0.9118800E+02  0.7818608E-02  0.1180000E+00
       11   -1    0    0    0    0  0.00000000000E+00  0.00000000000E+00  0.10559998763E+01  0.10560000000E+01  0.51109989000E-03 0.  1.
     -623   -1    0    0    0    0  0.00000000000E+00  0.00000000000E+00  0.47855275298E-10  0.17124000000E+03  0.17124000000E+03 0.  1.
       11    1    1    2    0    0 -0.86702171222E-03 -0.21964523588E-02  0.98712753741E+00  0.98713049414E+00  0.51109989000E-03 0.  1.
     -623    1    1    2    0    0 -0.85422822821E-05  0.66122466187E-03  0.25515310763E-04  0.17124000000E+03  0.17124000000E+03 0.  1.
       22    1    1    2    0    0  0.87556399468E-03  0.15352276834E-02  0.68846845313E-01  0.68869526250E-01  0.00000000000E+00 0. -1.
</event>
<event>
 5   1  0.2192208E+09  0.9118800E+02  0.7818608E-02  0.1180000E+00
       11   -1    0    0    0    0  0.00000000000E+00  0.00000000000E+00  0.10559998763E+01  0.10560000000E+01  0.51109989000E-03 0.  1.
     -623   -1    0    0    0    0  0.00000000000E+00  0.00000000000E+00  0.47855275298E-10  0.17124000000E+03  0.17124000000E+03 0.  1.
       11    1    1    2    0    0  0.13651852710E-01 -0.11656192687E-01  0.93921802585E+00  0.93938969614E+00  0.51109989000E-03 0.  1.
     -623    1    1    2    0    0 -0.15594198239E-01  0.13376089073E-01  0.20164313606E-03  0.17124000123E+03  0.17124000000E+03 0.  1.
       22    1    1    2    0    0  0.19423574675E-02 -0.17199066267E-02  0.11658101565E+00  0.11660987969E+00  0.00000000000E+00 0.  1.
</event>
<event>
 5   1  0.2192208E+09  0.9118800E+02  0.7818608E-02  0.1180000E+00
       11   -1    0    0    0    0  0.00000000000E+00  0.00000000000E+00  0.10559998763E+01  0.10560000000E+01  0.51109989000E-03 0.  1.
     -623   -1    0    0    0    0  0.00000000000E+00  0.00000000000E+00  0.47855275298E-10  0.17124000000E+03  0.17124000000E+03 0. -1.
       11    1    1    2    0    0  0.19486893521E-01 -0.20659221570E-01  0.35764817076E+00  0.35877432701E+00  0.51109989000E-03 0.  1.
     -623    1    1    2    0    0 -0.43480223060E-01  0.38826789706E-01  0.17858076486E-02  0.17124000993E+03  0.17124000000E+03 0. -1.
       22    1    1    2    0    0  0.23993329641E-01 -0.18167568227E-01  0.69656590044E+00  0.69721574427E+00  0.00000000000E+00 0.  1.
</event>
<event>
 5   1  0.2192208E+09  0.9118800E+02  0.7818608E-02  0.1180000E+00
       11   -1    0    0    0    0  0.00000000000E+00  0.00000000000E+00  0.10559998763E+01  0.10560000000E+01  0.51109989000E-03 0. -1.
     -623   -1    0    0    0    0  0.00000000000E+00  0.00000000000E+00  0.47855275298E-10  0.17124000000E+03  0.17124000000E+03 0. -1.
       11    1    1    2    0    0  0.20985385507E-02  0.42822776343E-03  0.99978116422E+00  0.99978358898E+00  0.51109989000E-03 0. -1.
     -623    1    1    2    0    0 -0.25316352862E-02 -0.14693918481E-02  0.13637110409E-04  0.17124000003E+03  0.17124000000E+03 0. -1.
       22    1    1    2    0    0  0.43309672670E-03  0.10411640795E-02  0.56205071365E-01  0.56216382333E-01  0.00000000000E+00 0. -1.
</event>
<event>
 5   1  0.2192208E+09  0.9118800E+02  0.7818608E-02  0.1180000E+00
       11   -1    0    0    0    0  0.00000000000E+00  0.00000000000E+00  0.10559998763E+01  0.10560000000E+01  0.51109989000E-03 0. -1.
     -623   -1    0    0    0    0  0.00000000000E+00  0.00000000000E+00  0.47855275298E-10  0.17124000000E+03  0.17124000000E+03 0. -1.
       11    1    1    2    0    0 -0.12089705240E-01  0.92995130257E-02  0.94166077857E+00  0.94178443660E+00  0.51109989000E-03 0. -1.
     -623    1    1    2    0    0  0.13651119323E-01 -0.10530983275E-01  0.14171555873E-03  0.17124000087E+03  0.17124000000E+03 0. -1.
       22    1    1    2    0    0 -0.15614020966E-02  0.12314610027E-02  0.11419645515E+00  0.11421376818E+00  0.00000000000E+00 0.  1.
</event>
<event>
 5   1  0.2192208E+09  0.9118800E+02  0.7818608E-02  0.1180000E+00
       11   -1    0    0    0    0  0.00000000000E+00  0.00000000000E+00  0.10559998763E+01  0.10560000000E+01  0.51109989000E-03 0.  1.
     -623   -1    0    0    0    0  0.00000000000E+00  0.00000000000E+00  0.47855275298E-10  0.17124000000E+03  0.17124000000E+03 0. -1.
       11    1    1    2    0    0 -0.13560287103E-01 -0.86305876927E-02  0.30837249144E+00  0.30879155288E+00  0.51109989000E-03 0.  1.
     -623    1    1    2    0    0  0.18238240898E-02 -0.21148444334E-02  0.58841737853E-03  0.17124000002E+03  0.17124000000E+03 0. -1.
       22    1    1    2    0    0  0.11736463013E-01  0.10745432126E-01  0.74703896769E+00  0.74720842348E+00  0.00000000000E+00 0.  1.
</event>
<event>
 5   1  0.2192208E+09  0.9118800E+02  0.7818608E-02  0.1180000E+00
       11   -1    0    0    0    0  0.00000000000E+00  0.00000000000E+00  0.10559998763E+01  0.10560000000E+01  0.51109989000E-03 0.  1.
     -623   -1    0    0    0    0  0.00000000000E+00  0.00000000000E+00  0.47855275298E-10  0.17124000000E+03  0.17124000000E+03 0. -1.
       11    1    1    2    0    0 -0.11123218678E-02  0.17973103533E-03  0.93241577070E+00  0.93241659157E+00  0.51109989000E-03 0.  1.
     -623    1    1    2    0    0  0.73934200944E-03  0.16417020349E-02  0.14692913832E-04  0.17124000001E+03  0.17124000000E+03 0. -1.
       22    1    1    2    0    0  0.37297984835E-03 -0.18214330924E-02  0.12356942700E+00  0.12358341322E+00  0.00000000000E+00 0. -1.
</event>
<event>
 5   1  0.2192208E+09  0.9118800E+02  0.7818608E-02  0.1180000E+00
       11   -1    0    0    0    0  0.00000000000E+00  0.00000000000E+00  0.10559998763E+01  0.10560000000E+01  0.51109989000E-03 0.  1.
     -623   -1    0    0    0    0  0.00000000000E+00  0.00000000000E+00  0.47855275298E-10  0.17124000000E+03  0.17124000000E+03 0. -1.
       11    1    1    2    0    0 -0.64085374351E-02 -0.16742132584E-01  0.51245265704E+00  0.51276637496E+00  0.51109989000E-03 0.  1.
     -623    1    1    2    0    0 -0.12749874161E-03  0.24574635601E-02  0.54079237932E-03  0.17124000002E+03  0.17124000000E+03 0. -1.
       22    1    1    2    0    0  0.65360361767E-02  0.14284669024E-01  0.54300642689E+00  0.54323360645E+00  0.00000000000E+00 0.  1.
</event>
<event>
 5   1  0.2192208E+09  0.9118800E+02  0.7818608E-02  0.1180000E+00
       11   -1    0    0    0    0  0.00000000000E+00  0.00000000000E+00  0.10559998763E+01  0.10560000000E+01  0.51109989000E-03 0. -1.
     -623   -1    0    0    0    0  0.00000000000E+00  0.00000000000E+00  0.47855275298E-10  0.17124000000E+03  0.17124000000E+03 0.  1.
       11    1    1    2    0    0  0.30642989708E-02 -0.84407852565E-02  0.88654102494E+00  0.88658664941E+00  0.51109989000E-03 0. -1.
     -623    1    1    2    0    0 -0.36300285440E-02  0.10184508879E-01  0.55760897691E-04  0.17124000034E+03  0.17124000000E+03 0.  1.
       22    1    1    2    0    0  0.56573209814E-03 -0.17437307067E-02  0.16940382500E+00  0.16941374376E+00  0.00000000000E+00 0.  1.
</event>
<event>
 5   1  0.2192208E+09  0.9118800E+02  0.7818608E-02  0.1180000E+00
       11   -1    0    0    0    0  0.00000000000E+00  0.00000000000E+00  0.10559998763E+01  0.10560000000E+01  0.51109989000E-03 0.  1.
     -623   -1    0    0    0    0  0.00000000000E+00  0.00000000000E+00  0.47855275298E-10  0.17124000000E+03  0.17124000000E+03 0. -1.
       11    1    1    2    0    0  0.74714732160E-02 -0.17766250805E-01  0.63559826756E+00  0.63589062073E+00  0.51109989000E-03 0.  1.
     -623    1    1    2    0    0 -0.25365904701E-01  0.33954905373E-02  0.92151128834E-03  0.17124000191E+03  0.17124000000E+03 0. -1.
       22    1    1    2    0    0  0.17894431479E-01  0.14370760269E-01  0.41948009728E+00  0.42010746416E+00  0.00000000000E+00 0.  1.
</event>
<event>
 5   1  0.2192208E+09  0.9118800E+02  0.7818608E-02  0.1180000E+00
       11   -1    0    0    0    0  0.00000000000E+00  0.00000000000E+00  0.10559998763E+01  0.10560000000E+01  0.51109989000E-03 0.  1.
     -623   -1    0    0    0    0  0.00000000000E+00  0.00000000000E+00  0.47855275298E-10  0.17124000000E+03  0.17124000000E+03 0. -1.
       11    1    1    2    0    0 -0.85225313427E-03  0.73423123275E-02  0.59502405099E+00  0.59507017936E+00  0.51109989000E-03 0.  1.
     -623    1    1    2    0    0  0.26463288263E-02 -0.13286973991E-01  0.88368647176E-04  0.17124000054E+03  0.17124000000E+03 0. -1.
       22    1    1    2    0    0 -0.17940759657E-02  0.59446630378E-02  0.46088756595E+00  0.46092939391E+00  0.00000000000E+00 0.  1.
</event>
<event>
 5   1  0.2192208E+09  0.9118800E+02  0.7818608E-02  0.1180000E+00
       11   -1    0    0    0    0  0.00000000000E+00  0.00000000000E+00  0.10559998763E+01  0.10560000000E+01  0.51109989000E-03 0. -1.
     -623   -1    0    0    0    0  0.00000000000E+00  0.00000000000E+00  0.47855275298E-10  0.17124000000E+03  0.17124000000E+03 0. -1.
       11    1    1    2    0    0  0.89551129337E-03  0.13353557391E-02  0.99758423323E+00  0.99758565984E+00  0.51109989000E-03 0. -1.
     -623    1    1    2    0    0 -0.39067145611E-03 -0.28075844670E-03  0.13006057406E-04  0.17124000000E+03  0.17124000000E+03 0. -1.
       22    1    1    2    0    0 -0.50483984686E-03 -0.10545972993E-02  0.58402611123E-01  0.58414313527E-01  0.00000000000E+00 0. -1.
</event>
<event>
 5   1  0.2192208E+09  0.9118800E+02  0.7818608E-02  0.1180000E+00
       11   -1    0    0    0    0  0.00000000000E+00  0.00000000000E+00  0.10559998763E+01  0.10560000000E+01  0.51109989000E-03 0. -1.
     -623   -1    0    0    0    0  0.00000000000E+00  0.00000000000E+00  0.47855275298E-10  0.17124000000E+03  0.17124000000E+03 0.  1.
       11    1    1    2    0    0  0.44672366272E-03 -0.10243276080E-01  0.87047497468E+00  0.87053550590E+00  0.51109989000E-03 0. -1.
     -623    1    1    2    0    0 -0.12629865894E-03  0.12220687965E-01  0.71662378740E-04  0.17124000044E+03  0.17124000000E+03 0.  1.
       22    1    1    2    0    0 -0.32042493113E-03 -0.19774189144E-02  0.18545384669E+00  0.18546466539E+00  0.00000000000E+00 0. -1.
</event>
<event>
 5   1  0.2192208E+09  0.9118800E+02  0.7818608E-02  0.1180000E+00
       11   -1    0    0    0    0  0.00000000000E+00  0.00000000000E+00  0.10559998763E+01  0.10560000000E+01  0.51109989000E-03 0. -1.
     -623   -1    0    0    0    0  0.00000000000E+00  0.00000000000E+00  0.47855275298E-10  0.17124000000E+03  0.17124000000E+03 0. -1.
       11    1    1    2    0    0 -0.10620967424E-02  0.23604821871E-02  0.94187301104E+00  0.94187670641E+00  0.51109989000E-03 0. -1.
     -623    1    1    2    0    0  0.12410493846E-02 -0.38520706469E-02  0.13507803526E-04  0.17124000005E+03  0.17124000000E+03 0. -1.
       22    1    1    2    0    0 -0.17895264643E-03  0.14915884728E-02  0.11411336110E+00  0.11412324935E+00  0.00000000000E+00 0. -1.
</event>
<event>
 5   1  0.2192208E+09  0.9118800E+02  0.7818608E-02  0.1180000E+00
       11   -1    0    0    0    0  0.00000000000E+00  0.00000000000E+00  0.10559998763E+01  0.10560000000E+01  0.51109989000E-03 0. -1.
     -623   -1    0    0    0    0  0.00000000000E+00  0.00000000000E+00  0.47855275298E-10  0.17124000000E+03  0.17124000000E+03 0.  1.
       11    1    1    2    0    0 -0.13258164254E-01 -0.10225622549E-01  0.84330956402E+00  0.84347591801E+00  0.51109989000E-03 0. -1.
     -623    1    1    2    0    0  0.16774136907E-01  0.12655225615E-01  0.21049597612E-03  0.17124000129E+03  0.17124000000E+03 0.  1.
       22    1    1    2    0    0 -0.35159889677E-02 -0.24296153745E-02  0.21248084329E+00  0.21252381978E+00  0.00000000000E+00 0. -1.
</event>
<event>
 5   1  0.2192208E+09  0.9118800E+02  0.7818608E-02  0.1180000E+00
       11   -1    0    0    0    0  0.00000000000E+00  0.00000000000E+00  0.10559998763E+01  0.10560000000E+01  0.51109989000E-03 0.  1.
     -623   -1    0    0    0    0  0.00000000000E+00  0.00000000000E+00  0.47855275298E-10  0.17124000000E+03  0.17124000000E+03 0. -1.
       11    1    1    2    0    0 -0.32979968749E-05 -0.61526406442E-03  0.10059406331E+01  0.10059409511E+01  0.51109989000E-03 0.  1.
     -623    1    1    2    0    0 -0.18876818333E-03 -0.26212469417E-04  0.46731979664E-05  0.17124000000E+03  0.17124000000E+03 0. -1.
       22    1    1    2    0    0  0.19206618202E-03  0.64147653409E-03  0.50054580180E-01  0.50059058906E-01  0.00000000000E+00 0. -1.
</event>
<event>
 5   1  0.2739213E+09  0.9118800E+02  0.7818608E-02  0.1180000E+00
       11   -1    0    0    0    0  0.00000000000E+00  0.00000000000E+00  0.10559998763E+01  0.10560000000E+01  0.51109989000E-03 0. -1.
     -623   -1    0    0    0    0  0.00000000000E+00  0.00000000000E+00  0.47855275298E-10  0.17124000000E+03  0.17124000000E+03 0. -1.
       11    1    1    2    0    0 -0.22840042698E-03 -0.10326722567E-02  0.96726515634E+00  0.96726586959E+00  0.51109989000E-03 0. -1.
     -623    1    1    2    0    0  0.51061549974E-05  0.42388097484E-05  0.68305861618E-05  0.17124000000E+03  0.17124000000E+03 0. -1.
       22    1    1    2    0    0  0.22329427204E-03  0.10284334470E-02  0.88727877152E-01  0.88734118126E-01  0.00000000000E+00 0.  1.
</event>
<event>
 5   1  0.2192208E+09  0.9118800E+02  0.7818608E-02  0.1180000E+00
       11   -1    0    0    0    0  0.00000000000E+00  0.00000000000E+00  0.10559998763E+01  0.10560000000E+01  0.51109989000E-03 0.  1.
     -623   -1    0    0    0    0  0.00000000000E+00  0.00000000000E+00  0.47855275298E-10  0.17124000000E+03  0.17124000000E+03 0. -1.
       11    1    1    2    0    0 -0.80776812206E-05  0.10072737825E-01  0.80891015338E+00  0.80897302648E+00  0.51109989000E-03 0.  1.
     -623    1    1    2    0    0 -0.19159091427E-03 -0.12768668304E-01  0.78017837498E-04  0.17124000048E+03  0.17124000000E+03 0. -1.
       22    1    1    2    0    0  0.19966869860E-03  0.26959373504E-02  0.24701227339E+00  0.24702706562E+00  0.00000000000E+00 0.  1.
</event>
<event>
 5   1  0.2192208E+09  0.9118800E+02  0.7818608E-02  0.1180000E+00
       11   -1    0    0    0    0  0.00000000000E+00  0.00000000000E+00  0.10559998763E+01  0.10560000000E+01  0.51109989000E-03 0. -1.
     -623   -1    0    0    0    0  0.00000000000E+00  0.00000000000E+00  0.47855275298E-10  0.17124000000E+03  0.17124000000E+03 0.  1.
       11    1    1    2    0    0 -0.65150228685E-02 -0.41450453863E-02  0.85928752564E+00  0.85932237250E+00  0.51109989000E-03 0. -1.
     -623    1    1    2    0    0  0.28104311461E-02  0.16783053467E-02  0.85119548360E-04  0.17124000003E+03  0.17124000000E+03 0.  1.
       22    1    1    2    0    0  0.37045917322E-02  0.24667400454E-02  0.19662722752E+00  0.19667759254E+00  0.00000000000E+00 0. -1.
</event>
<event>
 5   1  0.2192208E+09  0.9118800E+02  0.7818608E-02  0.1180000E+00
       11   -1    0    0    0    0  0.00000000000E+00  0.00000000000E+00  0.10559998763E+01  0.10560000000E+01  0.51109989000E-03 0. -1.
     -623   -1    0    0    0    0  0.00000000000E+00  0.00000000000E+00  0.47855275298E-10  0.17124000000E+03  0.17124000000E+03 0.  1.
       11    1    1    2    0    0 -0.24789546203E-02 -0.11405282813E-01  0.99916690796E+00  0.99923520598E+00  0.51109989000E-03 0. -1.
     -623    1    1    2    0    0  0.26189143963E-02  0.12070950206E-01  0.72695662176E-04  0.17124000045E+03  0.17124000000E+03 0.  1.
       22    1    1    2    0    0 -0.13995728088E-03 -0.66565589229E-03  0.56759266721E-01  0.56763342436E-01  0.00000000000E+00 0. -1.
</event>
<event>
 5   1  0.2192208E+09  0.9118800E+02  0.7818608E-02  0.1180000E+00
       11   -1    0    0    0    0  0.00000000000E+00  0.00000000000E+00  0.10559998763E+01  0.10560000000E+01  0.51109989000E-03 0.  1.
     -623   -1    0    0    0    0  0.00000000000E+00  0.00000000000E+00  0.47855275298E-10  0.17124000000E+03  0.17124000000E+03 0. -1.
       11    1    1    2    0    0 -0.56005265141E-02 -0.63563142283E-02  0.87209228842E+00  0.87213358460E+00  0.51109989000E-03 0.  1.
     -623    1    1    2    0    0  0.64535166554E-02  0.83366054246E-02  0.54140262490E-04  0.17124000032E+03  0.17124000000E+03 0. -1.
       22    1    1    2    0    0 -0.85298926278E-03 -0.19802900615E-02  0.18385330393E+00  0.18386594711E+00  0.00000000000E+00 0.  1.
</event>
<event>
 5   1  0.2192208E+09  0.9118800E+02  0.7818608E-02  0.1180000E+00
       11   -1    0    0    0    0  0.00000000000E+00  0.00000000000E+00  0.10559998763E+01  0.10560000000E+01  0.51109989000E-03 0. -1.
     -623   -1    0    0    0    0  0.00000000000E+00  0.00000000000E+00  0.47855275298E-10  0.17124000000E+03  0.17124000000E+03 0.  1.
       11    1    1    2    0    0  0.16294909931E-02 -0.48989260740E-02  0.66015186927E+00  0.66017225513E+00  0.51109989000E-03 0. -1.
     -623    1    1    2    0    0 -0.15225793100E-03  0.89727304378E-04  0.52235360538E-04  0.17124000000E+03  0.17124000000E+03 0.  1.
       22    1    1    2    0    0 -0.14772330620E-02  0.48091987695E-02  0.39579577277E+00  0.39582774581E+00  0.00000000000E+00 0.  1.
</event>
<event>
 5   1  0.2192208E+09  0.9118800E+02  0.7818608E-02  0.1180000E+00
       11   -1    0    0    0    0  0.00000000000E+00  0.00000000000E+00  0.10559998763E+01  0.10560000000E+01  0.51109989000E-03 0.  1.
     -623   -1    0    0    0    0  0.00000000000E+00  0.00000000000E+00  0.47855275298E-10  0.17124000000E+03  0.17124000000E+03 0.  1.
       11    1    1    2    0    0  0.29356393442E-02  0.83579299701E-02  0.49772845375E+00  0.49780754099E+00  0.51109989000E-03 0.  1.
     -623    1    1    2    0    0  0.16457965403E-03 -0.39415809261E-04  0.14956128470E-03  0.17124000000E+03  0.17124000000E+03 0.  1.
       22    1    1    2    0    0 -0.31002189981E-02 -0.83185141609E-02  0.55812186073E+00  0.55819245826E+00  0.00000000000E+00 0.  1.
</event>
<event>
 5   1  0.2192208E+09  0.9118800E+02  0.7818608E-02  0.1180000E+00
       11   -1    0    0    0    0  0.00000000000E+00  0.00000000000E+00  0.10559998763E+01  0.10560000000E+01  0.51109989000E-03 0. -1.
     -623   -1    0    0    0    0  0.00000000000E+00  0.00000000000E+00  0.47855275298E-10  0.17124000000E+03  0.17124000000E+03 0. -1.
       11    1    1    2    0    0 -0.11046776870E-02  0.86601708410E-02  0.24165725449E+00  0.24181544356E+00  0.51109989000E-03 0. -1.
     -623    1    1    2    0    0  0.17437923835E-02 -0.39620311441E-01  0.75177115856E-03  0.17124000459E+03  0.17124000000E+03 0. -1.
       22    1    1    2    0    0 -0.63911471267E-03  0.30960140966E-01  0.81359086045E+00  0.81417997212E+00  0.00000000000E+00 0. -1.
</event>
<event>
 5   1  0.2192208E+09  0.9118800E+02  0.7818608E-02  0.1180000E+00
       11   -1    0    0    0    0  0.00000000000E+00  0.00000000000E+00  0.10559998763E+01  0.10560000000E+01  0.51109989000E-03 0. -1.
     -623   -1    0    0    0    0  0.00000000000E+00  0.00000000000E+00  0.47855275298E-10  0.17124000000E+03  0.17124000000E+03 0. -1.
       11    1    1    2    0    0 -0.12032736706E-01 -0.15618525316E-01  0.36584443720E+00  0.36637567951E+00  0.51109989000E-03 0. -1.
     -623    1    1    2    0    0  0.14638400121E-01  0.25976175680E-01  0.61642570063E-03  0.17124000260E+03  0.17124000000E+03 0. -1.
       22    1    1    2    0    0 -0.26056634442E-02 -0.10357650414E-01  0.68953901553E+00  0.68962172555E+00  0.00000000000E+00 0. -1.
</event>
<event>
 5   1  0.2192208E+09  0.9118800E+02  0.7818608E-02  0.1180000E+00
       11   -1    0    0    0    0  0.00000000000E+00  0.00000000000E+00  0.10559998763E+01  0.10560000000E+01  0.51109989000E-03 0. -1.
     -623   -1    0    0    0    0  0.00000000000E+00  0.00000000000E+00  0.47855275298E-10  0.17124000000E+03  0.17124000000E+03 0. -1.
       11    1    1    2    0    0 -0.26053982376E-02 -0.12144325277E-02  0.97140971954E+00  0.97141410706E+00  0.51109989000E-03 0. -1.
     -623    1    1    2    0    0  0.27552577262E-02  0.25999865202E-03  0.98039037471E-05  0.17124000002E+03  0.17124000000E+03 0. -1.
       22    1    1    2    0    0 -0.14985947511E-03  0.95443387700E-03  0.84580347721E-01  0.84585865382E-01  0.00000000000E+00 0. -1.
</event>
<event>
 5   1  0.2192208E+09  0.9118800E+02  0.7818608E-02  0.1180000E+00
       11   -1    0    0    0    0  0.00000000000E+00  0.00000000000E+00  0.10559998763E+01  0.10560000000E+01  0.51109989000E-03 0. -1.
     -623   -1    0    0    0    0  0.00000000000E+00  0.00000000000E+00  0.47855275298E-10  0.17124000000E+03  0.17124000000E+03 0.  1.
       11    1    1    2    0    0  0.13494077159E-01  0.19638357593E-01  0.90088053507E+00  0.90119573617E+00  0.51109989000E-03 0. -1.
     -623    1    1    2    0    0 -0.15076088629E-01 -0.21207124142E-01  0.33308814380E-03  0.17124000198E+03  0.17124000000E+03 0.  1.
       22    1    1    2    0    0  0.15820109209E-02  0.15687657755E-02  0.15478621466E+00  0.15480224815E+00  0.00000000000E+00 0. -1.
</event>
<event>
 5   1  0.2192208E+09  0.9118800E+02  0.7818608E-02  0.1180000E+00
       11   -1    0    0    0    0  0.00000000000E+00  0.00000000000E+00  0.10559998763E+01  0.10560000000E+01  0.51109989000E-03 0. -1.
     -623   -1    0    0    0    0  0.00000000000E+00  0.00000000000E+00  0.47855275298E-10  0.17124000000E+03  0.17124000000E+03 0. -1.
       11    1    1    2    0    0  0.68704637879E-03 -0.10644423621E-02  0.95896497565E+00  0.95896594872E+00  0.51109989000E-03 0. -1.
     -623    1    1    2    0    0  0.32968778649E-04 -0.60210161890E-04  0.10038751411E-04  0.17124000000E+03  0.17124000000E+03 0. -1.
       22    1    1    2    0    0 -0.72001515741E-03  0.11246525239E-02  0.97024861096E-01  0.97034050394E-01  0.00000000000E+00 0.  1.
</event>
<event>
 5   1  0.2192208E+09  0.9118800E+02  0.7818608E-02  0.1180000E+00
       11   -1    0    0    0    0  0.00000000000E+00  0.00000000000E+00  0.10559998763E+01  0.10560000000E+01  0.51109989000E-03 0.  1.
     -623   -1    0    0    0    0  0.00000000000E+00  0.00000000000E+00  0.47855275298E-10  0.17124000000E+03  0.17124000000E+03 0. -1.
       11    1    1    2    0    0  0.59628197405E-02  0.40451190300E-01  0.99591475370E+00  0.99675388732E+00  0.51109989000E-03 0.  1.
     -623    1    1    2    0    0 -0.53336628307E-02 -0.41799739070E-01  0.86288980329E-03  0.17124000519E+03  0.17124000000E+03 0. -1.
       22    1    1    2    0    0 -0.62915697307E-03  0.13485482747E-02  0.59222220351E-01  0.59240913263E-01  0.00000000000E+00 0.  1.
</event>
<event>
 5   1  0.2192208E+09  0.9118800E+02  0.7818608E-02  0.1180000E+00
       11   -1    0    0    0    0  0.00000000000E+00  0.00000000000E+00  0.10559998763E+01  0.10560000000E+01  0.51109989000E-03 0.  1.
     -623   -1    0    0    0    0  0.00000000000E+00  0.00000000000E+00  0.47855275298E-10  0.17124000000E+03  0.17124000000E+03 0. -1.
       11    1    1    2    0    0 -0.16389269330E-02  0.33645408748E-02  0.86145412344E+00  0.86146240442E+00  0.51109989000E-03 0.  1.
     -623    1    1    2    0    0 -0.26153145868E-04  0.41106894651E-03  0.51927375170E-04  0.17124000000E+03  0.17124000000E+03 0. -1.
       22    1    1    2    0    0  0.16650800788E-02 -0.37756098206E-02  0.19449382377E+00  0.19453759330E+00  0.00000000000E+00 0. -1.
</event>
<event>
 5   1  0.2192208E+09  0.9118800E+02  0.7818608E-02  0.1180000E+00
       11   -1    0    0    0    0  0.00000000000E+00  0.00000000000E+00  0.10559998763E+01  0.10560000000E+01  0.51109989000E-03 0. -1.
     -623   -1    0    0    0    0  0.00000000000E+00  0.00000000000E+00  0.47855275298E-10  0.17124000000E+03  0.17124000000E+03 0. -1.
       11    1    1    2    0    0 -0.40274338595E-01  0.29928887329E-01  0.93077527961E+00  0.93212694575E+00  0.51109989000E-03 0.  1.
     -623    1    1    2    0    0  0.45655969926E-01 -0.33877435757E-01  0.15409646506E-02  0.17124000944E+03  0.17124000000E+03 0. -1.
       22    1    1    2    0    0 -0.53816497385E-02  0.39485620874E-02  0.12368405725E+00  0.12386403560E+00  0.00000000000E+00 0. -1.
</event>
<event>
 5   1  0.2192208E+09  0.9118800E+02  0.7818608E-02  0.1180000E+00
       11   -1    0    0    0    0  0.00000000000E+00  0.00000000000E+00  0.10559998763E+01  0.10560000000E+01  0.51109989000E-03 0. -1.
     -623   -1    0    0    0    0  0.00000000000E+00  0.00000000000E+00  0.47855275298E-10  0.17124000000E+03  0.17124000000E+03 0. -1.
       11    1    1    2    0    0  0.33820815490E-02  0.52942178301E-02  0.65889276133E+00  0.65892290852E+00  0.51109989000E-03 0. -1.
     -623    1    1    2    0    0 -0.51642117676E-02 -0.10482197770E-01  0.68314892059E-04  0.17124000040E+03  0.17124000000E+03 0. -1.
       22    1    1    2    0    0  0.17821312485E-02  0.51879820302E-02  0.39703901071E+00  0.39707690335E+00  0.00000000000E+00 0.  1.
</event>
<event>
 5   1  0.2192208E+09  0.9118800E+02  0.7818608E-02  0.1180000E+00
       11   -1    0    0    0    0  0.00000000000E+00  0.00000000000E+00  0.10559998763E+01  0.10560000000E+01  0.51109989000E-03 0. -1.
     -623   -1    0    0    0    0  0.00000000000E+00  0.00000000000E+00  0.47855275298E-10  0.17124000000E+03  0.17124000000E+03 0.  1.
       11    1    1    2    0    0  0.74719545244E-02  0.10903729594E-01  0.46934905990E+00  0.46953543282E+00  0.51109989000E-03 0. -1.
     -623    1    1    2    0    0  0.42557665800E-03 -0.12309833610E-03  0.33853236775E-03  0.17124000000E+03  0.17124000000E+03 0.  1.
       22    1    1    2    0    0 -0.78975311824E-02 -0.10780631258E-01  0.58631228403E+00  0.58646456620E+00  0.00000000000E+00 0. -1.
</event>
<event>
 5   1  0.2192208E+09  0.9118800E+02  0.7818608E-02  0.1180000E+00
       11   -1    0    0    0    0  0.00000000000E+00  0.00000000000E+00  0.10559998763E+01  0.10560000000E+01  0.51109989000E-03 0.  1.
     -623   -1    0    0    0    0  0.00000000000E+00  0.00000000000E+00  0.47855275298E-10  0.17124000000E+03  0.17124000000E+03 0.  1.
       11    1    1    2    0    0  0.46713037453E-02 -0.23366018998E-02  0.97318423678E+00  0.97319838714E+00  0.51109989000E-03 0.  1.
     -623    1    1    2    0    0 -0.36792260245E-02  0.51447822797E-02  0.67723286841E-04  0.17124000012E+03  0.17124000000E+03 0.  1.
       22    1    1    2    0    0 -0.99207770180E-03 -0.28081804064E-02  0.82747921733E-01  0.82801501475E-01  0.00000000000E+00 0. -1.
</event>
<event>
 5   1  0.2192208E+09  0.9118800E+02  0.7818608E-02  0.1180000E+00
       11   -1    0    0    0    0  0.00000000000E+00  0.00000000000E+00  0.10559998763E+01  0.10560000000E+01  0.51109989000E-03 0. -1.
     -623   -1    0    0    0    0  0.00000000000E+00  0.00000000000E+00  0.47855275298E-10  0.17124000000E+03  0.17124000000E+03 0.  1.
       11    1    1    2    0    0 -0.42769686586E-02 -0.90338015919E-02  0.77646062696E+00  0.77652512418E+00  0.51109989000E-03 0. -1.
     -623    1    1    2    0    0  0.56572144505E-02  0.12342672571E-01  0.87909031164E-04  0.17124000054E+03  0.17124000000E+03 0.  1.
       22    1    1    2    0    0 -0.13802494444E-02 -0.33088789479E-02  0.27945202212E+00  0.27947501934E+00  0.00000000000E+00 0. -1.
</event>
<event>
 5   1  0.2192208E+09  0.9118800E+02  0.7818608E-02  0.1180000E+00
       11   -1    0    0    0    0  0.00000000000E+00  0.00000000000E+00  0.10559998763E+01  0.10560000000E+01  0.51109989000E-03 0. -1.
     -623   -1    0    0    0    0  0.00000000000E+00  0.00000000000E+00  0.47855275298E-10  0.17124000000E+03  0.17124000000E+03 0. -1.
       11    1    1    2    0    0 -0.36980732549E-02  0.34400643583E-01  0.10029949103E+01  0.10035916159E+01  0.51109989000E-03 0. -1.
     -623    1    1    2    0    0  0.37707878695E-02 -0.35084667453E-01  0.60473346929E-03  0.17124000364E+03  0.17124000000E+03 0. -1.
       22    1    1    2    0    0 -0.72714553491E-04  0.68402330120E-03  0.52400215451E-01  0.52404730270E-01  0.00000000000E+00 0. -1.
</event>
<event>
 5   1  0.2192208E+09  0.9118800E+02  0.7818608E-02  0.1180000E+00
       11   -1    0    0    0    0  0.00000000000E+00  0.00000000000E+00  0.10559998763E+01  0.10560000000E+01  0.51109989000E-03 0.  1.
     -623   -1    0    0    0    0  0.00000000000E+00  0.00000000000E+00  0.47855275298E-10  0.17124000000E+03  0.17124000000E+03 0. -1.
       11    1    1    2    0    0  0.39750133440E-02  0.86298855734E-02  0.59555351297E+00  0.59562951882E+00  0.51109989000E-03 0.  1.
     -623    1    1    2    0    0 -0.46693761760E-02 -0.21751439169E-02  0.12173583588E-03  0.17124000008E+03  0.17124000000E+03 0. -1.
       22    1    1    2    0    0  0.69436282732E-03 -0.64547416587E-02  0.46032462651E+00  0.46037040261E+00  0.00000000000E+00 0.  1.
</event>
<event>
 5   1  0.2192208E+09  0.9118800E+02  0.7818608E-02  0.1180000E+00
       11   -1    0    0    0    0  0.00000000000E+00  0.00000000000E+00  0.10559998763E+01  0.10560000000E+01  0.51109989000E-03 0.  1.
     -623   -1    0    0    0    0  0.00000000000E+00  0.00000000000E+00  0.47855275298E-10  0.17124000000E+03  0.17124000000E+03 0. -1.
       11    1    1    2    0    0 -0.17947057300E-02  0.26964249115E-02  0.99299882380E+00  0.99300423814E+00  0.51109989000E-03 0.  1.
     -623    1    1    2    0    0 -0.47101833194E-03 -0.46842581041E-02  0.77504743756E-04  0.17124000006E+03  0.17124000000E+03 0. -1.
       22    1    1    2    0    0  0.22657240630E-02  0.19878332037E-02  0.62923550310E-01  0.62995699615E-01  0.00000000000E+00 0. -1.
</event>
<event>
 5   1  0.2192208E+09  0.9118800E+02  0.7818608E-02  0.1180000E+00
       11   -1    0    0    0    0  0.00000000000E+00  0.00000000000E+00  0.10559998763E+01  0.10560000000E+01  0.51109989000E-03 0.  1.
     -623   -1    0    0    0    0  0.00000000000E+00  0.00000000000E+00  0.47855275298E-10  0.17124000000E+03  0.17124000000E+03 0. -1.
       11    1    1    2    0    0  0.49745976441E-02 -0.16277904638E-01  0.99138722703E+00  0.99153346486E+00  0.51109989000E-03 0.  1.
     -623    1    1    2    0    0 -0.52557263012E-02  0.17455462196E-01  0.15845348416E-03  0.17124000097E+03  0.17124000000E+03 0. -1.
       22    1    1    2    0    0  0.28113114354E-03 -0.11775658155E-02  0.64454695355E-01  0.64466064323E-01  0.00000000000E+00 0. -1.
</event>
<event>
 5   1  0.2192208E+09  0.9118800E+02  0.7818608E-02  0.1180000E+00
       11   -1    0    0    0    0  0.00000000000E+00  0.00000000000E+00  0.10559998763E+01  0.10560000000E+01  0.51109989000E-03 0.  1.
     -623   -1    0    0    0    0  0.00000000000E+00  0.00000000000E+00  0.47855275298E-10  0.17124000000E+03  0.17124000000E+03 0.  1.
       11    1    1    2    0    0 -0.65048173144E-02  0.18136682450E-01  0.28785807449E+00  0.28850265886E+00  0.51109989000E-03 0.  1.
     -623    1    1    2    0    0  0.77393877324E-02 -0.34176383754E-01  0.81666482576E-03  0.17124000359E+03  0.17124000000E+03 0.  1.
       22    1    1    2    0    0 -0.12345704177E-02  0.16039701303E-01  0.76732513701E+00  0.76749375377E+00  0.00000000000E+00 0.  1.
</event>
<event>
 5   1  0.2192208E+09  0.9118800E+02  0.7818608E-02  0.1180000E+00
       11   -1    0    0    0    0  0.00000000000E+00  0.00000000000E+00  0.10559998763E+01  0.10560000000E+01  0.51109989000E-03 0. -1.
     -623   -1    0    0    0    0  0.00000000000E+00  0.00000000000E+00  0.47855275298E-10  0.17124000000E+03  0.17124000000E+03 0.  1.
       11    1    1    2    0    0 -0.10408405059E-01 -0.34219431505E-02  0.99693604495E+00  0.99699638091E+00  0.51109989000E-03 0. -1.
     -623    1    1    2    0    0  0.11120733051E-01  0.44516447027E-02  0.73917635883E-04  0.17124000042E+03  0.17124000000E+03 0.  1.
       22    1    1    2    0    0 -0.71232823728E-03 -0.10297016503E-02  0.58989937036E-01  0.59003223374E-01  0.00000000000E+00 0.  1.
</event>
<event>
 5   1  0.2192208E+09  0.9118800E+02  0.7818608E-02  0.1180000E+00
       11   -1    0    0    0    0  0.00000000000E+00  0.00000000000E+00  0.10559998763E+01  0.10560000000E+01  0.51109989000E-03 0. -1.
     -623   -1    0    0    0    0  0.00000000000E+00  0.00000000000E+00  0.47855275298E-10  0.17124000000E+03  0.17124000000E+03 0. -1.
       11    1    1    2    0    0  0.49023536444E-02  0.37801769442E-01  0.94312059018E+00  0.94389073292E+00  0.51109989000E-03 0. -1.
     -623    1    1    2    0    0 -0.37957371838E-02 -0.36113568130E-01  0.79204573018E-03  0.17124000385E+03  0.17124000000E+03 0. -1.
       22    1    1    2    0    0 -0.11066164609E-02 -0.16882013156E-02  0.11208724036E+00  0.11210541501E+00  0.00000000000E+00 0. -1.
</event>
<event>
 5   1  0.2192208E+09  0.9118800E+02  0.7818608E-02  0.1180000E+00
       11   -1    0    0    0    0  0.00000000000E+00  0.00000000000E+00  0.10559998763E+01  0.10560000000E+01  0.51109989000E-03 0.  1.
     -623   -1    0    0    0    0  0.00000000000E+00  0.00000000000E+00  0.47855275298E-10  0.17124000000E+03  0.17124000000E+03 0. -1.
       11    1    1    2    0    0 -0.90557192957E-04 -0.11427984295E-02  0.96599902325E+00  0.96599983868E+00  0.51109989000E-03 0.  1.
     -623    1    1    2    0    0 -0.96359232911E-05  0.57743288209E-04  0.72886103064E-05  0.17124000000E+03  0.17124000000E+03 0. -1.
       22    1    1    2    0    0  0.10019311603E-03  0.10850551426E-02  0.89993540131E-01  0.90000136937E-01  0.00000000000E+00 0. -1.
</event>
<event>
 5   1  0.2192208E+09  0.9118800E+02  0.7818608E-02  0.1180000E+00
       11   -1    0    0    0    0  0.00000000000E+00  0.00000000000E+00  0.10559998763E+01  0.10560000000E+01  0.51109989000E-03 0. -1.
     -623   -1    0    0    0    0  0.00000000000E+00  0.00000000000E+00  0.47855275298E-10  0.17124000000E+03  0.17124000000E+03 0. -1.
       11    1    1    2    0    0 -0.79244600444E-03  0.14050325288E-02  0.83903932534E+00  0.83904103164E+00  0.51109989000E-03 0. -1.
     -623    1    1    2    0    0 -0.22034342977E-03  0.10493554343E-02  0.17833395900E-04  0.17124000000E+03  0.17124000000E+03 0. -1.
       22    1    1    2    0    0  0.10127894333E-02 -0.24543879588E-02  0.21694271333E+00  0.21695896071E+00  0.00000000000E+00 0. -1.
</event>
<event>
 5   1  0.2192208E+09  0.9118800E+02  0.7818608E-02  0.1180000E+00
       11   -1    0    0    0    0  0.00000000000E+00  0.00000000000E+00  0.10559998763E+01  0.10560000000E+01  0.51109989000E-03 0. -1.
     -623   -1    0    0    0    0  0.00000000000E+00  0.00000000000E+00  0.47855275298E-10  0.17124000000E+03  0.17124000000E+03 0.  1.
       11    1    1    2    0    0  0.19095973717E-02  0.35703784600E-01  0.80889822313E+00  0.80968821370E+00  0.51109989000E-03 0. -1.
     -623    1    1    2    0    0 -0.16939680046E-02 -0.46596141421E-01  0.10372766043E-02  0.17124000635E+03  0.17124000000E+03 0.  1.
       22    1    1    2    0    0 -0.21562967635E-03  0.10892348313E-01  0.24606418401E+00  0.24630524233E+00  0.00000000000E+00 0. -1.
</event>
<event>
 5   1  0.2192208E+09  0.9118800E+02  0.7818608E-02  0.1180000E+00
       11   -1    0    0    0    0  0.00000000000E+00  0.00000000000E+00  0.10559998763E+01  0.10560000000E+01  0.51109989000E-03 0.  1.
     -623   -1    0    0    0    0  0.00000000000E+00  0.00000000000E+00  0.47855275298E-10  0.17124000000E+03  0.17124000000E+03 0. -1.
       11    1    1    2    0    0  0.32993182142E-02 -0.32892728614E-01  0.10000939811E+01  0.10006403197E+01  0.51109989000E-03 0.  1.
     -623    1    1    2    0    0 -0.27621528234E-02  0.33949110127E-01  0.56229076608E-03  0.17124000339E+03  0.17124000000E+03 0. -1.
       22    1    1    2    0    0 -0.53716533526E-03 -0.10563821957E-02  0.55343625699E-01  0.55356313059E-01  0.00000000000E+00 0. -1.
</event>
<event>
 5   1  0.2192208E+09  0.9118800E+02  0.7818608E-02  0.1180000E+00
       11   -1    0    0    0    0  0.00000000000E+00  0.00000000000E+00  0.10559998763E+01  0.10560000000E+01  0.51109989000E-03 0.  1.
     -623   -1    0    0    0    0  0.00000000000E+00  0.00000000000E+00  0.47855275298E-10  0.17124000000E+03  0.17124000000E+03 0.  1.
       11    1    1    2    0    0 -0.13534953242E-02  0.10126686727E-01  0.66399365902E+00  0.66407245250E+00  0.51109989000E-03 0.  1.
     -623    1    1    2    0    0  0.11033544222E-03 -0.15805401468E-01  0.12251339615E-03  0.17124000073E+03  0.17124000000E+03 0.  1.
       22    1    1    2    0    0  0.12431598828E-02  0.56787146161E-02  0.39188369566E+00  0.39192680971E+00  0.00000000000E+00 0.  1.
</event>
<event>
 5   1  0.2192208E+09  0.9118800E+02  0.7818608E-02  0.1180000E+00
       11   -1    0    0    0    0  0.00000000000E+00  0.00000000000E+00  0.10559998763E+01  0.10560000000E+01  0.51109989000E-03 0.  1.
     -623   -1    0    0    0    0  0.00000000000E+00  0.00000000000E+00  0.47855275298E-10  0.17124000000E+03  0.17124000000E+03 0.  1.
       11    1    1    2    0    0 -0.60371102771E-03  0.43928935150E-02  0.63786052514E+00  0.63787614216E+00  0.51109989000E-03 0.  1.
     -623    1    1    2    0    0  0.10862953752E-03 -0.63794276481E-04  0.38198093796E-04  0.17124000000E+03  0.17124000000E+03 0.  1.
       22    1    1    2    0    0  0.49508148979E-03 -0.43290992383E-02  0.41810115697E+00  0.41812386163E+00  0.00000000000E+00 0.  1.
</event>
<event>
 5   1  0.2192208E+09  0.9118800E+02  0.7818608E-02  0.1180000E+00
       11   -1    0    0    0    0  0.00000000000E+00  0.00000000000E+00  0.10559998763E+01  0.10560000000E+01  0.51109989000E-03 0.  1.
     -623   -1    0    0    0    0  0.00000000000E+00  0.00000000000E+00  0.47855275298E-10  0.17124000000E+03  0.17124000000E+03 0. -1.
       11    1    1    2    0    0  0.11592372333E-02 -0.20621868062E-02  0.93363981688E+00  0.93364295388E+00  0.51109989000E-03 0.  1.
     -623    1    1    2    0    0 -0.62953668989E-03  0.39757598093E-03  0.15485319808E-04  0.17124000000E+03  0.17124000000E+03 0. -1.
       22    1    1    2    0    0 -0.52970053408E-03  0.16646108194E-02  0.12234458980E+00  0.12235706014E+00  0.00000000000E+00 0. -1.
</event>
<event>
 5   1  0.2192208E+09  0.9118800E+02  0.7818608E-02  0.1180000E+00
       11   -1    0    0    0    0  0.00000000000E+00  0.00000000000E+00  0.10559998763E+01  0.10560000000E+01  0.51109989000E-03 0.  1.
     -623   -1    0    0    0    0  0.00000000000E+00  0.00000000000E+00  0.47855275298E-10  0.17124000000E+03  0.17124000000E+03 0. -1.
       11    1    1    2    0    0  0.63813747127E-03 -0.12945287691E-01  0.82699982424E+00  0.82710154045E+00  0.51109989000E-03 0.  1.
     -623    1    1    2    0    0  0.87110696976E-03  0.16841773091E-01  0.14056646126E-03  0.17124000083E+03  0.17124000000E+03 0. -1.
       22    1    1    2    0    0 -0.15092444966E-02 -0.38964864752E-02  0.22885955305E+00  0.22889769647E+00  0.00000000000E+00 0.  1.
</event>
<event>
 5   1  0.2192208E+09  0.9118800E+02  0.7818608E-02  0.1180000E+00
       11   -1    0    0    0    0  0.00000000000E+00  0.00000000000E+00  0.10559998763E+01  0.10560000000E+01  0.51109989000E-03 0. -1.
     -623   -1    0    0    0    0  0.00000000000E+00  0.00000000000E+00  0.47855275298E-10  0.17124000000E+03  0.17124000000E+03 0. -1.
       11    1    1    2    0    0  0.31674289888E-02  0.80267233833E-02  0.98239015631E+00  0.98242818635E+00  0.51109989000E-03 0. -1.
     -623    1    1    2    0    0 -0.33110895361E-02 -0.88803484984E-02  0.43261273617E-04  0.17124000026E+03  0.17124000000E+03 0. -1.
       22    1    1    2    0    0  0.14366199462E-03  0.85362899674E-03  0.73566920341E-01  0.73572012951E-01  0.00000000000E+00 0. -1.
</event>
<event>
 5   1  0.2192208E+09  0.9118800E+02  0.7818608E-02  0.1180000E+00
       11   -1    0    0    0    0  0.00000000000E+00  0.00000000000E+00  0.10559998763E+01  0.10560000000E+01  0.51109989000E-03 0.  1.
     -623   -1    0    0    0    0  0.00000000000E+00  0.00000000000E+00  0.47855275298E-10  0.17124000000E+03  0.17124000000E+03 0. -1.
       11    1    1    2    0    0  0.47706148820E-03 -0.49406707861E-03  0.95878140845E+00  0.95878179066E+00  0.51109989000E-03 0.  1.
     -623    1    1    2    0    0 -0.19376495176E-03 -0.49236372759E-03  0.56767521182E-05  0.17124000000E+03  0.17124000000E+03 0. -1.
       22    1    1    2    0    0 -0.28329653993E-03  0.98643079730E-03  0.97212772090E-01  0.97218189451E-01  0.00000000000E+00 0.  1.
</event>
<event>
 5   1  0.2192208E+09  0.9118800E+02  0.7818608E-02  0.1180000E+00
       11   -1    0    0    0    0  0.00000000000E+00  0.00000000000E+00  0.10559998763E+01  0.10560000000E+01  0.51109989000E-03 0.  1.
     -623   -1    0    0    0    0  0.00000000000E+00  0.00000000000E+00  0.47855275298E-10  0.17124000000E+03  0.17124000000E+03 0.  1.
       11    1    1    2    0    0 -0.33615118240E-02 -0.90575018914E-02  0.80676268722E+00  0.80682069434E+00  0.51109989000E-03 0.  1.
     -623    1    1    2    0    0  0.85360729986E-02  0.64381065455E-02  0.12572274969E-03  0.17124000033E+03  0.17124000000E+03 0.  1.
       22    1    1    2    0    0 -0.51745612396E-02  0.26193952969E-02  0.24911147443E+00  0.24917897987E+00  0.00000000000E+00 0.  1.
</event>
<event>
 5   1  0.2192208E+09  0.9118800E+02  0.7818608E-02  0.1180000E+00
       11   -1    0    0    0    0  0.00000000000E+00  0.00000000000E+00  0.10559998763E+01  0.10560000000E+01  0.51109989000E-03 0. -1.
     -623   -1    0    0    0    0  0.00000000000E+00  0.00000000000E+00  0.47855275298E-10  0.17124000000E+03  0.17124000000E+03 0. -1.
       11    1    1    2    0    0 -0.58108083138E-02  0.14450696815E-01  0.92761266655E+00  0.92774355751E+00  0.51109989000E-03 0. -1.
     -623    1    1    2    0    0  0.69494519352E-02 -0.16227212541E-01  0.14903643944E-03  0.17124000091E+03  0.17124000000E+03 0. -1.
       22    1    1    2    0    0 -0.11386439618E-02  0.17765165202E-02  0.12823822508E+00  0.12825558426E+00  0.00000000000E+00 0. -1.
</event>
<event>
 5   1  0.2192208E+09  0.9118800E+02  0.7818608E-02  0.1180000E+00
       11   -1    0    0    0    0  0.00000000000E+00  0.00000000000E+00  0.10559998763E+01  0.10560000000E+01  0.51109989000E-03 0.  1.
     -623   -1    0    0    0    0  0.00000000000E+00  0.00000000000E+00  0.47855275298E-10  0.17124000000E+03  0.17124000000E+03 0.  1.
       11    1    1    2    0    0  0.33887465854E-03  0.67747419413E-02  0.73633935046E+00  0.73637077089E+00  0.51109989000E-03 0.  1.
     -623    1    1    2    0    0 -0.13272413626E-02 -0.41186849148E-03  0.96170176819E-04  0.17124000001E+03  0.17124000000E+03 0.  1.
       22    1    1    2    0    0  0.98836670095E-03 -0.63628734507E-02  0.31956435327E+00  0.31962922099E+00  0.00000000000E+00 0.  1.
</event>
<event>
 5   1  0.2192208E+09  0.9118800E+02  0.7818608E-02  0.1180000E+00
       11   -1    0    0    0    0  0.00000000000E+00  0.00000000000E+00  0.10559998763E+01  0.10560000000E+01  0.51109989000E-03 0. -1.
     -623   -1    0    0    0    0  0.00000000000E+00  0.00000000000E+00  0.47855275298E-10  0.17124000000E+03  0.17124000000E+03 0. -1.
       11    1    1    2    0    0  0.31725612609E-03  0.11864219035E-01  0.82694608693E+00  0.82703140948E+00  0.51109989000E-03 0. -1.
     -623    1    1    2    0    0  0.11384100800E-02 -0.14205443995E-01  0.10238939734E-03  0.17124000059E+03  0.17124000000E+03 0. -1.
       22    1    1    2    0    0 -0.14556661799E-02  0.23412246332E-02  0.22895137577E+00  0.22896797323E+00  0.00000000000E+00 0. -1.
</event>
<event>
 5   1  0.2192208E+09  0.9118800E+02  0.7818608E-02  0.1180000E+00
       11   -1    0    0    0    0  0.00000000000E+00  0.00000000000E+00  0.10559998763E+01  0.10560000000E+01  0.51109989000E-03 0. -1.
     -623   -1    0    0    0    0  0.00000000000E+00  0.00000000000E+00  0.47855275298E-10  0.17124000000E+03  0.17124000000E+03 0. -1.
       11    1    1    2    0    0 -0.11138762940E-02  0.24185332682E-02  0.85965958011E+00  0.85966385577E+00  0.51109989000E-03 0. -1.
     -623    1    1    2    0    0  0.32574887194E-04 -0.14111390572E-03  0.20338902993E-04  0.17124000000E+03  0.17124000000E+03 0. -1.
       22    1    1    2    0    0  0.10813014068E-02 -0.22774193624E-02  0.19631995806E+00  0.19633614487E+00  0.00000000000E+00 0.  1.
</event>
<event>
 5   1  0.2192208E+09  0.9118800E+02  0.7818608E-02  0.1180000E+00
       11   -1    0    0    0    0  0.00000000000E+00  0.00000000000E+00  0.10559998763E+01  0.10560000000E+01  0.51109989000E-03 0. -1.
     -623   -1    0    0    0    0  0.00000000000E+00  0.00000000000E+00  0.47855275298E-10  0.17124000000E+03  0.17124000000E+03 0. -1.
       11    1    1    2    0    0  0.26598565819E-03 -0.24017608273E-02  0.87355195761E+00  0.87355544934E+00  0.51109989000E-03 0. -1.
     -623    1    1    2    0    0 -0.25621234740E-03  0.12095395078E-03  0.17625753309E-04  0.17124000000E+03  0.17124000000E+03 0. -1.
       22    1    1    2    0    0 -0.97733129575E-05  0.22808068775E-02  0.18243028406E+00  0.18244454148E+00  0.00000000000E+00 0. -1.
</event>
<event>
 5   1  0.2192208E+09  0.9118800E+02  0.7818608E-02  0.1180000E+00
       11   -1    0    0    0    0  0.00000000000E+00  0.00000000000E+00  0.10559998763E+01  0.10560000000E+01  0.51109989000E-03 0.  1.
     -623   -1    0    0    0    0  0.00000000000E+00  0.00000000000E+00  0.47855275298E-10  0.17124000000E+03  0.17124000000E+03 0. -1.
       11    1    1    2    0    0  0.34790299955E-02  0.74769762268E-02  0.16973759329E+00  0.16993857897E+00  0.51109989000E-03 0.  1.
     -623    1    1    2    0    0  0.54763469183E-03  0.45015356596E-02  0.29104413817E-03  0.17124000006E+03  0.17124000000E+03 0. -1.
       22    1    1    2    0    0 -0.40266646872E-02 -0.11978511885E-01  0.88597123866E+00  0.88606136047E+00  0.00000000000E+00 0.  1.
</event>
<event>
 5   1  0.2192208E+09  0.9118800E+02  0.7818608E-02  0.1180000E+00
       11   -1    0    0    0    0  0.00000000000E+00  0.00000000000E+00  0.10559998763E+01  0.10560000000E+01  0.51109989000E-03 0.  1.
     -623   -1    0    0    0    0  0.00000000000E+00  0.00000000000E+00  0.47855275298E-10  0.17124000000E+03  0.17124000000E+03 0. -1.
       11    1    1    2    0    0  0.64395179917E-02  0.33060348149E-02  0.47407246842E+00  0.47412800360E+00  0.51109989000E-03 0.  1.
     -623    1    1    2    0    0 -0.16871618517E-01 -0.11959577038E-01  0.21454555661E-03  0.17124000125E+03  0.17124000000E+03 0. -1.
       22    1    1    2    0    0  0.10432100829E-01  0.86535424381E-02  0.58171288135E+00  0.58187076645E+00  0.00000000000E+00 0.  1.
</event>
<event>
 5   1  0.2192208E+09  0.9118800E+02  0.7818608E-02  0.1180000E+00
       11   -1    0    0    0    0  0.00000000000E+00  0.00000000000E+00  0.10559998763E+01  0.10560000000E+01  0.51109989000E-03 0. -1.
     -623   -1    0    0    0    0  0.00000000000E+00  0.00000000000E+00  0.47855275298E-10  0.17124000000E+03  0.17124000000E+03 0. -1.
       11    1    1    2    0    0  0.55133480942E-03 -0.91327949184E-03  0.99406644210E+00  0.99406714591E+00  0.51109989000E-03 0. -1.
     -623    1    1    2    0    0 -0.14821199471E-03  0.85004357478E-04  0.74311863580E-05  0.17124000000E+03  0.17124000000E+03 0. -1.
       22    1    1    2    0    0 -0.40312281585E-03  0.82827513502E-03  0.61925994943E-01  0.61932845869E-01  0.00000000000E+00 0. -1.
</event>
<event>
 5   1  0.2192208E+09  0.9118800E+02  0.7818608E-02  0.1180000E+00
       11   -1    0    0    0    0  0.00000000000E+00  0.00000000000E+00  0.10559998763E+01  0.10560000000E+01  0.51109989000E-03 0. -1.
     -623   -1    0    0    0    0  0.00000000000E+00  0.00000000000E+00  0.47855275298E-10  0.17124000000E+03  0.17124000000E+03 0. -1.
       11    1    1    2    0    0  0.32856839562E-02 -0.10368200381E-01  0.62450545422E+00  0.62460036733E+00  0.51109989000E-03 0. -1.
     -623    1    1    2    0    0 -0.67875595643E-02  0.17667157275E-01  0.17180195361E-03  0.17124000105E+03  0.17124000000E+03 0. -1.
       22    1    1    2    0    0  0.35018753778E-02 -0.72989562947E-02  0.43132258437E+00  0.43139855086E+00  0.00000000000E+00 0. -1.
</event>
<event>
 5   1  0.2192208E+09  0.9118800E+02  0.7818608E-02  0.1180000E+00
       11   -1    0    0    0    0  0.00000000000E+00  0.00000000000E+00  0.10559998763E+01  0.10560000000E+01  0.51109989000E-03 0.  1.
     -623   -1    0    0    0    0  0.00000000000E+00  0.00000000000E+00  0.47855275298E-10  0.17124000000E+03  0.17124000000E+03 0. -1.
       11    1    1    2    0    0 -0.26481800013E-02  0.33084356669E-02  0.99089788421E+00  0.99090707776E+00  0.51109989000E-03 0.  1.
     -623    1    1    2    0    0  0.26300588650E-02 -0.47084427419E-02  0.24214688866E-04  0.17124000008E+03  0.17124000000E+03 0. -1.
       22    1    1    2    0    0  0.18121229965E-04  0.14000069074E-02  0.65077739875E-01  0.65092799717E-01  0.00000000000E+00 0.  1.
</event>
<event>
 5   1  0.2192208E+09  0.9118800E+02  0.7818608E-02  0.1180000E+00
       11   -1    0    0    0    0  0.00000000000E+00  0.00000000000E+00  0.10559998763E+01  0.10560000000E+01  0.51109989000E-03 0. -1.
     -623   -1    0    0    0    0  0.00000000000E+00  0.00000000000E+00  0.47855275298E-10  0.17124000000E+03  0.17124000000E+03 0.  1.
       11    1    1    2    0    0 -0.21024096859E-01  0.21737740137E-01  0.78558059969E+00  0.78616263064E+00  0.51109989000E-03 0. -1.
     -623    1    1    2    0    0  0.12762575086E-01 -0.48313644758E-03  0.15476824725E-02  0.17124000048E+03  0.17124000000E+03 0.  1.
       22    1    1    2    0    0  0.82615217711E-02 -0.21254603689E-01  0.26887159429E+00  0.26983688617E+00  0.00000000000E+00 0. -1.
</event>
<event>
 5   1  0.2192208E+09  0.9118800E+02  0.7818608E-02  0.1180000E+00
       11   -1    0    0    0    0  0.00000000000E+00  0.00000000000E+00  0.10559998763E+01  0.10560000000E+01  0.51109989000E-03 0.  1.
     -623   -1    0    0    0    0  0.00000000000E+00  0.00000000000E+00  0.47855275298E-10  0.17124000000E+03  0.17124000000E+03 0. -1.
       11    1    1    2    0    0 -0.38907657786E-03  0.86841454233E-02  0.53787938876E+00  0.53794987112E+00  0.51109989000E-03 0.  1.
     -623    1    1    2    0    0  0.37452741111E-03 -0.14613302778E-01  0.10491408109E-03  0.17124000062E+03  0.17124000000E+03 0. -1.
       22    1    1    2    0    0  0.14549126066E-04  0.59291589418E-02  0.51801568823E+00  0.51804961962E+00  0.00000000000E+00 0.  1.
</event>
<event>
 5   1  0.2192208E+09  0.9118800E+02  0.7818608E-02  0.1180000E+00
       11   -1    0    0    0    0  0.00000000000E+00  0.00000000000E+00  0.10559998763E+01  0.10560000000E+01  0.51109989000E-03 0. -1.
     -623   -1    0    0    0    0  0.00000000000E+00  0.00000000000E+00  0.47855275298E-10  0.17124000000E+03  0.17124000000E+03 0. -1.
       11    1    1    2    0    0 -0.13627866424E-01 -0.12296671653E-01  0.85917890176E+00  0.85937510630E+00  0.51109989000E-03 0. -1.
     -623    1    1    2    0    0 -0.35209569462E-02  0.71801199852E-03  0.12878966138E-02  0.17124000004E+03  0.17124000000E+03 0. -1.
       22    1    1    2    0    0  0.17148823369E-01  0.11578659654E-01  0.19553307783E+00  0.19662485099E+00  0.00000000000E+00 0. -1.
</event>
<event>
 5   1  0.2192208E+09  0.9118800E+02  0.7818608E-02  0.1180000E+00
       11   -1    0    0    0    0  0.00000000000E+00  0.00000000000E+00  0.10559998763E+01  0.10560000000E+01  0.51109989000E-03 0.  1.
     -623   -1    0    0    0    0  0.00000000000E+00  0.00000000000E+00  0.47855275298E-10  0.17124000000E+03  0.17124000000E+03 0. -1.
       11    1    1    2    0    0  0.29045067903E-02 -0.80115973364E-03  0.98327234189E+00  0.98327709094E+00  0.51109989000E-03 0.  1.
     -623    1    1    2    0    0 -0.24465822857E-02  0.15514520645E-02  0.99622898866E-05  0.17124000002E+03  0.17124000000E+03 0. -1.
       22    1    1    2    0    0 -0.45792456515E-03 -0.75029229240E-03  0.72717546033E-01  0.72722858405E-01  0.00000000000E+00 0.  1.
</event>
<event>
 5   1  0.2192208E+09  0.9118800E+02  0.7818608E-02  0.1180000E+00
       11   -1    0    0    0    0  0.00000000000E+00  0.00000000000E+00  0.10559998763E+01  0.10560000000E+01  0.51109989000E-03 0. -1.
     -623   -1    0    0    0    0  0.00000000000E+00  0.00000000000E+00  0.47855275298E-10  0.17124000000E+03  0.17124000000E+03 0. -1.
       11    1    1    2    0    0  0.14375912025E-01 -0.32871414584E-02  0.98311333651E+00  0.98322406693E+00  0.51109989000E-03 0. -1.
     -623    1    1    2    0    0 -0.14182506520E-01  0.19833213400E-02  0.12314301546E-03  0.17124000060E+03  0.17124000000E+03 0. -1.
       22    1    1    2    0    0 -0.19340538712E-03  0.13038201019E-02  0.72763405636E-01  0.72775343024E-01  0.00000000000E+00 0.  1.
</event>
<event>
 5   1  0.2192208E+09  0.9118800E+02  0.7818608E-02  0.1180000E+00
       11   -1    0    0    0    0  0.00000000000E+00  0.00000000000E+00  0.10559998763E+01  0.10560000000E+01  0.51109989000E-03 0. -1.
     -623   -1    0    0    0    0  0.00000000000E+00  0.00000000000E+00  0.47855275298E-10  0.17124000000E+03  0.17124000000E+03 0.  1.
       11    1    1    2    0    0 -0.69890533316E-02  0.11207839695E-01  0.92986440207E+00  0.92995834853E+00  0.51109989000E-03 0. -1.
     -623    1    1    2    0    0  0.78795234978E-02 -0.12791341888E-01  0.10757519838E-03  0.17124000066E+03  0.17124000000E+03 0.  1.
       22    1    1    2    0    0 -0.89045890096E-03  0.15834839053E-02  0.12602638950E+00  0.12603948266E+00  0.00000000000E+00 0. -1.
</event>
<event>
 5   1  0.2192208E+09  0.9118800E+02  0.7818608E-02  0.1180000E+00
       11   -1    0    0    0    0  0.00000000000E+00  0.00000000000E+00  0.10559998763E+01  0.10560000000E+01  0.51109989000E-03 0.  1.
     -623   -1    0    0    0    0  0.00000000000E+00  0.00000000000E+00  0.47855275298E-10  0.17124000000E+03  0.17124000000E+03 0. -1.
       11    1    1    2    0    0  0.86753442518E-02  0.18031310417E-01  0.95774617497E+00  0.95795531557E+00  0.51109989000E-03 0.  1.
     -623    1    1    2    0    0 -0.84851184944E-02 -0.21201348997E-01  0.26198648724E-03  0.17124000152E+03  0.17124000000E+03 0. -1.
       22    1    1    2    0    0 -0.19022582986E-03  0.31700383993E-02  0.97991705899E-01  0.98043152511E-01  0.00000000000E+00 0.  1.
</event>
<event>
 5   1  0.2192208E+09  0.9118800E+02  0.7818608E-02  0.1180000E+00
       11   -1    0    0    0    0  0.00000000000E+00  0.00000000000E+00  0.10559998763E+01  0.10560000000E+01  0.51109989000E-03 0. -1.
     -623   -1    0    0    0    0  0.00000000000E+00  0.00000000000E+00  0.47855275298E-10  0.17124000000E+03  0.17124000000E+03 0. -1.
       11    1    1    2    0    0  0.88723690117E-03 -0.16639876242E-02  0.96153339403E+00  0.96153537902E+00  0.51109989000E-03 0. -1.
     -623    1    1    2    0    0  0.90022335620E-04  0.15288364313E-05  0.21547008967E-04  0.17124000000E+03  0.17124000000E+03 0. -1.
       22    1    1    2    0    0 -0.97725923790E-03  0.16624587877E-02  0.94444948309E-01  0.94464633943E-01  0.00000000000E+00 0. -1.
</event>
<event>
 5   1  0.2192208E+09  0.9118800E+02  0.7818608E-02  0.1180000E+00
       11   -1    0    0    0    0  0.00000000000E+00  0.00000000000E+00  0.10559998763E+01  0.10560000000E+01  0.51109989000E-03 0.  1.
     -623   -1    0    0    0    0  0.00000000000E+00  0.00000000000E+00  0.47855275298E-10  0.17124000000E+03  0.17124000000E+03 0. -1.
       11    1    1    2    0    0 -0.77119781418E-02 -0.58574260568E-02  0.92685871995E+00  0.92690945190E+00  0.51109989000E-03 0.  1.
     -623    1    1    2    0    0  0.88359622093E-02  0.74420215241E-02  0.65617620787E-04  0.17124000039E+03  0.17124000000E+03 0. -1.
       22    1    1    2    0    0 -0.11239830335E-02 -0.15845945964E-02  0.12907541522E+00  0.12909003483E+00  0.00000000000E+00 0.  1.
</event>
<event>
 5   1  0.2192208E+09  0.9118800E+02  0.7818608E-02  0.1180000E+00
       11   -1    0    0    0    0  0.00000000000E+00  0.00000000000E+00  0.10559998763E+01  0.10560000000E+01  0.51109989000E-03 0. -1.
     -623   -1    0    0    0    0  0.00000000000E+00  0.00000000000E+00  0.47855275298E-10  0.17124000000E+03  0.17124000000E+03 0. -1.
       11    1    1    2    0    0  0.11691222620E-02 -0.45915051825E-01  0.94012813377E+00  0.94124955669E+00  0.51109989000E-03 0. -1.
     -623    1    1    2    0    0 -0.70099592699E-03  0.50745299007E-01  0.12314925936E-02  0.17124000752E+03  0.17124000000E+03 0. -1.
       22    1    1    2    0    0 -0.46812628199E-03 -0.48302510199E-02  0.11464032976E+00  0.11474299837E+00  0.00000000000E+00 0.  1.
</event>
<event>
 5   1  0.2192208E+09  0.9118800E+02  0.7818608E-02  0.1180000E+00
       11   -1    0    0    0    0  0.00000000000E+00  0.00000000000E+00  0.10559998763E+01  0.10560000000E+01  0.51109989000E-03 0. -1.
     -623   -1    0    0    0    0  0.00000000000E+00  0.00000000000E+00  0.47855275298E-10  0.17124000000E+03  0.17124000000E+03 0. -1.
       11    1    1    2    0    0 -0.97652982690E-03 -0.36701838770E-02  0.36218208813E+00  0.36220236063E+00  0.51109989000E-03 0. -1.
     -623    1    1    2    0    0  0.38027737588E-02  0.11685263857E-01  0.72645262921E-04  0.17124000044E+03  0.17124000000E+03 0. -1.
       22    1    1    2    0    0 -0.28262461487E-02 -0.80150867915E-02  0.69374575852E+00  0.69379781403E+00  0.00000000000E+00 0. -1.
</event>
<event>
 5   1  0.2192208E+09  0.9118800E+02  0.7818608E-02  0.1180000E+00
       11   -1    0    0    0    0  0.00000000000E+00  0.00000000000E+00  0.10559998763E+01  0.10560000000E+01  0.51109989000E-03 0. -1.
     -623   -1    0    0    0    0  0.00000000000E+00  0.00000000000E+00  0.47855275298E-10  0.17124000000E+03  0.17124000000E+03 0. -1.
       11    1    1    2    0    0 -0.14929970700E-01 -0.13587570504E-01  0.98115560346E+00  0.98136339116E+00  0.51109989000E-03 0. -1.
     -623    1    1    2    0    0  0.15088397994E-01  0.15404713536E-01  0.23131431885E-03  0.17124000136E+03  0.17124000000E+03 0. -1.
       22    1    1    2    0    0 -0.15842689158E-03 -0.18171426213E-02  0.74612930448E-01  0.74635222894E-01  0.00000000000E+00 0. -1.
</event>
<event>
 5   1  0.2192208E+09  0.9118800E+02  0.7818608E-02  0.1180000E+00
       11   -1    0    0    0    0  0.00000000000E+00  0.00000000000E+00  0.10559998763E+01  0.10560000000E+01  0.51109989000E-03 0. -1.
     -623   -1    0    0    0    0  0.00000000000E+00  0.00000000000E+00  0.47855275298E-10  0.17124000000E+03  0.17124000000E+03 0. -1.
       11    1    1    2    0    0 -0.12692635097E-02 -0.26295005083E-02  0.53857021011E+00  0.53857836732E+00  0.51109989000E-03 0. -1.
     -623    1    1    2    0    0  0.14173413024E-02  0.78038525551E-02  0.34111545831E-04  0.17124000018E+03  0.17124000000E+03 0. -1.
       22    1    1    2    0    0 -0.14807792687E-03 -0.51743527851E-02  0.51739565461E+00  0.51742154890E+00  0.00000000000E+00 0. -1.
</event>
<event>
 5   1  0.2192208E+09  0.9118800E+02  0.7818608E-02  0.1180000E+00
       11   -1    0    0    0    0  0.00000000000E+00  0.00000000000E+00  0.10559998763E+01  0.10560000000E+01  0.51109989000E-03 0.  1.
     -623   -1    0    0    0    0  0.00000000000E+00  0.00000000000E+00  0.47855275298E-10  0.17124000000E+03  0.17124000000E+03 0.  1.
       11    1    1    2    0    0  0.17813982692E-02  0.35252814796E-01  0.84158621265E+00  0.84232627222E+00  0.51109989000E-03 0.  1.
     -623    1    1    2    0    0 -0.39484783057E-02 -0.43549612361E-01  0.91766412672E-03  0.17124000559E+03  0.17124000000E+03 0.  1.
       22    1    1    2    0    0  0.21670799664E-02  0.82967967936E-02  0.21349598088E+00  0.21366812332E+00  0.00000000000E+00 0.  1.
</event>
<event>
 5   1  0.2192208E+09  0.9118800E+02  0.7818608E-02  0.1180000E+00
       11   -1    0    0    0    0  0.00000000000E+00  0.00000000000E+00  0.10559998763E+01  0.10560000000E+01  0.51109989000E-03 0.  1.
     -623   -1    0    0    0    0  0.00000000000E+00  0.00000000000E+00  0.47855275298E-10  0.17124000000E+03  0.17124000000E+03 0.  1.
       11    1    1    2    0    0 -0.32646266109E-02 -0.36076672711E-01  0.93792120811E+00  0.93862060384E+00  0.51109989000E-03 0.  1.
     -623    1    1    2    0    0  0.44948271366E-02  0.42618955609E-01  0.89356531035E-03  0.17124000536E+03  0.17124000000E+03 0.  1.
       22    1    1    2    0    0 -0.12302005095E-02 -0.65422827449E-02  0.11718509914E+00  0.11737402744E+00  0.00000000000E+00 0.  1.
</event>
<event>
 5   1  0.2192208E+09  0.9118800E+02  0.7818608E-02  0.1180000E+00
       11   -1    0    0    0    0  0.00000000000E+00  0.00000000000E+00  0.10559998763E+01  0.10560000000E+01  0.51109989000E-03 0. -1.
     -623   -1    0    0    0    0  0.00000000000E+00  0.00000000000E+00  0.47855275298E-10  0.17124000000E+03  0.17124000000E+03 0. -1.
       11    1    1    2    0    0 -0.66814222250E-02  0.11589453809E-01  0.79895287831E+00  0.79906502853E+00  0.51109989000E-03 0. -1.
     -623    1    1    2    0    0  0.10033154606E-01 -0.15641693604E-01  0.16685747435E-03  0.17124000101E+03  0.17124000000E+03 0. -1.
       22    1    1    2    0    0 -0.33517339414E-02  0.40522422282E-02  0.25688030481E+00  0.25693412733E+00  0.00000000000E+00 0. -1.
</event>
<event>
 5   1  0.2192208E+09  0.9118800E+02  0.7818608E-02  0.1180000E+00
       11   -1    0    0    0    0  0.00000000000E+00  0.00000000000E+00  0.10559998763E+01  0.10560000000E+01  0.51109989000E-03 0. -1.
     -623   -1    0    0    0    0  0.00000000000E+00  0.00000000000E+00  0.47855275298E-10  0.17124000000E+03  0.17124000000E+03 0.  1.
       11    1    1    2    0    0 -0.41948981151E-02 -0.42905157380E-02  0.78652777093E+00  0.78655082567E+00  0.51109989000E-03 0. -1.
     -623    1    1    2    0    0  0.12737550659E-02 -0.18447258966E-02  0.10864214513E-03  0.17124000001E+03  0.17124000000E+03 0.  1.
       22    1    1    2    0    0  0.29211430468E-02  0.61352416382E-02  0.26936346534E+00  0.26944916168E+00  0.00000000000E+00 0.  1.
</event>
<event>
 5   1  0.2192208E+09  0.9118800E+02  0.7818608E-02  0.1180000E+00
       11   -1    0    0    0    0  0.00000000000E+00  0.00000000000E+00  0.10559998763E+01  0.10560000000E+01  0.51109989000E-03 0.  1.
     -623   -1    0    0    0    0  0.00000000000E+00  0.00000000000E+00  0.47855275298E-10  0.17124000000E+03  0.17124000000E+03 0. -1.
       11    1    1    2    0    0 -0.37166469098E-03  0.11263656140E-01  0.94100361108E+00  0.94107123289E+00  0.51109989000E-03 0.  1.
     -623    1    1    2    0    0  0.47633777646E-03 -0.12881079078E-01  0.79412816484E-04  0.17124000049E+03  0.17124000000E+03 0. -1.
       22    1    1    2    0    0 -0.10467378234E-03  0.16174417825E-02  0.11491839723E+00  0.11492982684E+00  0.00000000000E+00 0. -1.
</event>
<event>
 5   1  0.2192208E+09  0.9118800E+02  0.7818608E-02  0.1180000E+00
       11   -1    0    0    0    0  0.00000000000E+00  0.00000000000E+00  0.10559998763E+01  0.10560000000E+01  0.51109989000E-03 0. -1.
     -623   -1    0    0    0    0  0.00000000000E+00  0.00000000000E+00  0.47855275298E-10  0.17124000000E+03  0.17124000000E+03 0. -1.
       11    1    1    2    0    0 -0.12340517856E-01  0.14276882357E-01  0.99494984572E+00  0.99512892355E+00  0.51109989000E-03 0. -1.
     -623    1    1    2    0    0  0.13086654510E-01 -0.15057728228E-01  0.18969855984E-03  0.17124000116E+03  0.17124000000E+03 0. -1.
       22    1    1    2    0    0 -0.74616515712E-03  0.78087866791E-03  0.60862631707E-01  0.60872214287E-01  0.00000000000E+00 0. -1.
</event>
<event>
 5   1  0.2192208E+09  0.9118800E+02  0.7818608E-02  0.1180000E+00
       11   -1    0    0    0    0  0.00000000000E+00  0.00000000000E+00  0.10559998763E+01  0.10560000000E+01  0.51109989000E-03 0. -1.
     -623   -1    0    0    0    0  0.00000000000E+00  0.00000000000E+00  0.47855275298E-10  0.17124000000E+03  0.17124000000E+03 0. -1.
       11    1    1    2    0    0 -0.95290212725E-02  0.14911368733E-01  0.83774920746E+00  0.83793624280E+00  0.51109989000E-03 0. -1.
     -623    1    1    2    0    0  0.26069630925E-02 -0.48840312491E-02  0.52767876475E-03  0.17124000009E+03  0.17124000000E+03 0. -1.
       22    1    1    2    0    0  0.69220581806E-02 -0.10027337485E-01  0.21772298989E+00  0.21806366665E+00  0.00000000000E+00 0. -1.
</event>
<event>
 5   1  0.2192208E+09  0.9118800E+02  0.7818608E-02  0.1180000E+00
       11   -1    0    0    0    0  0.00000000000E+00  0.00000000000E+00  0.10559998763E+01  0.10560000000E+01  0.51109989000E-03 0. -1.
     -623   -1    0    0    0    0  0.00000000000E+00  0.00000000000E+00  0.47855275298E-10  0.17124000000E+03  0.17124000000E+03 0. -1.
       11    1    1    2    0    0  0.15928185999E-01 -0.25383142987E-01  0.95793258585E+00  0.95840133103E+00  0.51109989000E-03 0. -1.
     -623    1    1    2    0    0 -0.17358499851E-01  0.28173389884E-01  0.52220024977E-03  0.17124000320E+03  0.17124000000E+03 0. -1.
       22    1    1    2    0    0  0.14303242620E-02 -0.27902637922E-02  0.97545723212E-01  0.97596104003E-01  0.00000000000E+00 0. -1.
</event>
<event>
 5   1  0.2192208E+09  0.9118800E+02  0.7818608E-02  0.1180000E+00
       11   -1    0    0    0    0  0.00000000000E+00  0.00000000000E+00  0.10559998763E+01  0.10560000000E+01  0.51109989000E-03 0. -1.
     -623   -1    0    0    0    0  0.00000000000E+00  0.00000000000E+00  0.47855275298E-10  0.17124000000E+03  0.17124000000E+03 0. -1.
       11    1    1    2    0    0 -0.45766619184E-02  0.16479162836E-01  0.99118798290E+00  0.99133565824E+00  0.51109989000E-03 0. -1.
     -623    1    1    2    0    0  0.46835533596E-02 -0.17808559167E-01  0.16229702248E-03  0.17124000099E+03  0.17124000000E+03 0. -1.
       22    1    1    2    0    0 -0.10689078334E-03  0.13293938299E-02  0.64649448143E-01  0.64663203283E-01  0.00000000000E+00 0.  1.
</event>
<event>
 5   1  0.2192208E+09  0.9118800E+02  0.7818608E-02  0.1180000E+00
       11   -1    0    0    0    0  0.00000000000E+00  0.00000000000E+00  0.10559998763E+01  0.10560000000E+01  0.51109989000E-03 0. -1.
     -623   -1    0    0    0    0  0.00000000000E+00  0.00000000000E+00  0.47855275298E-10  0.17124000000E+03  0.17124000000E+03 0. -1.
       11    1    1    2    0    0 -0.43909282479E-02  0.10316792237E-01  0.99754277080E+00  0.99760591280E+00  0.51109989000E-03 0. -1.
     -623    1    1    2    0    0  0.46686171821E-02 -0.10926805920E-01  0.67277307800E-04  0.17124000041E+03  0.17124000000E+03 0. -1.
       22    1    1    2    0    0 -0.27769624449E-03  0.61003079279E-03  0.58391481664E-01  0.58395328441E-01  0.00000000000E+00 0.  1.
</event>
<event>
 5   1  0.2192208E+09  0.9118800E+02  0.7818608E-02  0.1180000E+00
       11   -1    0    0    0    0  0.00000000000E+00  0.00000000000E+00  0.10559998763E+01  0.10560000000E+01  0.51109989000E-03 0.  1.
     -623   -1    0    0    0    0  0.00000000000E+00  0.00000000000E+00  0.47855275298E-10  0.17124000000E+03  0.17124000000E+03 0. -1.
       11    1    1    2    0    0 -0.26324275184E-02 -0.52891131594E-02  0.57287217680E+00  0.57290286835E+00  0.51109989000E-03 0.  1.
     -623    1    1    2    0    0  0.23236387058E-04 -0.15291058801E-03  0.68267376851E-04  0.17124000000E+03  0.17124000000E+03 0. -1.
       22    1    1    2    0    0  0.26091911313E-02  0.54420237476E-02  0.48305943383E+00  0.48309713320E+00  0.00000000000E+00 0. -1.
</event>
<event>
 5   1  0.2192208E+09  0.9118800E+02  0.7818608E-02  0.1180000E+00
       11   -1    0    0    0    0  0.00000000000E+00  0.00000000000E+00  0.10559998763E+01  0.10560000000E+01  0.51109989000E-03 0. -1.
     -623   -1    0    0    0    0  0.00000000000E+00  0.00000000000E+00  0.47855275298E-10  0.17124000000E+03  0.17124000000E+03 0. -1.
       11    1    1    2    0    0 -0.61700404732E-02  0.45023311240E-02  0.98963826261E+00  0.98966786976E+00  0.51109989000E-03 0. -1.
     -623    1    1    2    0    0  0.71057173220E-02 -0.36679443707E-02  0.41518458899E-04  0.17124000019E+03  0.17124000000E+03 0. -1.
       22    1    1    2    0    0 -0.93567694636E-03 -0.83438670297E-03  0.66320109788E-01  0.66331958020E-01  0.00000000000E+00 0. -1.
</event>
<event>
 5   1  0.2192208E+09  0.9118800E+02  0.7818608E-02  0.1180000E+00
       11   -1    0    0    0    0  0.00000000000E+00  0.00000000000E+00  0.10559998763E+01  0.10560000000E+01  0.51109989000E-03 0.  1.
     -623   -1    0    0    0    0  0.00000000000E+00  0.00000000000E+00  0.47855275298E-10  0.17124000000E+03  0.17124000000E+03 0.  1.
       11    1    1    2    0    0 -0.13422586282E-02 -0.34403720187E-03  0.31056357157E-01  0.31091454819E-01  0.51109989000E-03 0.  1.
     -623    1    1    2    0    0  0.28943213346E-02  0.12115096217E-01  0.10419981574E-03  0.17124000045E+03  0.17124000000E+03 0.  1.
       22    1    1    2    0    0 -0.15520627176E-02 -0.11771059062E-01  0.10248393235E+01  0.10249080962E+01  0.00000000000E+00 0.  1.
</event>
<event>
 5   1  0.2192208E+09  0.9118800E+02  0.7818608E-02  0.1180000E+00
       11   -1    0    0    0    0  0.00000000000E+00  0.00000000000E+00  0.10559998763E+01  0.10560000000E+01  0.51109989000E-03 0. -1.
     -623   -1    0    0    0    0  0.00000000000E+00  0.00000000000E+00  0.47855275298E-10  0.17124000000E+03  0.17124000000E+03 0. -1.
       11    1    1    2    0    0  0.18397810117E-02  0.48701319114E-02  0.63077161115E+00  0.63079330184E+00  0.51109989000E-03 0. -1.
     -623    1    1    2    0    0  0.13548692503E-02 -0.11209503451E-01  0.81201054059E-04  0.17124000037E+03  0.17124000000E+03 0. -1.
       22    1    1    2    0    0 -0.31946502897E-02  0.63393717696E-02  0.42514708580E+00  0.42520634754E+00  0.00000000000E+00 0.  1.
</event>
<event>
 5   1  0.2192208E+09  0.9118800E+02  0.7818608E-02  0.1180000E+00
       11   -1    0    0    0    0  0.00000000000E+00  0.00000000000E+00  0.10559998763E+01  0.10560000000E+01  0.51109989000E-03 0. -1.
     -623   -1    0    0    0    0  0.00000000000E+00  0.00000000000E+00  0.47855275298E-10  0.17124000000E+03  0.17124000000E+03 0.  1.
       11    1    1    2    0    0 -0.60176534503E-03 -0.52288106716E-02  0.78847465329E+00  0.78849238594E+00  0.51109989000E-03 0. -1.
     -623    1    1    2    0    0  0.32612821555E-03 -0.14100488779E-02  0.10014971585E-03  0.17124000001E+03  0.17124000000E+03 0.  1.
       22    1    1    2    0    0  0.27563712917E-03  0.66388595508E-02  0.26742507435E+00  0.26750760891E+00  0.00000000000E+00 0. -1.
</event>
<event>
 5   1  0.2192208E+09  0.9118800E+02  0.7818608E-02  0.1180000E+00
       11   -1    0    0    0    0  0.00000000000E+00  0.00000000000E+00  0.10559998763E+01  0.10560000000E+01  0.51109989000E-03 0.  1.
     -623   -1    0    0    0    0  0.00000000000E+00  0.00000000000E+00  0.47855275298E-10  0.17124000000E+03  0.17124000000E+03 0.  1.
       11    1    1    2    0    0  0.24762832141E-02 -0.56495205547E-02  0.83532949081E+00  0.83535242174E+00  0.51109989000E-03 0.  1.
     -623    1    1    2    0    0 -0.37536370454E-03  0.14444830575E-02  0.72890751256E-04  0.17124000001E+03  0.17124000000E+03 0.  1.
       22    1    1    2    0    0 -0.21009195110E-02  0.42050375029E-02  0.22059749069E+00  0.22064756763E+00  0.00000000000E+00 0.  1.
</event>
<event>
 5   1  0.2192208E+09  0.9118800E+02  0.7818608E-02  0.1180000E+00
       11   -1    0    0    0    0  0.00000000000E+00  0.00000000000E+00  0.10559998763E+01  0.10560000000E+01  0.51109989000E-03 0. -1.
     -623   -1    0    0    0    0  0.00000000000E+00  0.00000000000E+00  0.47855275298E-10  0.17124000000E+03  0.17124000000E+03 0. -1.
       11    1    1    2    0    0  0.85039684226E-02  0.78258227272E-02  0.99467428581E+00  0.99474155290E+00  0.51109989000E-03 0. -1.
     -623    1    1    2    0    0 -0.90754258815E-02 -0.85878737705E-02  0.75005192128E-04  0.17124000046E+03  0.17124000000E+03 0. -1.
       22    1    1    2    0    0  0.57145885810E-03  0.76205236735E-03  0.61250748155E-01  0.61258154057E-01  0.00000000000E+00 0. -1.
</event>
<event>
 5   1  0.2192208E+09  0.9118800E+02  0.7818608E-02  0.1180000E+00
       11   -1    0    0    0    0  0.00000000000E+00  0.00000000000E+00  0.10559998763E+01  0.10560000000E+01  0.51109989000E-03 0.  1.
     -623   -1    0    0    0    0  0.00000000000E+00  0.00000000000E+00  0.47855275298E-10  0.17124000000E+03  0.17124000000E+03 0. -1.
       11    1    1    2    0    0 -0.54810954587E-04 -0.56176845289E-02  0.51036451356E+00  0.51039568896E+00  0.51109989000E-03 0.  1.
     -623    1    1    2    0    0 -0.91393311054E-05  0.11689207436E-03  0.58785809696E-04  0.17124000000E+03  0.17124000000E+03 0. -1.
       22    1    1    2    0    0  0.63950285666E-04  0.55007924549E-02  0.54557657399E+00  0.54560430799E+00  0.00000000000E+00 0.  1.
</event>
<event>
 5   1  0.2192208E+09  0.9118800E+02  0.7818608E-02  0.1180000E+00
       11   -1    0    0    0    0  0.00000000000E+00  0.00000000000E+00  0.10559998763E+01  0.10560000000E+01  0.51109989000E-03 0. -1.
     -623   -1    0    0    0    0  0.00000000000E+00  0.00000000000E+00  0.47855275298E-10  0.17124000000E+03  0.17124000000E+03 0.  1.
       11    1    1    2    0    0  0.24855839460E-01 -0.19216955689E-01  0.89633171615E+00  0.89688232825E+00  0.51109989000E-03 0. -1.
     -623    1    1    2    0    0 -0.28483494992E-01  0.21791372602E-01  0.61643752250E-03  0.17124000376E+03  0.17124000000E+03 0.  1.
       22    1    1    2    0    0  0.36276537042E-02 -0.25744155142E-02  0.15905165494E+00  0.15911384737E+00  0.00000000000E+00 0. -1.
</event>
<event>
 5   1  0.2192208E+09  0.9118800E+02  0.7818608E-02  0.1180000E+00
       11   -1    0    0    0    0  0.00000000000E+00  0.00000000000E+00  0.10559998763E+01  0.10560000000E+01  0.51109989000E-03 0. -1.
     -623   -1    0    0    0    0  0.00000000000E+00  0.00000000000E+00  0.47855275298E-10  0.17124000000E+03  0.17124000000E+03 0. -1.
       11    1    1    2    0    0  0.17197855867E-02  0.79208915718E-03  0.99825974704E+00  0.99826167353E+00  0.51109989000E-03 0. -1.
     -623    1    1    2    0    0 -0.80797835062E-04 -0.10303170273E-03  0.29183604615E-04  0.17124000000E+03  0.17124000000E+03 0. -1.
       22    1    1    2    0    0 -0.16389877517E-02 -0.68905745450E-03  0.57710945217E-01  0.57738325910E-01  0.00000000000E+00 0.  1.
</event>
<event>
 5   1  0.2192208E+09  0.9118800E+02  0.7818608E-02  0.1180000E+00
       11   -1    0    0    0    0  0.00000000000E+00  0.00000000000E+00  0.10559998763E+01  0.10560000000E+01  0.51109989000E-03 0.  1.
     -623   -1    0    0    0    0  0.00000000000E+00  0.00000000000E+00  0.47855275298E-10  0.17124000000E+03  0.17124000000E+03 0. -1.
       11    1    1    2    0    0 -0.14138950845E-02 -0.12785592200E-02  0.98373035341E+00  0.98373233314E+00  0.51109989000E-03 0.  1.
     -623    1    1    2    0    0  0.25420465121E-04 -0.13096896475E-03  0.28945473594E-04  0.17124000000E+03  0.17124000000E+03 0. -1.
       22    1    1    2    0    0  0.13884746194E-02  0.14095281845E-02  0.72240575382E-01  0.72267664712E-01  0.00000000000E+00 0. -1.
</event>
<event>
 5   1  0.2192208E+09  0.9118800E+02  0.7818608E-02  0.1180000E+00
       11   -1    0    0    0    0  0.00000000000E+00  0.00000000000E+00  0.10559998763E+01  0.10560000000E+01  0.51109989000E-03 0.  1.
     -623   -1    0    0    0    0  0.00000000000E+00  0.00000000000E+00  0.47855275298E-10  0.17124000000E+03  0.17124000000E+03 0.  1.
       11    1    1    2    0    0 -0.76590925178E-03  0.24831287219E-02  0.81242641434E+00  0.81243073088E+00  0.51109989000E-03 0.  1.
     -623    1    1    2    0    0 -0.10637514937E-03  0.76027030601E-05  0.18490367462E-04  0.17124000000E+03  0.17124000000E+03 0.  1.
       22    1    1    2    0    0  0.87228440265E-03 -0.24907314250E-02  0.24355498665E+00  0.24356928408E+00  0.00000000000E+00 0. -1.
</event>
<event>
 5   1  0.2192208E+09  0.9118800E+02  0.7818608E-02  0.1180000E+00
       11   -1    0    0    0    0  0.00000000000E+00  0.00000000000E+00  0.10559998763E+01  0.10560000000E+01  0.51109989000E-03 0.  1.
     -623   -1    0    0    0    0  0.00000000000E+00  0.00000000000E+00  0.47855275298E-10  0.17124000000E+03  0.17124000000E+03 0.  1.
       11    1    1    2    0    0 -0.40269526482E-04  0.93047190722E-02  0.66441688350E+00  0.66448223131E+00  0.51109989000E-03 0.  1.
     -623    1    1    2    0    0  0.10260761463E-02 -0.91680481945E-03  0.15633319532E-03  0.17124000001E+03  0.17124000000E+03 0.  1.
       22    1    1    2    0    0 -0.98580662201E-03 -0.83879142508E-02  0.39142666190E+00  0.39151776533E+00  0.00000000000E+00 0.  1.
</event>
<event>
 5   1  0.2192208E+09  0.9118800E+02  0.7818608E-02  0.1180000E+00
       11   -1    0    0    0    0  0.00000000000E+00  0.00000000000E+00  0.10559998763E+01  0.10560000000E+01  0.51109989000E-03 0. -1.
     -623   -1    0    0    0    0  0.00000000000E+00  0.00000000000E+00  0.47855275298E-10  0.17124000000E+03  0.17124000000E+03 0.  1.
       11    1    1    2    0    0 -0.53146886041E-03  0.34294631865E-01  0.95648733575E+00  0.95710223534E+00  0.51109989000E-03 0. -1.
     -623    1    1    2    0    0  0.83242159681E-03 -0.37413615147E-01  0.66852128985E-03  0.17124000409E+03  0.17124000000E+03 0.  1.
       22    1    1    2    0    0 -0.30095279246E-03  0.31189858016E-02  0.98844090407E-01  0.98893745269E-01  0.00000000000E+00 0.  1.
</event>
<event>
 5   1  0.2192208E+09  0.9118800E+02  0.7818608E-02  0.1180000E+00
       11   -1    0    0    0    0  0.00000000000E+00  0.00000000000E+00  0.10559998763E+01  0.10560000000E+01  0.51109989000E-03 0.  1.
     -623   -1    0    0    0    0  0.00000000000E+00  0.00000000000E+00  0.47855275298E-10  0.17124000000E+03  0.17124000000E+03 0. -1.
       11    1    1    2    0    0  0.12476398421E-01 -0.48144585461E-02  0.97975145301E+00  0.97984284987E+00  0.51109989000E-03 0.  1.
     -623    1    1    2    0    0 -0.14030693156E-01  0.39173561203E-02  0.11304057099E-03  0.17124000062E+03  0.17124000000E+03 0. -1.
       22    1    1    2    0    0  0.15542952217E-02  0.89710228973E-03  0.76135419460E-01  0.76156567166E-01  0.00000000000E+00 0. -1.
</event>
<event>
 5   1  0.2192208E+09  0.9118800E+02  0.7818608E-02  0.1180000E+00
       11   -1    0    0    0    0  0.00000000000E+00  0.00000000000E+00  0.10559998763E+01  0.10560000000E+01  0.51109989000E-03 0. -1.
     -623   -1    0    0    0    0  0.00000000000E+00  0.00000000000E+00  0.47855275298E-10  0.17124000000E+03  0.17124000000E+03 0. -1.
       11    1    1    2    0    0 -0.36071341525E-02  0.28194948185E-02  0.96939305415E+00  0.96940400021E+00  0.51109989000E-03 0. -1.
     -623    1    1    2    0    0  0.20811037969E-02  0.28270519232E-02  0.20862392771E-03  0.17124000004E+03  0.17124000000E+03 0. -1.
       22    1    1    2    0    0  0.15260303550E-02 -0.56465467424E-02  0.86398198590E-01  0.86595963984E-01  0.00000000000E+00 0. -1.
</event>
<event>
 5   1  0.2192208E+09  0.9118800E+02  0.7818608E-02  0.1180000E+00
       11   -1    0    0    0    0  0.00000000000E+00  0.00000000000E+00  0.10559998763E+01  0.10560000000E+01  0.51109989000E-03 0. -1.
     -623   -1    0    0    0    0  0.00000000000E+00  0.00000000000E+00  0.47855275298E-10  0.17124000000E+03  0.17124000000E+03 0.  1.
       11    1    1    2    0    0 -0.56253214753E-02 -0.11778271392E-01  0.98425998359E+00  0.98434666071E+00  0.51109989000E-03 0. -1.
     -623    1    1    2    0    0  0.59875605177E-02  0.12967144572E-01  0.97928587550E-04  0.17124000060E+03  0.17124000000E+03 0.  1.
       22    1    1    2    0    0 -0.36224165858E-03 -0.11888788458E-02  0.71642425557E-01  0.71653205034E-01  0.00000000000E+00 0.  1.
</event>
<event>
 5   1  0.2192208E+09  0.9118800E+02  0.7818608E-02  0.1180000E+00
       11   -1    0    0    0    0  0.00000000000E+00  0.00000000000E+00  0.10559998763E+01  0.10560000000E+01  0.51109989000E-03 0. -1.
     -623   -1    0    0    0    0  0.00000000000E+00  0.00000000000E+00  0.47855275298E-10  0.17124000000E+03  0.17124000000E+03 0.  1.
       11    1    1    2    0    0  0.14448382638E-01 -0.11972027187E-01  0.96889629608E+00  0.96907810778E+00  0.51109989000E-03 0. -1.
     -623    1    1    2    0    0 -0.15609493185E-01  0.13021277096E-01  0.19698398883E-03  0.17124000121E+03  0.17124000000E+03 0.  1.
       22    1    1    2    0    0  0.11611093308E-02 -0.10492488945E-02  0.86906514040E-01  0.86920603316E-01  0.00000000000E+00 0.  1.
</event>
<event>
 5   1  0.2192208E+09  0.9118800E+02  0.7818608E-02  0.1180000E+00
       11   -1    0    0    0    0  0.00000000000E+00  0.00000000000E+00  0.10559998763E+01  0.10560000000E+01  0.51109989000E-03 0.  1.
     -623   -1    0    0    0    0  0.00000000000E+00  0.00000000000E+00  0.47855275298E-10  0.17124000000E+03  0.17124000000E+03 0. -1.
       11    1    1    2    0    0 -0.82582607082E-03  0.16233705765E-02  0.90669919926E+00  0.90670117265E+00  0.51109989000E-03 0.  1.
     -623    1    1    2    0    0 -0.11109661727E-04 -0.33707566556E-04  0.12658973373E-04  0.17124000000E+03  0.17124000000E+03 0. -1.
       22    1    1    2    0    0  0.83693573246E-03 -0.15896630102E-02  0.14928800959E+00  0.14929881881E+00  0.00000000000E+00 0. -1.
</event>
<event>
 5   1  0.2192208E+09  0.9118800E+02  0.7818608E-02  0.1180000E+00
       11   -1    0    0    0    0  0.00000000000E+00  0.00000000000E+00  0.10559998763E+01  0.10560000000E+01  0.51109989000E-03 0.  1.
     -623   -1    0    0    0    0  0.00000000000E+00  0.00000000000E+00  0.47855275298E-10  0.17124000000E+03  0.17124000000E+03 0. -1.
       11    1    1    2    0    0 -0.84580557777E-02 -0.96138489896E-02  0.49226820007E+00  0.49243497726E+00  0.51109989000E-03 0. -1.
     -623    1    1    2    0    0  0.20004493870E-01  0.21018088490E-01  0.40283225122E-03  0.17124000246E+03  0.17124000000E+03 0. -1.
       22    1    1    2    0    0 -0.11546436908E-01 -0.11404238256E-01  0.56332878156E+00  0.56356250141E+00  0.00000000000E+00 0.  1.
</event>
<event>
 5   1  0.2192208E+09  0.9118800E+02  0.7818608E-02  0.1180000E+00
       11   -1    0    0    0    0  0.00000000000E+00  0.00000000000E+00  0.10559998763E+01  0.10560000000E+01  0.51109989000E-03 0.  1.
     -623   -1    0    0    0    0  0.00000000000E+00  0.00000000000E+00  0.47855275298E-10  0.17124000000E+03  0.17124000000E+03 0. -1.
       11    1    1    2    0    0  0.17555902114E-02  0.21335141468E-02  0.95168466707E+00  0.95168881508E+00  0.51109989000E-03 0.  1.
     -623    1    1    2    0    0 -0.80625192411E-03  0.21165459830E-03  0.34713434357E-04  0.17124000000E+03  0.17124000000E+03 0. -1.
       22    1    1    2    0    0 -0.94933829049E-03 -0.23451687443E-02  0.10428049172E+00  0.10431117876E+00  0.00000000000E+00 0. -1.
</event>
<event>
 5   1  0.2192208E+09  0.9118800E+02  0.7818608E-02  0.1180000E+00
       11   -1    0    0    0    0  0.00000000000E+00  0.00000000000E+00  0.10559998763E+01  0.10560000000E+01  0.51109989000E-03 0.  1.
     -623   -1    0    0    0    0  0.00000000000E+00  0.00000000000E+00  0.47855275298E-10  0.17124000000E+03  0.17124000000E+03 0. -1.
       11    1    1    2    0    0 -0.10474915857E-02  0.97028962672E-03  0.96258133250E+00  0.96258252716E+00  0.51109989000E-03 0.  1.
     -623    1    1    2    0    0  0.30874452921E-03  0.20937017766E-03  0.11441292171E-04  0.17124000000E+03  0.17124000000E+03 0. -1.
       22    1    1    2    0    0  0.73874705568E-03 -0.11796598049E-02  0.93407105420E-01  0.93417475278E-01  0.00000000000E+00 0.  1.
</event>
<event>
 5   1  0.2192208E+09  0.9118800E+02  0.7818608E-02  0.1180000E+00
       11   -1    0    0    0    0  0.00000000000E+00  0.00000000000E+00  0.10559998763E+01  0.10560000000E+01  0.51109989000E-03 0. -1.
     -623   -1    0    0    0    0  0.00000000000E+00  0.00000000000E+00  0.47855275298E-10  0.17124000000E+03  0.17124000000E+03 0. -1.
       11    1    1    2    0    0  0.23265857775E-01 -0.68519426105E-02  0.84497624972E+00  0.84532441883E+00  0.51109989000E-03 0. -1.
     -623    1    1    2    0    0 -0.28497743860E-01  0.91782822538E-02  0.42848661148E-03  0.17124000262E+03  0.17124000000E+03 0. -1.
       22    1    1    2    0    0  0.52318852854E-02 -0.23263393861E-02  0.21059511045E+00  0.21067293377E+00  0.00000000000E+00 0. -1.
</event>
<event>
 5   1  0.2192208E+09  0.9118800E+02  0.7818608E-02  0.1180000E+00
       11   -1    0    0    0    0  0.00000000000E+00  0.00000000000E+00  0.10559998763E+01  0.10560000000E+01  0.51109989000E-03 0.  1.
     -623   -1    0    0    0    0  0.00000000000E+00  0.00000000000E+00  0.47855275298E-10  0.17124000000E+03  0.17124000000E+03 0. -1.
       11    1    1    2    0    0 -0.82691066351E-03 -0.19249199317E-02  0.95858117918E+00  0.95858360480E+00  0.51109989000E-03 0.  1.
     -623    1    1    2    0    0  0.13407761857E-03  0.65631582082E-03  0.13027821507E-04  0.17124000000E+03  0.17124000000E+03 0. -1.
       22    1    1    2    0    0  0.69283304390E-03  0.12686041058E-02  0.97405677584E-01  0.97416402108E-01  0.00000000000E+00 0. -1.
</event>
<event>
 5   1  0.2192208E+09  0.9118800E+02  0.7818608E-02  0.1180000E+00
       11   -1    0    0    0    0  0.00000000000E+00  0.00000000000E+00  0.10559998763E+01  0.10560000000E+01  0.51109989000E-03 0.  1.
     -623   -1    0    0    0    0  0.00000000000E+00  0.00000000000E+00  0.47855275298E-10  0.17124000000E+03  0.17124000000E+03 0.  1.
       11    1    1    2    0    0 -0.24472551811E-02 -0.51987191093E-02  0.77611272258E+00  0.77613416051E+00  0.51109989000E-03 0.  1.
     -623    1    1    2    0    0  0.37837268346E-03  0.83697394419E-03  0.62956058827E-04  0.17124000000E+03  0.17124000000E+03 0.  1.
       22    1    1    2    0    0  0.20688824972E-02  0.43617451642E-02  0.27982419884E+00  0.27986583813E+00  0.00000000000E+00 0.  1.
</event>
<event>
 5   1  0.2192208E+09  0.9118800E+02  0.7818608E-02  0.1180000E+00
       11   -1    0    0    0    0  0.00000000000E+00  0.00000000000E+00  0.10559998763E+01  0.10560000000E+01  0.51109989000E-03 0.  1.
     -623   -1    0    0    0    0  0.00000000000E+00  0.00000000000E+00  0.47855275298E-10  0.17124000000E+03  0.17124000000E+03 0. -1.
       11    1    1    2    0    0  0.44030512423E-02 -0.28959346061E-02  0.26687662432E+00  0.26692914252E+00  0.51109989000E-03 0.  1.
     -623    1    1    2    0    0  0.11187890438E-02 -0.14819471251E-01  0.27125471030E-03  0.17124000065E+03  0.17124000000E+03 0. -1.
       22    1    1    2    0    0 -0.55218402877E-02  0.17715405880E-01  0.78885199893E+00  0.78907021395E+00  0.00000000000E+00 0.  1.
</event>
<event>
 5   1  0.2192208E+09  0.9118800E+02  0.7818608E-02  0.1180000E+00
       11   -1    0    0    0    0  0.00000000000E+00  0.00000000000E+00  0.10559998763E+01  0.10560000000E+01  0.51109989000E-03 0.  1.
     -623   -1    0    0    0    0  0.00000000000E+00  0.00000000000E+00  0.47855275298E-10  0.17124000000E+03  0.17124000000E+03 0.  1.
       11    1    1    2    0    0 -0.10217790894E-02  0.22277262676E-02  0.80230883700E+00  0.80231274323E+00  0.51109989000E-03 0.  1.
     -623    1    1    2    0    0 -0.84849697741E-03  0.74177409753E-03  0.28061181595E-04  0.17124000000E+03  0.17124000000E+03 0.  1.
       22    1    1    2    0    0  0.18702760668E-02 -0.29695003651E-02  0.25366297812E+00  0.25368725299E+00  0.00000000000E+00 0. -1.
</event>
<event>
 5   1  0.2192208E+09  0.9118800E+02  0.7818608E-02  0.1180000E+00
       11   -1    0    0    0    0  0.00000000000E+00  0.00000000000E+00  0.10559998763E+01  0.10560000000E+01  0.51109989000E-03 0.  1.
     -623   -1    0    0    0    0  0.00000000000E+00  0.00000000000E+00  0.47855275298E-10  0.17124000000E+03  0.17124000000E+03 0. -1.
       11    1    1    2    0    0 -0.21739151557E-02  0.28885208172E-01  0.71195647717E+00  0.71254569521E+00  0.51109989000E-03 0.  1.
     -623    1    1    2    0    0  0.30043928624E-02 -0.43733340079E-01  0.91682355081E-03  0.17124000561E+03  0.17124000000E+03 0. -1.
       22    1    1    2    0    0 -0.83047755371E-03  0.14848129681E-01  0.34312652191E+00  0.34344863763E+00  0.00000000000E+00 0.  1.
</event>
<event>
 5   1  0.2192208E+09  0.9118800E+02  0.7818608E-02  0.1180000E+00
       11   -1    0    0    0    0  0.00000000000E+00  0.00000000000E+00  0.10559998763E+01  0.10560000000E+01  0.51109989000E-03 0.  1.
     -623   -1    0    0    0    0  0.00000000000E+00  0.00000000000E+00  0.47855275298E-10  0.17124000000E+03  0.17124000000E+03 0. -1.
       11    1    1    2    0    0 -0.19089849652E-01 -0.18543548117E-01  0.67551207269E+00  0.67603632085E+00  0.51109989000E-03 0.  1.
     -623    1    1    2    0    0  0.24538485217E-03  0.12376856043E-01  0.10422699288E-02  0.17124000045E+03  0.17124000000E+03 0. -1.
       22    1    1    2    0    0  0.18844464799E-01  0.61666920767E-02  0.37944553350E+00  0.37996322827E+00  0.00000000000E+00 0. -1.
</event>
<event>
 5   1  0.2192208E+09  0.9118800E+02  0.7818608E-02  0.1180000E+00
       11   -1    0    0    0    0  0.00000000000E+00  0.00000000000E+00  0.10559998763E+01  0.10560000000E+01  0.51109989000E-03 0. -1.
     -623   -1    0    0    0    0  0.00000000000E+00  0.00000000000E+00  0.47855275298E-10  0.17124000000E+03  0.17124000000E+03 0. -1.
       11    1    1    2    0    0  0.24505427861E-02 -0.24485633419E-01  0.95549754055E+00  0.95581450220E+00  0.51109989000E-03 0. -1.
     -623    1    1    2    0    0 -0.28829094987E-02  0.27136891715E-01  0.35503389190E-03  0.17124000217E+03  0.17124000000E+03 0. -1.
       22    1    1    2    0    0  0.43236963531E-03 -0.26512858068E-02  0.10014837211E+00  0.10018439348E+00  0.00000000000E+00 0. -1.
</event>
<event>
 5   1  0.2192208E+09  0.9118800E+02  0.7818608E-02  0.1180000E+00
       11   -1    0    0    0    0  0.00000000000E+00  0.00000000000E+00  0.10559998763E+01  0.10560000000E+01  0.51109989000E-03 0. -1.
     -623   -1    0    0    0    0  0.00000000000E+00  0.00000000000E+00  0.47855275298E-10  0.17124000000E+03  0.17124000000E+03 0.  1.
       11    1    1    2    0    0 -0.97097136274E-03  0.55993173562E-03  0.99504107423E+00  0.99504183678E+00  0.51109989000E-03 0. -1.
     -623    1    1    2    0    0  0.70220201975E-04  0.60988534547E-04  0.10457074365E-04  0.17124000000E+03  0.17124000000E+03 0.  1.
       22    1    1    2    0    0  0.90075116187E-03 -0.62092026920E-03  0.60948328368E-01  0.60958146507E-01  0.00000000000E+00 0.  1.
</event>
<event>
 5   1  0.2192208E+09  0.9118800E+02  0.7818608E-02  0.1180000E+00
       11   -1    0    0    0    0  0.00000000000E+00  0.00000000000E+00  0.10559998763E+01  0.10560000000E+01  0.51109989000E-03 0. -1.
     -623   -1    0    0    0    0  0.00000000000E+00  0.00000000000E+00  0.47855275298E-10  0.17124000000E+03  0.17124000000E+03 0. -1.
       11    1    1    2    0    0 -0.72579824657E-03  0.94328305447E-02  0.59726180858E+00  0.59733695205E+00  0.51109989000E-03 0. -1.
     -623    1    1    2    0    0  0.22652315009E-02 -0.18723985812E-01  0.17275807533E-03  0.17124000104E+03  0.17124000000E+03 0. -1.
       22    1    1    2    0    0 -0.15394333744E-02  0.92911562604E-02  0.45856536569E+00  0.45866206520E+00  0.00000000000E+00 0. -1.
</event>
<event>
 5   1  0.2192208E+09  0.9118800E+02  0.7818608E-02  0.1180000E+00
       11   -1    0    0    0    0  0.00000000000E+00  0.00000000000E+00  0.10559998763E+01  0.10560000000E+01  0.51109989000E-03 0. -1.
     -623   -1    0    0    0    0  0.00000000000E+00  0.00000000000E+00  0.47855275298E-10  0.17124000000E+03  0.17124000000E+03 0.  1.
       11    1    1    2    0    0  0.12017128141E-02 -0.14244710520E-02  0.92817455737E+00  0.92817656909E+00  0.51109989000E-03 0. -1.
     -623    1    1    2    0    0 -0.68311447186E-03 -0.19074292313E-03  0.13147212997E-04  0.17124000000E+03  0.17124000000E+03 0.  1.
       22    1    1    2    0    0 -0.51859831654E-03  0.16152139823E-02  0.12781221159E+00  0.12782346925E+00  0.00000000000E+00 0. -1.
</event>
<event>
 5   1  0.2192208E+09  0.9118800E+02  0.7818608E-02  0.1180000E+00
       11   -1    0    0    0    0  0.00000000000E+00  0.00000000000E+00  0.10559998763E+01  0.10560000000E+01  0.51109989000E-03 0. -1.
     -623   -1    0    0    0    0  0.00000000000E+00  0.00000000000E+00  0.47855275298E-10  0.17124000000E+03  0.17124000000E+03 0.  1.
       11    1    1    2    0    0  0.11123393523E-01 -0.38910385950E-02  0.96681966518E+00  0.96689161558E+00  0.51109989000E-03 0. -1.
     -623    1    1    2    0    0 -0.84686601896E-02  0.17165007733E-02  0.13814759398E-03  0.17124000022E+03  0.17124000000E+03 0.  1.
       22    1    1    2    0    0 -0.26547333279E-02  0.21745378206E-02  0.89042064295E-01  0.89108167065E-01  0.00000000000E+00 0. -1.
</event>
<event>
 5   1  0.2192208E+09  0.9118800E+02  0.7818608E-02  0.1180000E+00
       11   -1    0    0    0    0  0.00000000000E+00  0.00000000000E+00  0.10559998763E+01  0.10560000000E+01  0.51109989000E-03 0.  1.
     -623   -1    0    0    0    0  0.00000000000E+00  0.00000000000E+00  0.47855275298E-10  0.17124000000E+03  0.17124000000E+03 0.  1.
       11    1    1    2    0    0  0.42633518295E-02 -0.10331482827E-01  0.66125251097E+00  0.66134715558E+00  0.51109989000E-03 0.  1.
     -623    1    1    2    0    0 -0.46980544050E-03  0.59772073006E-02  0.13688148660E-03  0.17124000011E+03  0.17124000000E+03 0.  1.
       22    1    1    2    0    0 -0.37935463879E-02  0.43542755122E-02  0.39461048636E+00  0.39465274186E+00  0.00000000000E+00 0.  1.
</event>
<event>
 5   1  0.2192208E+09  0.9118800E+02  0.7818608E-02  0.1180000E+00
       11   -1    0    0    0    0  0.00000000000E+00  0.00000000000E+00  0.10559998763E+01  0.10560000000E+01  0.51109989000E-03 0.  1.
     -623   -1    0    0    0    0  0.00000000000E+00  0.00000000000E+00  0.47855275298E-10  0.17124000000E+03  0.17124000000E+03 0. -1.
       11    1    1    2    0    0  0.19594195457E-03  0.90982287330E-03  0.98318102462E+00  0.98318159796E+00  0.51109989000E-03 0.  1.
     -623    1    1    2    0    0 -0.21728542628E-03 -0.10759360901E-03  0.48721543267E-05  0.17124000000E+03  0.17124000000E+03 0. -1.
       22    1    1    2    0    0  0.21343476393E-04 -0.80222926197E-03  0.72814002347E-01  0.72818424627E-01  0.00000000000E+00 0.  1.
</event>
<event>
 5   1  0.2192208E+09  0.9118800E+02  0.7818608E-02  0.1180000E+00
       11   -1    0    0    0    0  0.00000000000E+00  0.00000000000E+00  0.10559998763E+01  0.10560000000E+01  0.51109989000E-03 0. -1.
     -623   -1    0    0    0    0  0.00000000000E+00  0.00000000000E+00  0.47855275298E-10  0.17124000000E+03  0.17124000000E+03 0.  1.
       11    1    1    2    0    0 -0.15506212698E-01 -0.23398931425E-02  0.99728094909E+00  0.99740436653E+00  0.51109989000E-03 0. -1.
     -623    1    1    2    0    0  0.13929852901E-01  0.10866187253E-02  0.15848118879E-03  0.17124000057E+03  0.17124000000E+03 0.  1.
       22    1    1    2    0    0  0.15763597138E-02  0.12532744106E-02  0.58560452452E-01  0.58595069743E-01  0.00000000000E+00 0. -1.
</event>
<event>
 5   1  0.2192208E+09  0.9118800E+02  0.7818608E-02  0.1180000E+00
       11   -1    0    0    0    0  0.00000000000E+00  0.00000000000E+00  0.10559998763E+01  0.10560000000E+01  0.51109989000E-03 0. -1.
     -623   -1    0    0    0    0  0.00000000000E+00  0.00000000000E+00  0.47855275298E-10  0.17124000000E+03  0.17124000000E+03 0.  1.
       11    1    1    2    0    0  0.67841826423E-03 -0.34340939569E-02  0.75719110934E+00  0.75719937304E+00  0.51109989000E-03 0. -1.
     -623    1    1    2    0    0  0.52828099178E-02 -0.12177892685E-01  0.47634097208E-03  0.17124000052E+03  0.17124000000E+03 0.  1.
       22    1    1    2    0    0 -0.59612281823E-02  0.15611986643E-01  0.29833242612E+00  0.29880011185E+00  0.00000000000E+00 0. -1.
</event>
<event>
 5   1  0.2192208E+09  0.9118800E+02  0.7818608E-02  0.1180000E+00
       11   -1    0    0    0    0  0.00000000000E+00  0.00000000000E+00  0.10559998763E+01  0.10560000000E+01  0.51109989000E-03 0.  1.
     -623   -1    0    0    0    0  0.00000000000E+00  0.00000000000E+00  0.47855275298E-10  0.17124000000E+03  0.17124000000E+03 0.  1.
       11    1    1    2    0    0  0.27624069093E-02 -0.53783969472E-02  0.38146491449E+00  0.38151317180E+00  0.51109989000E-03 0.  1.
     -623    1    1    2    0    0 -0.10264316688E-01  0.14602576668E-01  0.15386612441E-03  0.17124000093E+03  0.17124000000E+03 0.  1.
       22    1    1    2    0    0  0.75019106576E-02 -0.92241809720E-02  0.67438118621E+00  0.67448598836E+00  0.00000000000E+00 0.  1.
</event>
<event>
 5   1  0.2192208E+09  0.9118800E+02  0.7818608E-02  0.1180000E+00
       11   -1    0    0    0    0  0.00000000000E+00  0.00000000000E+00  0.10559998763E+01  0.10560000000E+01  0.51109989000E-03 0. -1.
     -623   -1    0    0    0    0  0.00000000000E+00  0.00000000000E+00  0.47855275298E-10  0.17124000000E+03  0.17124000000E+03 0.  1.
       11    1    1    2    0    0 -0.87399748393E-03  0.27432481573E-03  0.99940740779E+00  0.99940795829E+00  0.51109989000E-03 0. -1.
     -623    1    1    2    0    0  0.17000226268E-03  0.62688153495E-03  0.11983743987E-04  0.17124000000E+03  0.17124000000E+03 0.  1.
       22    1    1    2    0    0  0.70399521935E-03 -0.90120635768E-03  0.56580496628E-01  0.56592052276E-01  0.00000000000E+00 0.  1.
</event>
<event>
 5   1  0.2192208E+09  0.9118800E+02  0.7818608E-02  0.1180000E+00
       11   -1    0    0    0    0  0.00000000000E+00  0.00000000000E+00  0.10559998763E+01  0.10560000000E+01  0.51109989000E-03 0.  1.
     -623   -1    0    0    0    0  0.00000000000E+00  0.00000000000E+00  0.47855275298E-10  0.17124000000E+03  0.17124000000E+03 0. -1.
       11    1    1    2    0    0 -0.86150584502E-03  0.93079364924E-02  0.91567407905E+00  0.91572193385E+00  0.51109989000E-03 0.  1.
     -623    1    1    2    0    0  0.59468877745E-03 -0.10785983528E-01  0.56112660310E-04  0.17124000034E+03  0.17124000000E+03 0. -1.
       22    1    1    2    0    0  0.26681710326E-03  0.14780463879E-02  0.14026962129E+00  0.14027766205E+00  0.00000000000E+00 0.  1.
</event>
<event>
 5   1  0.2192208E+09  0.9118800E+02  0.7818608E-02  0.1180000E+00
       11   -1    0    0    0    0  0.00000000000E+00  0.00000000000E+00  0.10559998763E+01  0.10560000000E+01  0.51109989000E-03 0. -1.
     -623   -1    0    0    0    0  0.00000000000E+00  0.00000000000E+00  0.47855275298E-10  0.17124000000E+03  0.17124000000E+03 0. -1.
       11    1    1    2    0    0  0.11452140411E-02  0.11921490447E-02  0.99581555511E+00  0.99581705838E+00  0.51109989000E-03 0. -1.
     -623    1    1    2    0    0 -0.15071416650E-03  0.15560590956E-03  0.24692163960E-04  0.17124000000E+03  0.17124000000E+03 0. -1.
       22    1    1    2    0    0 -0.99449987458E-03 -0.13477549543E-02  0.60159629058E-01  0.60182941452E-01  0.00000000000E+00 0.  1.
</event>
<event>
 5   1  0.2192208E+09  0.9118800E+02  0.7818608E-02  0.1180000E+00
       11   -1    0    0    0    0  0.00000000000E+00  0.00000000000E+00  0.10559998763E+01  0.10560000000E+01  0.51109989000E-03 0.  1.
     -623   -1    0    0    0    0  0.00000000000E+00  0.00000000000E+00  0.47855275298E-10  0.17124000000E+03  0.17124000000E+03 0.  1.
       11    1    1    2    0    0  0.58065840880E-03 -0.71442732386E-03  0.99637326640E+00  0.99637382282E+00  0.51109989000E-03 0.  1.
     -623    1    1    2    0    0 -0.78107714366E-04 -0.17546531077E-04  0.70438715791E-05  0.17124000000E+03  0.17124000000E+03 0.  1.
       22    1    1    2    0    0 -0.50255069244E-03  0.73197385539E-03  0.59619593098E-01  0.59626204174E-01  0.00000000000E+00 0. -1.
</event>
<event>
 5   1  0.2192208E+09  0.9118800E+02  0.7818608E-02  0.1180000E+00
       11   -1    0    0    0    0  0.00000000000E+00  0.00000000000E+00  0.10559998763E+01  0.10560000000E+01  0.51109989000E-03 0. -1.
     -623   -1    0    0    0    0  0.00000000000E+00  0.00000000000E+00  0.47855275298E-10  0.17124000000E+03  0.17124000000E+03 0.  1.
       11    1    1    2    0    0 -0.22306828132E-02 -0.14572812475E-01  0.72115861528E+00  0.72130947063E+00  0.51109989000E-03 0. -1.
     -623    1    1    2    0    0  0.22571190237E-02  0.23224785729E-01  0.26417165363E-03  0.17124000159E+03  0.17124000000E+03 0.  1.
       22    1    1    2    0    0 -0.26436150554E-04 -0.86519726366E-02  0.33457706137E+00  0.33468891126E+00  0.00000000000E+00 0. -1.
</event>
<event>
 5   1  0.2192208E+09  0.9118800E+02  0.7818608E-02  0.1180000E+00
       11   -1    0    0    0    0  0.00000000000E+00  0.00000000000E+00  0.10559998763E+01  0.10560000000E+01  0.51109989000E-03 0. -1.
     -623   -1    0    0    0    0  0.00000000000E+00  0.00000000000E+00  0.47855275298E-10  0.17124000000E+03  0.17124000000E+03 0.  1.
       11    1    1    2    0    0  0.84125569751E-03  0.52667457586E-03  0.34887774019E+00  0.34887952637E+00  0.51109989000E-03 0. -1.
     -623    1    1    2    0    0 -0.37505410292E-02 -0.10823574276E-01  0.83005525272E-04  0.17124000038E+03  0.17124000000E+03 0.  1.
       22    1    1    2    0    0  0.29092853511E-02  0.10296899756E-01  0.70703913612E+00  0.70712009594E+00  0.00000000000E+00 0. -1.
</event>
<event>
 5   1  0.2192208E+09  0.9118800E+02  0.7818608E-02  0.1180000E+00
       11   -1    0    0    0    0  0.00000000000E+00  0.00000000000E+00  0.10559998763E+01  0.10560000000E+01  0.51109989000E-03 0.  1.
     -623   -1    0    0    0    0  0.00000000000E+00  0.00000000000E+00  0.47855275298E-10  0.17124000000E+03  0.17124000000E+03 0. -1.
       11    1    1    2    0    0  0.84354798891E-03  0.54131200903E-03  0.10030912796E+01  0.10030919105E+01  0.51109989000E-03 0.  1.
     -623    1    1    2    0    0 -0.19343086809E-03  0.92717454388E-04  0.83012194789E-05  0.17124000000E+03  0.17124000000E+03 0. -1.
       22    1    1    2    0    0 -0.65011712139E-03 -0.63402946314E-03  0.52900292469E-01  0.52908086234E-01  0.00000000000E+00 0.  1.
</event>
<event>
 5   1  0.2192208E+09  0.9118800E+02  0.7818608E-02  0.1180000E+00
       11   -1    0    0    0    0  0.00000000000E+00  0.00000000000E+00  0.10559998763E+01  0.10560000000E+01  0.51109989000E-03 0. -1.
     -623   -1    0    0    0    0  0.00000000000E+00  0.00000000000E+00  0.47855275298E-10  0.17124000000E+03  0.17124000000E+03 0.  1.
       11    1    1    2    0    0 -0.20111633959E-02 -0.36249865867E-02  0.55836673798E+00  0.55838236059E+00  0.51109989000E-03 0. -1.
     -623    1    1    2    0    0  0.47290848261E-02  0.89412214774E-02  0.51619140992E-04  0.17124000030E+03  0.17124000000E+03 0.  1.
       22    1    1    2    0    0 -0.27179213635E-02 -0.53162347646E-02  0.49758150435E+00  0.49761732579E+00  0.00000000000E+00 0. -1.
</event>
<event>
 5   1  0.2192208E+09  0.9118800E+02  0.7818608E-02  0.1180000E+00
       11   -1    0    0    0    0  0.00000000000E+00  0.00000000000E+00  0.10559998763E+01  0.10560000000E+01  0.51109989000E-03 0. -1.
     -623   -1    0    0    0    0  0.00000000000E+00  0.00000000000E+00  0.47855275298E-10  0.17124000000E+03  0.17124000000E+03 0. -1.
       11    1    1    2    0    0  0.24009821059E-02 -0.36758766644E-02  0.81063894223E+00  0.81065099313E+00  0.51109989000E-03 0. -1.
     -623    1    1    2    0    0 -0.28259243078E-02  0.65889484334E-02  0.29739700466E-04  0.17124000015E+03  0.17124000000E+03 0. -1.
       22    1    1    2    0    0  0.42494226186E-03 -0.29130719088E-02  0.24533121683E+00  0.24534887918E+00  0.00000000000E+00 0.  1.
</event>
<event>
 5   1  0.2192208E+09  0.9118800E+02  0.7818608E-02  0.1180000E+00
       11   -1    0    0    0    0  0.00000000000E+00  0.00000000000E+00  0.10559998763E+01  0.10560000000E+01  0.51109989000E-03 0.  1.
     -623   -1    0    0    0    0  0.00000000000E+00  0.00000000000E+00  0.47855275298E-10  0.17124000000E+03  0.17124000000E+03 0. -1.
       11    1    1    2    0    0 -0.74807889627E-02 -0.98709374016E-02  0.92693511277E+00  0.92701799449E+00  0.51109989000E-03 0.  1.
     -623    1    1    2    0    0  0.83120195778E-02  0.11357411060E-01  0.94581027649E-04  0.17124000058E+03  0.17124000000E+03 0. -1.
       22    1    1    2    0    0 -0.83123910626E-03 -0.14864852603E-02  0.12897126123E+00  0.12898250587E+00  0.00000000000E+00 0.  1.
</event>
<event>
 5   1  0.2192208E+09  0.9118800E+02  0.7818608E-02  0.1180000E+00
       11   -1    0    0    0    0  0.00000000000E+00  0.00000000000E+00  0.10559998763E+01  0.10560000000E+01  0.51109989000E-03 0. -1.
     -623   -1    0    0    0    0  0.00000000000E+00  0.00000000000E+00  0.47855275298E-10  0.17124000000E+03  0.17124000000E+03 0. -1.
       11    1    1    2    0    0  0.10614267963E-01  0.25424006342E-01  0.99351177572E+00  0.99389383361E+00  0.51109989000E-03 0. -1.
     -623    1    1    2    0    0 -0.11278872183E-01 -0.27067409703E-01  0.40975081371E-03  0.17124000251E+03  0.17124000000E+03 0. -1.
       22    1    1    2    0    0  0.66460555412E-03  0.16434065628E-02  0.62078474709E-01  0.62103780141E-01  0.00000000000E+00 0. -1.
</event>
<event>
 5   1  0.2192208E+09  0.9118800E+02  0.7818608E-02  0.1180000E+00
       11   -1    0    0    0    0  0.00000000000E+00  0.00000000000E+00  0.10559998763E+01  0.10560000000E+01  0.51109989000E-03 0. -1.
     -623   -1    0    0    0    0  0.00000000000E+00  0.00000000000E+00  0.47855275298E-10  0.17124000000E+03  0.17124000000E+03 0.  1.
       11    1    1    2    0    0  0.13666291353E-02 -0.22013881642E-03  0.92385395768E+00  0.92385513609E+00  0.51109989000E-03 0. -1.
     -623    1    1    2    0    0 -0.75505208455E-03  0.16610691024E-02  0.10336109686E-04  0.17124000001E+03  0.17124000000E+03 0.  1.
       22    1    1    2    0    0 -0.61157704538E-03 -0.14409302978E-02  0.13213559011E+00  0.13214486173E+00  0.00000000000E+00 0. -1.
</event>
<event>
 5   1  0.2192208E+09  0.9118800E+02  0.7818608E-02  0.1180000E+00
       11   -1    0    0    0    0  0.00000000000E+00  0.00000000000E+00  0.10559998763E+01  0.10560000000E+01  0.51109989000E-03 0. -1.
     -623   -1    0    0    0    0  0.00000000000E+00  0.00000000000E+00  0.47855275298E-10  0.17124000000E+03  0.17124000000E+03 0. -1.
       11    1    1    2    0    0  0.12744843441E-01  0.20453661860E-02  0.97549739238E+00  0.97558292232E+00  0.51109989000E-03 0. -1.
     -623    1    1    2    0    0 -0.13009234314E-01 -0.33330779555E-02  0.96678349428E-04  0.17124000053E+03  0.17124000000E+03 0. -1.
       22    1    1    2    0    0  0.26439097742E-03  0.12877117965E-02  0.80405814176E-01  0.80416559598E-01  0.00000000000E+00 0. -1.
</event>
<event>
 5   1  0.2192208E+09  0.9118800E+02  0.7818608E-02  0.1180000E+00
       11   -1    0    0    0    0  0.00000000000E+00  0.00000000000E+00  0.10559998763E+01  0.10560000000E+01  0.51109989000E-03 0.  1.
     -623   -1    0    0    0    0  0.00000000000E+00  0.00000000000E+00  0.47855275298E-10  0.17124000000E+03  0.17124000000E+03 0. -1.
       11    1    1    2    0    0 -0.19102104039E-02 -0.11429192909E-01  0.81219962947E+00  0.81228244761E+00  0.51109989000E-03 0.  1.
     -623    1    1    2    0    0  0.22202426010E-02  0.14753287966E-01  0.10621167411E-03  0.17124000065E+03  0.17124000000E+03 0. -1.
       22    1    1    2    0    0 -0.31003197631E-03 -0.33240935902E-02  0.24369393023E+00  0.24371679743E+00  0.00000000000E+00 0.  1.
</event>
<event>
 5   1  0.2192208E+09  0.9118800E+02  0.7818608E-02  0.1180000E+00
       11   -1    0    0    0    0  0.00000000000E+00  0.00000000000E+00  0.10559998763E+01  0.10560000000E+01  0.51109989000E-03 0.  1.
     -623   -1    0    0    0    0  0.00000000000E+00  0.00000000000E+00  0.47855275298E-10  0.17124000000E+03  0.17124000000E+03 0. -1.
       11    1    1    2    0    0 -0.42900573384E-02  0.15917678072E-01  0.87977884921E+00  0.87993344169E+00  0.51109989000E-03 0.  1.
     -623    1    1    2    0    0  0.27289526967E-02 -0.19002508034E-01  0.18949371480E-03  0.17124000108E+03  0.17124000000E+03 0. -1.
       22    1    1    2    0    0  0.15611046680E-02  0.30848297791E-02  0.17603152325E+00  0.17606547192E+00  0.00000000000E+00 0. -1.
</event>
<event>
 5   1  0.2192208E+09  0.9118800E+02  0.7818608E-02  0.1180000E+00
       11   -1    0    0    0    0  0.00000000000E+00  0.00000000000E+00  0.10559998763E+01  0.10560000000E+01  0.51109989000E-03 0. -1.
     -623   -1    0    0    0    0  0.00000000000E+00  0.00000000000E+00  0.47855275298E-10  0.17124000000E+03  0.17124000000E+03 0.  1.
       11    1    1    2    0    0  0.35654724291E-02 -0.94943591323E-02  0.27784736712E+00  0.27803286872E+00  0.51109989000E-03 0. -1.
     -623    1    1    2    0    0 -0.90124329444E-03  0.23534494267E-03  0.24504322973E-03  0.17124000000E+03  0.17124000000E+03 0.  1.
       22    1    1    2    0    0 -0.26642291355E-02  0.92590141899E-02  0.77790746502E+00  0.77796712758E+00  0.00000000000E+00 0.  1.
</event>
<event>
 5   1  0.2192208E+09  0.9118800E+02  0.7818608E-02  0.1180000E+00
       11   -1    0    0    0    0  0.00000000000E+00  0.00000000000E+00  0.10559998763E+01  0.10560000000E+01  0.51109989000E-03 0. -1.
     -623   -1    0    0    0    0  0.00000000000E+00  0.00000000000E+00  0.47855275298E-10  0.17124000000E+03  0.17124000000E+03 0. -1.
       11    1    1    2    0    0 -0.18835081176E-02 -0.31207289530E-02  0.95086185196E+00  0.95086897588E+00  0.51109989000E-03 0. -1.
     -623    1    1    2    0    0  0.30142449680E-02 -0.66643324494E-03  0.81348200706E-04  0.17124000003E+03  0.17124000000E+03 0. -1.
       22    1    1    2    0    0 -0.11307368496E-02  0.37871621978E-02  0.10505667593E+00  0.10513099600E+00  0.00000000000E+00 0.  1.
</event>
<event>
 5   1  0.2192208E+09  0.9118800E+02  0.7818608E-02  0.1180000E+00
       11   -1    0    0    0    0  0.00000000000E+00  0.00000000000E+00  0.10559998763E+01  0.10560000000E+01  0.51109989000E-03 0.  1.
     -623   -1    0    0    0    0  0.00000000000E+00  0.00000000000E+00  0.47855275298E-10  0.17124000000E+03  0.17124000000E+03 0.  1.
       11    1    1    2    0    0 -0.48438365600E-02 -0.42781998719E-02  0.62412398286E+00  0.62415765072E+00  0.51109989000E-03 0.  1.
     -623    1    1    2    0    0 -0.69659493299E-03 -0.34771407902E-03  0.93867914124E-04  0.17124000000E+03  0.17124000000E+03 0.  1.
       22    1    1    2    0    0  0.55404314963E-02  0.46259139526E-02  0.43178203066E+00  0.43184235256E+00  0.00000000000E+00 0.  1.
</event>
<event>
 5   1  0.2192208E+09  0.9118800E+02  0.7818608E-02  0.1180000E+00
       11   -1    0    0    0    0  0.00000000000E+00  0.00000000000E+00  0.10559998763E+01  0.10560000000E+01  0.51109989000E-03 0. -1.
     -623   -1    0    0    0    0  0.00000000000E+00  0.00000000000E+00  0.47855275298E-10  0.17124000000E+03  0.17124000000E+03 0.  1.
       11    1    1    2    0    0  0.11078666093E-02 -0.17835826520E-01  0.82787096576E+00  0.82806397172E+00  0.51109989000E-03 0. -1.
     -623    1    1    2    0    0 -0.10731342412E-02  0.23351769196E-01  0.26123257442E-03  0.17124000160E+03  0.17124000000E+03 0.  1.
       22    1    1    2    0    0 -0.34732126241E-04 -0.55159479376E-02  0.22786791594E+00  0.22793467047E+00  0.00000000000E+00 0.  1.
</event>
<event>
 5   1  0.2192208E+09  0.9118800E+02  0.7818608E-02  0.1180000E+00
       11   -1    0    0    0    0  0.00000000000E+00  0.00000000000E+00  0.10559998763E+01  0.10560000000E+01  0.51109989000E-03 0. -1.
     -623   -1    0    0    0    0  0.00000000000E+00  0.00000000000E+00  0.47855275298E-10  0.17124000000E+03  0.17124000000E+03 0.  1.
       11    1    1    2    0    0 -0.17409733130E-02 -0.59013303974E-02  0.46285034949E+00  0.46289152502E+00  0.51109989000E-03 0. -1.
     -623    1    1    2    0    0 -0.15358375163E-03 -0.60040542765E-04  0.74037840608E-04  0.17124000000E+03  0.17124000000E+03 0.  1.
       22    1    1    2    0    0  0.18945570650E-02  0.59613709403E-02  0.59307549109E+00  0.59310847694E+00  0.00000000000E+00 0. -1.
</event>
<event>
 5   1  0.2192208E+09  0.9118800E+02  0.7818608E-02  0.1180000E+00
       11   -1    0    0    0    0  0.00000000000E+00  0.00000000000E+00  0.10559998763E+01  0.10560000000E+01  0.51109989000E-03 0. -1.
     -623   -1    0    0    0    0  0.00000000000E+00  0.00000000000E+00  0.47855275298E-10  0.17124000000E+03  0.17124000000E+03 0.  1.
       11    1    1    2    0    0 -0.27513824692E-02 -0.77394638034E-02  0.31468504345E+00  0.31479264159E+00  0.51109989000E-03 0. -1.
     -623    1    1    2    0    0  0.21841723494E-03  0.10592978248E-03  0.15111209892E-03  0.17124000000E+03  0.17124000000E+03 0.  1.
       22    1    1    2    0    0  0.25329652345E-02  0.76335340211E-02  0.74116371939E+00  0.74120735675E+00  0.00000000000E+00 0. -1.
</event>
<event>
 5   1  0.2192208E+09  0.9118800E+02  0.7818608E-02  0.1180000E+00
       11   -1    0    0    0    0  0.00000000000E+00  0.00000000000E+00  0.10559998763E+01  0.10560000000E+01  0.51109989000E-03 0. -1.
     -623   -1    0    0    0    0  0.00000000000E+00  0.00000000000E+00  0.47855275298E-10  0.17124000000E+03  0.17124000000E+03 0. -1.
       11    1    1    2    0    0 -0.29838087777E-03 -0.29341022501E-03  0.97226273274E+00  0.97226295714E+00  0.51109989000E-03 0. -1.
     -623    1    1    2    0    0  0.20732715738E-03 -0.11297910901E-02  0.12249419121E-04  0.17124000000E+03  0.17124000000E+03 0. -1.
       22    1    1    2    0    0  0.91053721228E-04  0.14232013106E-02  0.83724889940E-01  0.83737034747E-01  0.00000000000E+00 0.  1.
</event>
<event>
 5   1  0.2192208E+09  0.9118800E+02  0.7818608E-02  0.1180000E+00
       11   -1    0    0    0    0  0.00000000000E+00  0.00000000000E+00  0.10559998763E+01  0.10560000000E+01  0.51109989000E-03 0. -1.
     -623   -1    0    0    0    0  0.00000000000E+00  0.00000000000E+00  0.47855275298E-10  0.17124000000E+03  0.17124000000E+03 0. -1.
       11    1    1    2    0    0 -0.21910367066E-02  0.46159337343E-02  0.77565800943E+00  0.77567500688E+00  0.51109989000E-03 0. -1.
     -623    1    1    2    0    0 -0.97698792265E-03 -0.46609462595E-03  0.65499223313E-04  0.17124000000E+03  0.17124000000E+03 0. -1.
       22    1    1    2    0    0  0.31680246303E-02 -0.41498391078E-02  0.28027636881E+00  0.28032499079E+00  0.00000000000E+00 0. -1.
</event>
<event>
 5   1  0.2192208E+09  0.9118800E+02  0.7818608E-02  0.1180000E+00
       11   -1    0    0    0    0  0.00000000000E+00  0.00000000000E+00  0.10559998763E+01  0.10560000000E+01  0.51109989000E-03 0.  1.
     -623   -1    0    0    0    0  0.00000000000E+00  0.00000000000E+00  0.47855275298E-10  0.17124000000E+03  0.17124000000E+03 0.  1.
       11    1    1    2    0    0 -0.61282949993E-02 -0.92819808891E-02  0.94826302935E+00  0.94832839524E+00  0.51109989000E-03 0.  1.
     -623    1    1    2    0    0 -0.11525642813E-02  0.12869076192E-03  0.70236806461E-03  0.17124000001E+03  0.17124000000E+03 0.  1.
       22    1    1    2    0    0  0.72808592811E-02  0.91532901271E-02  0.10703447944E+00  0.10767159989E+00  0.00000000000E+00 0. -1.
</event>
<event>
 5   1  0.2192208E+09  0.9118800E+02  0.7818608E-02  0.1180000E+00
       11   -1    0    0    0    0  0.00000000000E+00  0.00000000000E+00  0.10559998763E+01  0.10560000000E+01  0.51109989000E-03 0. -1.
     -623   -1    0    0    0    0  0.00000000000E+00  0.00000000000E+00  0.47855275298E-10  0.17124000000E+03  0.17124000000E+03 0.  1.
       11    1    1    2    0    0  0.46403595281E-03 -0.25662252405E-02  0.85374720074E+00  0.85375133665E+00  0.51109989000E-03 0. -1.
     -623    1    1    2    0    0  0.14503422015E-04  0.64164951661E-06  0.20851702886E-04  0.17124000000E+03  0.17124000000E+03 0.  1.
       22    1    1    2    0    0 -0.47853937485E-03  0.25655835910E-02  0.20223182619E+00  0.20224866561E+00  0.00000000000E+00 0. -1.
</event>
<event>
 5   1  0.2192208E+09  0.9118800E+02  0.7818608E-02  0.1180000E+00
       11   -1    0    0    0    0  0.00000000000E+00  0.00000000000E+00  0.10559998763E+01  0.10560000000E+01  0.51109989000E-03 0.  1.
     -623   -1    0    0    0    0  0.00000000000E+00  0.00000000000E+00  0.47855275298E-10  0.17124000000E+03  0.17124000000E+03 0. -1.
       11    1    1    2    0    0  0.46676677654E-02 -0.36749401145E-02  0.10014159563E+01  0.10014337078E+01  0.51109989000E-03 0.  1.
     -623    1    1    2    0    0 -0.47446965215E-02  0.43769916040E-02  0.22320392313E-04  0.17124000012E+03  0.17124000000E+03 0. -1.
       22    1    1    2    0    0  0.77028207167E-04 -0.70205098307E-03  0.54561477478E-01  0.54566048359E-01  0.00000000000E+00 0. -1.
</event>
<event>
 5   1  0.2192208E+09  0.9118800E+02  0.7818608E-02  0.1180000E+00
       11   -1    0    0    0    0  0.00000000000E+00  0.00000000000E+00  0.10559998763E+01  0.10560000000E+01  0.51109989000E-03 0.  1.
     -623   -1    0    0    0    0  0.00000000000E+00  0.00000000000E+00  0.47855275298E-10  0.17124000000E+03  0.17124000000E+03 0.  1.
       11    1    1    2    0    0 -0.33375599687E-02 -0.55872633972E-02  0.86531297178E+00  0.86533759723E+00  0.51109989000E-03 0.  1.
     -623    1    1    2    0    0  0.38313721127E-02  0.74951380269E-02  0.34894098030E-04  0.17124000021E+03  0.17124000000E+03 0.  1.
       22    1    1    2    0    0 -0.49381367134E-03 -0.19078776176E-02  0.19065243145E+00  0.19066261686E+00  0.00000000000E+00 0.  1.
</event>
<event>
 5   1  0.2192208E+09  0.9118800E+02  0.7818608E-02  0.1180000E+00
       11   -1    0    0    0    0  0.00000000000E+00  0.00000000000E+00  0.10559998763E+01  0.10560000000E+01  0.51109989000E-03 0. -1.
     -623   -1    0    0    0    0  0.00000000000E+00  0.00000000000E+00  0.47855275298E-10  0.17124000000E+03  0.17124000000E+03 0.  1.
       11    1    1    2    0    0 -0.51883295712E-03 -0.29088705994E-02  0.75065406122E+00  0.75066005060E+00  0.51109989000E-03 0. -1.
     -623    1    1    2    0    0 -0.38321224918E-03 -0.15846186407E-02  0.40271748380E-04  0.17124000001E+03  0.17124000000E+03 0.  1.
       22    1    1    2    0    0  0.90204520864E-03  0.44934892498E-02  0.30530554983E+00  0.30533994807E+00  0.00000000000E+00 0.  1.
</event>
<event>
 5   1  0.2192208E+09  0.9118800E+02  0.7818608E-02  0.1180000E+00
       11   -1    0    0    0    0  0.00000000000E+00  0.00000000000E+00  0.10559998763E+01  0.10560000000E+01  0.51109989000E-03 0.  1.
     -623   -1    0    0    0    0  0.00000000000E+00  0.00000000000E+00  0.47855275298E-10  0.17124000000E+03  0.17124000000E+03 0. -1.
       11    1    1    2    0    0 -0.60920253626E-02  0.18475050267E-01  0.11405551192E+00  0.11570376518E+00  0.51109989000E-03 0.  1.
     -623    1    1    2    0    0  0.21236790097E-01 -0.56406710578E-01  0.25462319431E-02  0.17124001063E+03  0.17124000000E+03 0. -1.
       22    1    1    2    0    0 -0.15144764741E-01  0.37931660329E-01  0.93939813283E+00  0.94028560912E+00  0.00000000000E+00 0.  1.
</event>
<event>
 5   1  0.2192208E+09  0.9118800E+02  0.7818608E-02  0.1180000E+00
       11   -1    0    0    0    0  0.00000000000E+00  0.00000000000E+00  0.10559998763E+01  0.10560000000E+01  0.51109989000E-03 0.  1.
     -623   -1    0    0    0    0  0.00000000000E+00  0.00000000000E+00  0.47855275298E-10  0.17124000000E+03  0.17124000000E+03 0. -1.
       11    1    1    2    0    0  0.11585055224E-01 -0.54998618874E-02  0.72356760188E+00  0.72368142003E+00  0.51109989000E-03 0.  1.
     -623    1    1    2    0    0 -0.63591928591E-03  0.71750893452E-03  0.32855255079E-03  0.17124000000E+03  0.17124000000E+03 0. -1.
       22    1    1    2    0    0 -0.10949135938E-01  0.47823529529E-02  0.33210372184E+00  0.33231857688E+00  0.00000000000E+00 0.  1.
</event>
<event>
 5   1  0.2192208E+09  0.9118800E+02  0.7818608E-02  0.1180000E+00
       11   -1    0    0    0    0  0.00000000000E+00  0.00000000000E+00  0.10559998763E+01  0.10560000000E+01  0.51109989000E-03 0.  1.
     -623   -1    0    0    0    0  0.00000000000E+00  0.00000000000E+00  0.47855275298E-10  0.17124000000E+03  0.17124000000E+03 0. -1.
       11    1    1    2    0    0  0.21658069173E-02  0.18556244329E-02  0.95582570835E+00  0.95583009998E+00  0.51109989000E-03 0.  1.
     -623    1    1    2    0    0  0.23496527867E-04 -0.10423328809E-03  0.43511163699E-04  0.17124000000E+03  0.17124000000E+03 0. -1.
       22    1    1    2    0    0 -0.21893034450E-02 -0.17513911456E-02  0.10013064946E+00  0.10016989259E+00  0.00000000000E+00 0. -1.
</event>
<event>
 5   1  0.2192208E+09  0.9118800E+02  0.7818608E-02  0.1180000E+00
       11   -1    0    0    0    0  0.00000000000E+00  0.00000000000E+00  0.10559998763E+01  0.10560000000E+01  0.51109989000E-03 0.  1.
     -623   -1    0    0    0    0  0.00000000000E+00  0.00000000000E+00  0.47855275298E-10  0.17124000000E+03  0.17124000000E+03 0. -1.
       11    1    1    2    0    0 -0.76744045549E-03 -0.17975094314E-02  0.91915324263E+00  0.91915546273E+00  0.51109989000E-03 0.  1.
     -623    1    1    2    0    0 -0.93907822481E-04 -0.18559751952E-03  0.19177745102E-04  0.17124000000E+03  0.17124000000E+03 0. -1.
       22    1    1    2    0    0  0.86134827858E-03  0.19831069521E-02  0.13682746285E+00  0.13684454401E+00  0.00000000000E+00 0.  1.
</event>
<event>
 5   1  0.2192208E+09  0.9118800E+02  0.7818608E-02  0.1180000E+00
       11   -1    0    0    0    0  0.00000000000E+00  0.00000000000E+00  0.10559998763E+01  0.10560000000E+01  0.51109989000E-03 0. -1.
     -623   -1    0    0    0    0  0.00000000000E+00  0.00000000000E+00  0.47855275298E-10  0.17124000000E+03  0.17124000000E+03 0. -1.
       11    1    1    2    0    0 -0.40541958905E-03  0.19288044344E-02  0.91954827018E+00  0.91955052448E+00  0.51109989000E-03 0. -1.
     -623    1    1    2    0    0 -0.26564847097E-03 -0.20478644085E-03  0.14673096102E-04  0.17124000000E+03  0.17124000000E+03 0. -1.
       22    1    1    2    0    0  0.67106805885E-03 -0.17240179945E-02  0.13643692845E+00  0.13644947056E+00  0.00000000000E+00 0.  1.
</event>
<event>
 5   1  0.2192208E+09  0.9118800E+02  0.7818608E-02  0.1180000E+00
       11   -1    0    0    0    0  0.00000000000E+00  0.00000000000E+00  0.10559998763E+01  0.10560000000E+01  0.51109989000E-03 0. -1.
     -623   -1    0    0    0    0  0.00000000000E+00  0.00000000000E+00  0.47855275298E-10  0.17124000000E+03  0.17124000000E+03 0. -1.
       11    1    1    2    0    0  0.84678569305E-02  0.13297348395E-02  0.55410037818E+00  0.55416690908E+00  0.51109989000E-03 0. -1.
     -623    1    1    2    0    0 -0.55728490956E-02  0.43294627628E-02  0.10681432204E-03  0.17124000015E+03  0.17124000000E+03 0. -1.
       22    1    1    2    0    0 -0.28950078338E-02 -0.56591976033E-02  0.50179268408E+00  0.50183294570E+00  0.00000000000E+00 0. -1.
</event>
<event>
 5   1  0.2192208E+09  0.9118800E+02  0.7818608E-02  0.1180000E+00
       11   -1    0    0    0    0  0.00000000000E+00  0.00000000000E+00  0.10559998763E+01  0.10560000000E+01  0.51109989000E-03 0. -1.
     -623   -1    0    0    0    0  0.00000000000E+00  0.00000000000E+00  0.47855275298E-10  0.17124000000E+03  0.17124000000E+03 0.  1.
       11    1    1    2    0    0  0.69572509435E-02 -0.15937005961E-01  0.58222276911E+00  0.58248262257E+00  0.51109989000E-03 0. -1.
     -623    1    1    2    0    0 -0.41499807350E-02  0.57350582678E-02  0.37811352871E-03  0.17124000015E+03  0.17124000000E+03 0.  1.
       22    1    1    2    0    0 -0.28072702024E-02  0.10201947685E-01  0.47339899528E+00  0.47351723224E+00  0.00000000000E+00 0.  1.
</event>
<event>
 5   1  0.2192208E+09  0.9118800E+02  0.7818608E-02  0.1180000E+00
       11   -1    0    0    0    0  0.00000000000E+00  0.00000000000E+00  0.10559998763E+01  0.10560000000E+01  0.51109989000E-03 0. -1.
     -623   -1    0    0    0    0  0.00000000000E+00  0.00000000000E+00  0.47855275298E-10  0.17124000000E+03  0.17124000000E+03 0. -1.
       11    1    1    2    0    0 -0.14116228869E-01  0.75841630135E-02  0.90215085848E+00  0.90229331159E+00  0.51109989000E-03 0. -1.
     -623    1    1    2    0    0  0.14653739743E-01 -0.94007975300E-02  0.15489017059E-03  0.17124000089E+03  0.17124000000E+03 0. -1.
       22    1    1    2    0    0 -0.53751112107E-03  0.18166346752E-02  0.15369414554E+00  0.15370582114E+00  0.00000000000E+00 0. -1.
</event>
<event>
 5   1  0.2192208E+09  0.9118800E+02  0.7818608E-02  0.1180000E+00
       11   -1    0    0    0    0  0.00000000000E+00  0.00000000000E+00  0.10559998763E+01  0.10560000000E+01  0.51109989000E-03 0.  1.
     -623   -1    0    0    0    0  0.00000000000E+00  0.00000000000E+00  0.47855275298E-10  0.17124000000E+03  0.17124000000E+03 0.  1.
       11    1    1    2    0    0  0.58722697091E-02 -0.51518228113E-02  0.63243264629E+00  0.63248109707E+00  0.51109989000E-03 0.  1.
     -623    1    1    2    0    0  0.69128867594E-03 -0.20937420110E-03  0.13313003429E-03  0.17124000000E+03  0.17124000000E+03 0.  1.
       22    1    1    2    0    0 -0.65635583846E-02  0.53611970123E-02  0.42343409947E+00  0.42351890079E+00  0.00000000000E+00 0.  1.
</event>
<event>
 5   1  0.2192208E+09  0.9118800E+02  0.7818608E-02  0.1180000E+00
       11   -1    0    0    0    0  0.00000000000E+00  0.00000000000E+00  0.10559998763E+01  0.10560000000E+01  0.51109989000E-03 0.  1.
     -623   -1    0    0    0    0  0.00000000000E+00  0.00000000000E+00  0.47855275298E-10  0.17124000000E+03  0.17124000000E+03 0. -1.
       11    1    1    2    0    0  0.40879523449E-01 -0.45874438035E-02  0.95161768464E+00  0.95250651390E+00  0.51109989000E-03 0.  1.
     -623    1    1    2    0    0 -0.44358840892E-01  0.88478298645E-02  0.10409707240E-02  0.17124000598E+03  0.17124000000E+03 0. -1.
       22    1    1    2    0    0  0.34793175089E-02 -0.42603860742E-02  0.10334122257E+00  0.10348751047E+00  0.00000000000E+00 0.  1.
</event>
<event>
 5   1  0.2192208E+09  0.9118800E+02  0.7818608E-02  0.1180000E+00
       11   -1    0    0    0    0  0.00000000000E+00  0.00000000000E+00  0.10559998763E+01  0.10560000000E+01  0.51109989000E-03 0.  1.
     -623   -1    0    0    0    0  0.00000000000E+00  0.00000000000E+00  0.47855275298E-10  0.17124000000E+03  0.17124000000E+03 0.  1.
       11    1    1    2    0    0 -0.40670593161E-03 -0.27890144034E-03  0.99624292508E+00  0.99624317824E+00  0.51109989000E-03 0.  1.
     -623    1    1    2    0    0  0.42209779722E-03 -0.46579240262E-03  0.47730583801E-05  0.17124000000E+03  0.17124000000E+03 0.  1.
       22    1    1    2    0    0 -0.15391845209E-04  0.74469382045E-03  0.59752127180E-01  0.59756769560E-01  0.00000000000E+00 0. -1.
</event>
<event>
 5   1  0.2192208E+09  0.9118800E+02  0.7818608E-02  0.1180000E+00
       11   -1    0    0    0    0  0.00000000000E+00  0.00000000000E+00  0.10559998763E+01  0.10560000000E+01  0.51109989000E-03 0.  1.
     -623   -1    0    0    0    0  0.00000000000E+00  0.00000000000E+00  0.47855275298E-10  0.17124000000E+03  0.17124000000E+03 0.  1.
       11    1    1    2    0    0  0.42837016135E-02  0.85424872757E-02  0.75898957899E+00  0.75904991037E+00  0.51109989000E-03 0.  1.
     -623    1    1    2    0    0 -0.58078028534E-02 -0.12285272026E-01  0.88246694631E-04  0.17124000054E+03  0.17124000000E+03 0.  1.
       22    1    1    2    0    0  0.15241050380E-02  0.37427927842E-02  0.29692274121E+00  0.29695024102E+00  0.00000000000E+00 0. -1.
</event>
<event>
 5   1  0.2192208E+09  0.9118800E+02  0.7818608E-02  0.1180000E+00
       11   -1    0    0    0    0  0.00000000000E+00  0.00000000000E+00  0.10559998763E+01  0.10560000000E+01  0.51109989000E-03 0. -1.
     -623   -1    0    0    0    0  0.00000000000E+00  0.00000000000E+00  0.47855275298E-10  0.17124000000E+03  0.17124000000E+03 0. -1.
       11    1    1    2    0    0  0.80361207804E-03 -0.17651653874E-01  0.74822272520E+00  0.74843151618E+00  0.51109989000E-03 0. -1.
     -623    1    1    2    0    0  0.67392360564E-02  0.44966338439E-02  0.58290540171E-03  0.17124000019E+03  0.17124000000E+03 0. -1.
       22    1    1    2    0    0 -0.75428481328E-02  0.13155020031E-01  0.30719424550E+00  0.30756829092E+00  0.00000000000E+00 0. -1.
</event>
<event>
 5   1  0.2192208E+09  0.9118800E+02  0.7818608E-02  0.1180000E+00
       11   -1    0    0    0    0  0.00000000000E+00  0.00000000000E+00  0.10559998763E+01  0.10560000000E+01  0.51109989000E-03 0. -1.
     -623   -1    0    0    0    0  0.00000000000E+00  0.00000000000E+00  0.47855275298E-10  0.17124000000E+03  0.17124000000E+03 0.  1.
       11    1    1    2    0    0  0.81866011984E-03 -0.66664923723E-03  0.99362282104E+00  0.99362351338E+00  0.51109989000E-03 0. -1.
     -623    1    1    2    0    0  0.65263409148E-04 -0.61945176429E-04  0.11087762700E-04  0.17124000000E+03  0.17124000000E+03 0.  1.
       22    1    1    2    0    0 -0.88392352961E-03  0.72859441424E-03  0.62365977595E-01  0.62376496631E-01  0.00000000000E+00 0. -1.
</event>
<event>
 5   1  0.2192208E+09  0.9118800E+02  0.7818608E-02  0.1180000E+00
       11   -1    0    0    0    0  0.00000000000E+00  0.00000000000E+00  0.10559998763E+01  0.10560000000E+01  0.51109989000E-03 0.  1.
     -623   -1    0    0    0    0  0.00000000000E+00  0.00000000000E+00  0.47855275298E-10  0.17124000000E+03  0.17124000000E+03 0.  1.
       11    1    1    2    0    0  0.18730354450E-01  0.98352720463E-02  0.58799226026E+00  0.58837294134E+00  0.51109989000E-03 0.  1.
     -623    1    1    2    0    0 -0.36890409498E-01 -0.25325643196E-01  0.99599290136E-03  0.17124000585E+03  0.17124000000E+03 0.  1.
       22    1    1    2    0    0  0.18160055097E-01  0.15490371184E-01  0.46701162463E+00  0.46762121074E+00  0.00000000000E+00 0.  1.
</event>
<event>
 5   1  0.2192208E+09  0.9118800E+02  0.7818608E-02  0.1180000E+00
       11   -1    0    0    0    0  0.00000000000E+00  0.00000000000E+00  0.10559998763E+01  0.10560000000E+01  0.51109989000E-03 0. -1.
     -623   -1    0    0    0    0  0.00000000000E+00  0.00000000000E+00  0.47855275298E-10  0.17124000000E+03  0.17124000000E+03 0. -1.
       11    1    1    2    0    0  0.91659040980E-02 -0.10710304435E-01  0.98184286368E+00  0.98194419118E+00  0.51109989000E-03 0. -1.
     -623    1    1    2    0    0 -0.99889296083E-02  0.11972453414E-01  0.11724443439E-03  0.17124000071E+03  0.17124000000E+03 0. -1.
       22    1    1    2    0    0  0.82302690002E-03 -0.12621506451E-02  0.74039915158E-01  0.74055245825E-01  0.00000000000E+00 0. -1.
</event>
<event>
 5   1  0.7216334E+09  0.9118800E+02  0.7818608E-02  0.1180000E+00
       11   -1    0    0    0    0  0.00000000000E+00  0.00000000000E+00  0.10559998763E+01  0.10560000000E+01  0.51109989000E-03 0. -1.
     -623   -1    0    0    0    0  0.00000000000E+00  0.00000000000E+00  0.47855275298E-10  0.17124000000E+03  0.17124000000E+03 0.  1.
       11    1    1    2    0    0 -0.26518308733E-03 -0.66313578047E-03  0.10020002377E+01  0.10020006226E+01  0.51109989000E-03 0. -1.
     -623    1    1    2    0    0  0.54060511454E-05  0.85840848223E-05  0.48533572670E-05  0.17124000000E+03  0.17124000000E+03 0.  1.
       22    1    1    2    0    0  0.25977703605E-03  0.65455169545E-03  0.53994810743E-01  0.53999402860E-01  0.00000000000E+00 0. -1.
</event>
<event>
 5   1  0.2192208E+09  0.9118800E+02  0.7818608E-02  0.1180000E+00
       11   -1    0    0    0    0  0.00000000000E+00  0.00000000000E+00  0.10559998763E+01  0.10560000000E+01  0.51109989000E-03 0. -1.
     -623   -1    0    0    0    0  0.00000000000E+00  0.00000000000E+00  0.47855275298E-10  0.17124000000E+03  0.17124000000E+03 0. -1.
       11    1    1    2    0    0 -0.79948464166E-02  0.13891021257E-01  0.65415089331E+00  0.65434740810E+00  0.51109989000E-03 0. -1.
     -623    1    1    2    0    0  0.84060267138E-03 -0.10894428161E-02  0.46421002008E-03  0.17124000001E+03  0.17124000000E+03 0. -1.
       22    1    1    2    0    0  0.71542437447E-02 -0.12801578440E-01  0.40138477368E+00  0.40165258640E+00  0.00000000000E+00 0. -1.
</event>
<event>
 5   1  0.2192208E+09  0.9118800E+02  0.7818608E-02  0.1180000E+00
       11   -1    0    0    0    0  0.00000000000E+00  0.00000000000E+00  0.10559998763E+01  0.10560000000E+01  0.51109989000E-03 0. -1.
     -623   -1    0    0    0    0  0.00000000000E+00  0.00000000000E+00  0.47855275298E-10  0.17124000000E+03  0.17124000000E+03 0.  1.
       11    1    1    2    0    0  0.17007430875E-01 -0.23624124442E-01  0.66771778633E+00  0.66835219410E+00  0.51109989000E-03 0. -1.
     -623    1    1    2    0    0 -0.20102489913E-01  0.35883722914E-01  0.84549787800E-03  0.17124000494E+03  0.17124000000E+03 0.  1.
       22    1    1    2    0    0  0.30950589540E-02 -0.12259598323E-01  0.38743658776E+00  0.38764285970E+00  0.00000000000E+00 0.  1.
</event>
<event>
 5   1  0.2192208E+09  0.9118800E+02  0.7818608E-02  0.1180000E+00
       11   -1    0    0    0    0  0.00000000000E+00  0.00000000000E+00  0.10559998763E+01  0.10560000000E+01  0.51109989000E-03 0. -1.
     -623   -1    0    0    0    0  0.00000000000E+00  0.00000000000E+00  0.47855275298E-10  0.17124000000E+03  0.17124000000E+03 0. -1.
       11    1    1    2    0    0  0.22932582532E-02  0.57362994869E-02  0.84508869041E+00  0.84511142463E+00  0.51109989000E-03 0. -1.
     -623    1    1    2    0    0 -0.94933606529E-04 -0.80460004898E-02  0.46907024001E-04  0.17124000019E+03  0.17124000000E+03 0. -1.
       22    1    1    2    0    0 -0.21983246476E-02  0.23097009283E-02  0.21086426914E+00  0.21088837652E+00  0.00000000000E+00 0.  1.
</event>
<event>
 5   1  0.2192208E+09  0.9118800E+02  0.7818608E-02  0.1180000E+00
       11   -1    0    0    0    0  0.00000000000E+00  0.00000000000E+00  0.10559998763E+01  0.10560000000E+01  0.51109989000E-03 0. -1.
     -623   -1    0    0    0    0  0.00000000000E+00  0.00000000000E+00  0.47855275298E-10  0.17124000000E+03  0.17124000000E+03 0.  1.
       11    1    1    2    0    0  0.44134148030E-02  0.21054687895E-02  0.61973102372E+00  0.61975052578E+00  0.51109989000E-03 0. -1.
     -623    1    1    2    0    0 -0.47865283711E-02 -0.88016543494E-02  0.71225531870E-04  0.17124000029E+03  0.17124000000E+03 0.  1.
       22    1    1    2    0    0  0.37311367045E-03  0.66961857482E-02  0.43619764970E+00  0.43624920369E+00  0.00000000000E+00 0. -1.
</event>
<event>
 5   1  0.2192208E+09  0.9118800E+02  0.7818608E-02  0.1180000E+00
       11   -1    0    0    0    0  0.00000000000E+00  0.00000000000E+00  0.10559998763E+01  0.10560000000E+01  0.51109989000E-03 0.  1.
     -623   -1    0    0    0    0  0.00000000000E+00  0.00000000000E+00  0.47855275298E-10  0.17124000000E+03  0.17124000000E+03 0. -1.
       11    1    1    2    0    0  0.24496219333E-02  0.75572314933E-02  0.38192817787E+00  0.38201113423E+00  0.51109989000E-03 0.  1.
     -623    1    1    2    0    0  0.41582511041E-04  0.22013679972E-03  0.13231147847E-03  0.17124000000E+03  0.17124000000E+03 0. -1.
       22    1    1    2    0    0 -0.24912044444E-02 -0.77773682935E-02  0.67393938973E+00  0.67398886830E+00  0.00000000000E+00 0. -1.
</event>
<event>
 5   1  0.2192208E+09  0.9118800E+02  0.7818608E-02  0.1180000E+00
       11   -1    0    0    0    0  0.00000000000E+00  0.00000000000E+00  0.10559998763E+01  0.10560000000E+01  0.51109989000E-03 0. -1.
     -623   -1    0    0    0    0  0.00000000000E+00  0.00000000000E+00  0.47855275298E-10  0.17124000000E+03  0.17124000000E+03 0. -1.
       11    1    1    2    0    0  0.28189638659E-01 -0.19042697966E-01  0.94352183715E+00  0.94413505310E+00  0.51109989000E-03 0. -1.
     -623    1    1    2    0    0 -0.32692122946E-01  0.21162442298E-01  0.72827597481E-03  0.17124000443E+03  0.17124000000E+03 0. -1.
       22    1    1    2    0    0  0.45024856785E-02 -0.21197452323E-02  0.11174980815E+00  0.11186056195E+00  0.00000000000E+00 0.  1.
</event>
<event>
 5   1  0.2192208E+09  0.9118800E+02  0.7818608E-02  0.1180000E+00
       11   -1    0    0    0    0  0.00000000000E+00  0.00000000000E+00  0.10559998763E+01  0.10560000000E+01  0.51109989000E-03 0. -1.
     -623   -1    0    0    0    0  0.00000000000E+00  0.00000000000E+00  0.47855275298E-10  0.17124000000E+03  0.17124000000E+03 0.  1.
       11    1    1    2    0    0 -0.27195506229E-02  0.72387085611E-02  0.59645895776E+00  0.59650929948E+00  0.51109989000E-03 0. -1.
     -623    1    1    2    0    0  0.78683619077E-03 -0.13007916526E-01  0.90998591562E-04  0.17124000050E+03  0.17124000000E+03 0.  1.
       22    1    1    2    0    0  0.19327144110E-02  0.57692083134E-02  0.45944994831E+00  0.45949023293E+00  0.00000000000E+00 0. -1.
</event>
<event>
 5   1  0.2192208E+09  0.9118800E+02  0.7818608E-02  0.1180000E+00
       11   -1    0    0    0    0  0.00000000000E+00  0.00000000000E+00  0.10559998763E+01  0.10560000000E+01  0.51109989000E-03 0.  1.
     -623   -1    0    0    0    0  0.00000000000E+00  0.00000000000E+00  0.47855275298E-10  0.17124000000E+03  0.17124000000E+03 0.  1.
       11    1    1    2    0    0  0.80573153502E-03  0.35046397666E-02  0.75897115917E+00  0.75897985045E+00  0.51109989000E-03 0.  1.
     -623    1    1    2    0    0  0.16448229948E-04  0.32169028833E-04  0.30763928925E-04  0.17124000000E+03  0.17124000000E+03 0.  1.
       22    1    1    2    0    0 -0.82217976499E-03 -0.35368087954E-02  0.29699795434E+00  0.29702015063E+00  0.00000000000E+00 0.  1.
</event>
<event>
 5   1  0.2192208E+09  0.9118800E+02  0.7818608E-02  0.1180000E+00
       11   -1    0    0    0    0  0.00000000000E+00  0.00000000000E+00  0.10559998763E+01  0.10560000000E+01  0.51109989000E-03 0. -1.
     -623   -1    0    0    0    0  0.00000000000E+00  0.00000000000E+00  0.47855275298E-10  0.17124000000E+03  0.17124000000E+03 0. -1.
       11    1    1    2    0    0  0.18713314370E-01 -0.25746295929E-01  0.97916849274E+00  0.97968579570E+00  0.51109989000E-03 0. -1.
     -623    1    1    2    0    0 -0.18834980697E-01  0.28581415883E-01  0.57338220251E-03  0.17124000342E+03  0.17124000000E+03 0. -1.
       22    1    1    2    0    0  0.12166612566E-03 -0.28351196484E-02  0.76257990142E-01  0.76310770973E-01  0.00000000000E+00 0. -1.
</event>
<event>
 5   1  0.2192208E+09  0.9118800E+02  0.7818608E-02  0.1180000E+00
       11   -1    0    0    0    0  0.00000000000E+00  0.00000000000E+00  0.10559998763E+01  0.10560000000E+01  0.51109989000E-03 0. -1.
     -623   -1    0    0    0    0  0.00000000000E+00  0.00000000000E+00  0.47855275298E-10  0.17124000000E+03  0.17124000000E+03 0. -1.
       11    1    1    2    0    0  0.71211543117E-02 -0.47618372783E-01  0.95499635549E+00  0.95620945430E+00  0.51109989000E-03 0. -1.
     -623    1    1    2    0    0 -0.80395068428E-02  0.52712041437E-01  0.13556092035E-02  0.17124000831E+03  0.17124000000E+03 0. -1.
       22    1    1    2    0    0  0.91835284362E-03 -0.50936707036E-02  0.99647952673E-01  0.99782279615E-01  0.00000000000E+00 0. -1.
</event>
<event>
 5   1  0.2192208E+09  0.9118800E+02  0.7818608E-02  0.1180000E+00
       11   -1    0    0    0    0  0.00000000000E+00  0.00000000000E+00  0.10559998763E+01  0.10560000000E+01  0.51109989000E-03 0. -1.
     -623   -1    0    0    0    0  0.00000000000E+00  0.00000000000E+00  0.47855275298E-10  0.17124000000E+03  0.17124000000E+03 0. -1.
       11    1    1    2    0    0  0.31191001281E-02  0.44030897469E-02  0.78698417550E+00  0.78700283970E+00  0.51109989000E-03 0. -1.
     -623    1    1    2    0    0  0.22569188750E-03 -0.21817606850E-03  0.71894556186E-04  0.17124000000E+03  0.17124000000E+03 0. -1.
       22    1    1    2    0    0 -0.33447920160E-02 -0.41849136780E-02  0.26894380835E+00  0.26899716205E+00  0.00000000000E+00 0.  1.
</event>
<event>
 5   1  0.2192208E+09  0.9118800E+02  0.7818608E-02  0.1180000E+00
       11   -1    0    0    0    0  0.00000000000E+00  0.00000000000E+00  0.10559998763E+01  0.10560000000E+01  0.51109989000E-03 0. -1.
     -623   -1    0    0    0    0  0.00000000000E+00  0.00000000000E+00  0.47855275298E-10  0.17124000000E+03  0.17124000000E+03 0.  1.
       11    1    1    2    0    0  0.70981375935E-02 -0.10506804096E-01  0.79816124320E+00  0.79826211726E+00  0.51109989000E-03 0. -1.
     -623    1    1    2    0    0 -0.91716882467E-02  0.13832769924E-01  0.13135755636E-03  0.17124000080E+03  0.17124000000E+03 0.  1.
       22    1    1    2    0    0  0.20735577718E-02 -0.33259765644E-02  0.25770809513E+00  0.25773789798E+00  0.00000000000E+00 0.  1.
</event>
<event>
 5   1  0.2192208E+09  0.9118800E+02  0.7818608E-02  0.1180000E+00
       11   -1    0    0    0    0  0.00000000000E+00  0.00000000000E+00  0.10559998763E+01  0.10560000000E+01  0.51109989000E-03 0. -1.
     -623   -1    0    0    0    0  0.00000000000E+00  0.00000000000E+00  0.47855275298E-10  0.17124000000E+03  0.17124000000E+03 0.  1.
       11    1    1    2    0    0  0.29125406316E-03  0.79685282305E-03  0.99341359996E+00  0.99341409373E+00  0.51109989000E-03 0. -1.
     -623    1    1    2    0    0 -0.17004011117E-04 -0.23395612934E-04  0.57505634765E-05  0.17124000000E+03  0.17124000000E+03 0.  1.
       22    1    1    2    0    0 -0.27425005261E-03 -0.77345721089E-03  0.62580490987E-01  0.62585871419E-01  0.00000000000E+00 0. -1.
</event>
<event>
 5   1  0.2192208E+09  0.9118800E+02  0.7818608E-02  0.1180000E+00
       11   -1    0    0    0    0  0.00000000000E+00  0.00000000000E+00  0.10559998763E+01  0.10560000000E+01  0.51109989000E-03 0. -1.
     -623   -1    0    0    0    0  0.00000000000E+00  0.00000000000E+00  0.47855275298E-10  0.17124000000E+03  0.17124000000E+03 0.  1.
       11    1    1    2    0    0  0.24145917368E-02  0.37664772062E-02  0.90984836595E+00  0.90985950940E+00  0.51109989000E-03 0. -1.
     -623    1    1    2    0    0 -0.64936571228E-03 -0.59623969129E-02  0.38286487462E-04  0.17124000011E+03  0.17124000000E+03 0.  1.
       22    1    1    2    0    0 -0.17652260180E-02  0.21959197663E-02  0.14611323449E+00  0.14614039612E+00  0.00000000000E+00 0. -1.
</event>
<event>
 5   1  0.2192208E+09  0.9118800E+02  0.7818608E-02  0.1180000E+00
       11   -1    0    0    0    0  0.00000000000E+00  0.00000000000E+00  0.10559998763E+01  0.10560000000E+01  0.51109989000E-03 0. -1.
     -623   -1    0    0    0    0  0.00000000000E+00  0.00000000000E+00  0.47855275298E-10  0.17124000000E+03  0.17124000000E+03 0. -1.
       11    1    1    2    0    0 -0.82929759387E-03  0.14255990883E-02  0.93857329180E+00  0.93857488000E+00  0.51109989000E-03 0. -1.
     -623    1    1    2    0    0 -0.37853435129E-03 -0.16323738232E-03  0.14463064570E-04  0.17124000000E+03  0.17124000000E+03 0. -1.
       22    1    1    2    0    0  0.12078319451E-02 -0.12623617060E-02  0.11741212120E+00  0.11742511920E+00  0.00000000000E+00 0. -1.
</event>
<event>
 5   1  0.2192208E+09  0.9118800E+02  0.7818608E-02  0.1180000E+00
       11   -1    0    0    0    0  0.00000000000E+00  0.00000000000E+00  0.10559998763E+01  0.10560000000E+01  0.51109989000E-03 0. -1.
     -623   -1    0    0    0    0  0.00000000000E+00  0.00000000000E+00  0.47855275298E-10  0.17124000000E+03  0.17124000000E+03 0. -1.
       11    1    1    2    0    0  0.65680759618E-03 -0.51821825555E-04  0.85965915398E+00  0.85965955839E+00  0.51109989000E-03 0. -1.
     -623    1    1    2    0    0 -0.42839522915E-02  0.33308394619E-02  0.61260621277E-04  0.17124000009E+03  0.17124000000E+03 0. -1.
       22    1    1    2    0    0  0.36271446719E-02 -0.32790176181E-02  0.19627945599E+00  0.19634034985E+00  0.00000000000E+00 0.  1.
</event>
<event>
 5   1  0.2192208E+09  0.9118800E+02  0.7818608E-02  0.1180000E+00
       11   -1    0    0    0    0  0.00000000000E+00  0.00000000000E+00  0.10559998763E+01  0.10560000000E+01  0.51109989000E-03 0. -1.
     -623   -1    0    0    0    0  0.00000000000E+00  0.00000000000E+00  0.47855275298E-10  0.17124000000E+03  0.17124000000E+03 0. -1.
       11    1    1    2    0    0 -0.10497229882E-01  0.31794469892E-01  0.91001672956E+00  0.91063263144E+00  0.51109989000E-03 0. -1.
     -623    1    1    2    0    0  0.12188724925E-01 -0.36804879351E-01  0.71639212647E-03  0.17124000439E+03  0.17124000000E+03 0. -1.
       22    1    1    2    0    0 -0.16914697124E-02  0.50103329703E-02  0.14526456156E+00  0.14536078340E+00  0.00000000000E+00 0.  1.
</event>
<event>
 5   1  0.2192208E+09  0.9118800E+02  0.7818608E-02  0.1180000E+00
       11   -1    0    0    0    0  0.00000000000E+00  0.00000000000E+00  0.10559998763E+01  0.10560000000E+01  0.51109989000E-03 0.  1.
     -623   -1    0    0    0    0  0.00000000000E+00  0.00000000000E+00  0.47855275298E-10  0.17124000000E+03  0.17124000000E+03 0.  1.
       11    1    1    2    0    0  0.47993182662E-02 -0.10957037717E-02  0.92594454019E+00  0.92595776726E+00  0.51109989000E-03 0.  1.
     -623    1    1    2    0    0 -0.51492901140E-02  0.34192426772E-02  0.34445670334E-04  0.17124000011E+03  0.17124000000E+03 0.  1.
       22    1    1    2    0    0  0.34997191964E-03 -0.23235389533E-02  0.13002090524E+00  0.13004213591E+00  0.00000000000E+00 0. -1.
</event>
<event>
 5   1  0.2192208E+09  0.9118800E+02  0.7818608E-02  0.1180000E+00
       11   -1    0    0    0    0  0.00000000000E+00  0.00000000000E+00  0.10559998763E+01  0.10560000000E+01  0.51109989000E-03 0.  1.
     -623   -1    0    0    0    0  0.00000000000E+00  0.00000000000E+00  0.47855275298E-10  0.17124000000E+03  0.17124000000E+03 0.  1.
       11    1    1    2    0    0  0.10872259186E-03 -0.31839948669E-02  0.95242454624E+00  0.95243001168E+00  0.51109989000E-03 0.  1.
     -623    1    1    2    0    0 -0.73240198122E-03  0.16190585368E-02  0.19052822249E-04  0.17124000001E+03  0.17124000000E+03 0.  1.
       22    1    1    2    0    0  0.62367937908E-03  0.15649363529E-02  0.10355626248E+00  0.10356996427E+00  0.00000000000E+00 0.  1.
</event>
<event>
 5   1  0.2192208E+09  0.9118800E+02  0.7818608E-02  0.1180000E+00
       11   -1    0    0    0    0  0.00000000000E+00  0.00000000000E+00  0.10559998763E+01  0.10560000000E+01  0.51109989000E-03 0.  1.
     -623   -1    0    0    0    0  0.00000000000E+00  0.00000000000E+00  0.47855275298E-10  0.17124000000E+03  0.17124000000E+03 0.  1.
       11    1    1    2    0    0  0.22227496010E-02 -0.81617213396E-02  0.95119042180E+00  0.95122817140E+00  0.51109989000E-03 0.  1.
     -623    1    1    2    0    0 -0.23771426218E-02  0.95072128042E-02  0.46660003921E-04  0.17124000028E+03  0.17124000000E+03 0.  1.
       22    1    1    2    0    0  0.15439386722E-03 -0.13454948496E-02  0.10476317052E+00  0.10477192416E+00  0.00000000000E+00 0.  1.
</event>
<event>
 5   1  0.2192208E+09  0.9118800E+02  0.7818608E-02  0.1180000E+00
       11   -1    0    0    0    0  0.00000000000E+00  0.00000000000E+00  0.10559998763E+01  0.10560000000E+01  0.51109989000E-03 0. -1.
     -623   -1    0    0    0    0  0.00000000000E+00  0.00000000000E+00  0.47855275298E-10  0.17124000000E+03  0.17124000000E+03 0.  1.
       11    1    1    2    0    0 -0.54814170545E-02  0.64216299105E-02  0.68016569038E+00  0.68021828177E+00  0.51109989000E-03 0. -1.
     -623    1    1    2    0    0  0.12163713245E-02 -0.13484202565E-02  0.11093088667E-03  0.17124000001E+03  0.17124000000E+03 0.  1.
       22    1    1    2    0    0  0.42650457243E-02 -0.50732096476E-02  0.37572326007E+00  0.37578171354E+00  0.00000000000E+00 0. -1.
</event>
<event>
 5   1  0.2192208E+09  0.9118800E+02  0.7818608E-02  0.1180000E+00
       11   -1    0    0    0    0  0.00000000000E+00  0.00000000000E+00  0.10559998763E+01  0.10560000000E+01  0.51109989000E-03 0.  1.
     -623   -1    0    0    0    0  0.00000000000E+00  0.00000000000E+00  0.47855275298E-10  0.17124000000E+03  0.17124000000E+03 0.  1.
       11    1    1    2    0    0  0.74400812329E-03  0.11519697494E-02  0.92723122153E+00  0.92723237648E+00  0.51109989000E-03 0.  1.
     -623    1    1    2    0    0 -0.40961549526E-03  0.14266556880E-03  0.79743883985E-05  0.17124000000E+03  0.17124000000E+03 0.  1.
       22    1    1    2    0    0 -0.33439259961E-03 -0.12946353281E-02  0.12876075369E+00  0.12876769623E+00  0.00000000000E+00 0. -1.
</event>
<event>
 5   1  0.2192208E+09  0.9118800E+02  0.7818608E-02  0.1180000E+00
       11   -1    0    0    0    0  0.00000000000E+00  0.00000000000E+00  0.10559998763E+01  0.10560000000E+01  0.51109989000E-03 0. -1.
     -623   -1    0    0    0    0  0.00000000000E+00  0.00000000000E+00  0.47855275298E-10  0.17124000000E+03  0.17124000000E+03 0.  1.
       11    1    1    2    0    0 -0.30601891334E-03 -0.37919269377E-02  0.66710715387E+00  0.66711819667E+00  0.51109989000E-03 0. -1.
     -623    1    1    2    0    0 -0.15296438408E-02 -0.14021657289E-02  0.49953597477E-04  0.17124000001E+03  0.17124000000E+03 0.  1.
       22    1    1    2    0    0  0.18356627542E-02  0.51940926667E-02  0.38884276897E+00  0.38888179083E+00  0.00000000000E+00 0.  1.
</event>
<event>
 5   1  0.2192208E+09  0.9118800E+02  0.7818608E-02  0.1180000E+00
       11   -1    0    0    0    0  0.00000000000E+00  0.00000000000E+00  0.10559998763E+01  0.10560000000E+01  0.51109989000E-03 0. -1.
     -623   -1    0    0    0    0  0.00000000000E+00  0.00000000000E+00  0.47855275298E-10  0.17124000000E+03  0.17124000000E+03 0. -1.
       11    1    1    2    0    0 -0.68915823338E-05 -0.33798724865E-01  0.90388942248E+00  0.90452125633E+00  0.51109989000E-03 0. -1.
     -623    1    1    2    0    0  0.18257482609E-02  0.38932559375E-01  0.73409821035E-03  0.17124000444E+03  0.17124000000E+03 0. -1.
       22    1    1    2    0    0 -0.18188566336E-02 -0.51338335527E-02  0.15137632973E+00  0.15147428062E+00  0.00000000000E+00 0. -1.
</event>
<event>
 5   1  0.2192208E+09  0.9118800E+02  0.7818608E-02  0.1180000E+00
       11   -1    0    0    0    0  0.00000000000E+00  0.00000000000E+00  0.10559998763E+01  0.10560000000E+01  0.51109989000E-03 0. -1.
     -623   -1    0    0    0    0  0.00000000000E+00  0.00000000000E+00  0.47855275298E-10  0.17124000000E+03  0.17124000000E+03 0. -1.
       11    1    1    2    0    0  0.37426404031E-03 -0.38257189403E-02  0.96325000201E+00  0.96325780755E+00  0.51109989000E-03 0. -1.
     -623    1    1    2    0    0  0.79701220799E-04  0.50174316057E-02  0.16523498521E-04  0.17124000007E+03  0.17124000000E+03 0. -1.
       22    1    1    2    0    0 -0.45396526656E-03 -0.11917130090E-02  0.92733423173E-01  0.92742191249E-01  0.00000000000E+00 0. -1.
</event>
<event>
 5   1  0.2192208E+09  0.9118800E+02  0.7818608E-02  0.1180000E+00
       11   -1    0    0    0    0  0.00000000000E+00  0.00000000000E+00  0.10559998763E+01  0.10560000000E+01  0.51109989000E-03 0. -1.
     -623   -1    0    0    0    0  0.00000000000E+00  0.00000000000E+00  0.47855275298E-10  0.17124000000E+03  0.17124000000E+03 0.  1.
       11    1    1    2    0    0 -0.94592522739E-03  0.11932477007E-01  0.87231964822E+00  0.87240191923E+00  0.51109989000E-03 0. -1.
     -623    1    1    2    0    0 -0.99391950077E-03 -0.15866804986E-01  0.13529542625E-03  0.17124000074E+03  0.17124000000E+03 0.  1.
       22    1    1    2    0    0  0.19398447357E-02  0.39343280995E-02  0.18354494076E+00  0.18359735078E+00  0.00000000000E+00 0. -1.
</event>
<event>
 5   1  0.2192208E+09  0.9118800E+02  0.7818608E-02  0.1180000E+00
       11   -1    0    0    0    0  0.00000000000E+00  0.00000000000E+00  0.10559998763E+01  0.10560000000E+01  0.51109989000E-03 0.  1.
     -623   -1    0    0    0    0  0.00000000000E+00  0.00000000000E+00  0.47855275298E-10  0.17124000000E+03  0.17124000000E+03 0. -1.
       11    1    1    2    0    0  0.84383851356E-02 -0.11232909934E-01  0.10009812235E+01  0.10010799447E+01  0.51109989000E-03 0.  1.
     -623    1    1    2    0    0 -0.93556207156E-02  0.12133198903E-01  0.11432384371E-03  0.17124000069E+03  0.17124000000E+03 0. -1.
       22    1    1    2    0    0  0.91723515572E-03 -0.90028841922E-03  0.54904281114E-01  0.54919321957E-01  0.00000000000E+00 0.  1.
</event>
<event>
 5   1  0.2192208E+09  0.9118800E+02  0.7818608E-02  0.1180000E+00
       11   -1    0    0    0    0  0.00000000000E+00  0.00000000000E+00  0.10559998763E+01  0.10560000000E+01  0.51109989000E-03 0. -1.
     -623   -1    0    0    0    0  0.00000000000E+00  0.00000000000E+00  0.47855275298E-10  0.17124000000E+03  0.17124000000E+03 0.  1.
       11    1    1    2    0    0  0.34072222116E-01 -0.25331683866E-01  0.96212991776E+00  0.96306637902E+00  0.51109989000E-03 0. -1.
     -623    1    1    2    0    0 -0.37331616053E-01  0.27866619252E-01  0.10344587448E-02  0.17124000634E+03  0.17124000000E+03 0.  1.
       22    1    1    2    0    0  0.32593973044E-02 -0.25349379004E-02  0.92835595040E-01  0.92927376415E-01  0.00000000000E+00 0. -1.
</event>
<event>
 5   1  0.2192208E+09  0.9118800E+02  0.7818608E-02  0.1180000E+00
       11   -1    0    0    0    0  0.00000000000E+00  0.00000000000E+00  0.10559998763E+01  0.10560000000E+01  0.51109989000E-03 0. -1.
     -623   -1    0    0    0    0  0.00000000000E+00  0.00000000000E+00  0.47855275298E-10  0.17124000000E+03  0.17124000000E+03 0. -1.
       11    1    1    2    0    0  0.54444407695E-02  0.21228836047E-01  0.88840390541E+00  0.88867433056E+00  0.51109989000E-03 0. -1.
     -623    1    1    2    0    0 -0.66883176292E-02 -0.23654985923E-01  0.29428040047E-03  0.17124000176E+03  0.17124000000E+03 0. -1.
       22    1    1    2    0    0  0.12438764975E-02  0.24261485945E-02  0.16730163337E+00  0.16732384754E+00  0.00000000000E+00 0.  1.
</event>
<event>
 5   1  0.2192208E+09  0.9118800E+02  0.7818608E-02  0.1180000E+00
       11   -1    0    0    0    0  0.00000000000E+00  0.00000000000E+00  0.10559998763E+01  0.10560000000E+01  0.51109989000E-03 0.  1.
     -623   -1    0    0    0    0  0.00000000000E+00  0.00000000000E+00  0.47855275298E-10  0.17124000000E+03  0.17124000000E+03 0.  1.
       11    1    1    2    0    0 -0.39703417046E-02  0.80677635749E-02  0.59874114412E+00  0.59880887712E+00  0.51109989000E-03 0.  1.
     -623    1    1    2    0    0  0.74174548979E-02 -0.13453909036E-01  0.11302297886E-03  0.17124000069E+03  0.17124000000E+03 0.  1.
       22    1    1    2    0    0 -0.34471117377E-02  0.53861428213E-02  0.45714550205E+00  0.45719022644E+00  0.00000000000E+00 0.  1.
</event>
<event>
 5   1  0.2192208E+09  0.9118800E+02  0.7818608E-02  0.1180000E+00
       11   -1    0    0    0    0  0.00000000000E+00  0.00000000000E+00  0.10559998763E+01  0.10560000000E+01  0.51109989000E-03 0. -1.
     -623   -1    0    0    0    0  0.00000000000E+00  0.00000000000E+00  0.47855275298E-10  0.17124000000E+03  0.17124000000E+03 0. -1.
       11    1    1    2    0    0  0.58153580433E-03 -0.53753207553E-02  0.78518467320E+00  0.78520345422E+00  0.51109989000E-03 0. -1.
     -623    1    1    2    0    0  0.24568819022E-03  0.47016063918E-03  0.64351154600E-04  0.17124000000E+03  0.17124000000E+03 0. -1.
       22    1    1    2    0    0 -0.82722399486E-03  0.49051601155E-02  0.27075085337E+00  0.27079654632E+00  0.00000000000E+00 0. -1.
</event>
<event>
 5   1  0.2192208E+09  0.9118800E+02  0.7818608E-02  0.1180000E+00
       11   -1    0    0    0    0  0.00000000000E+00  0.00000000000E+00  0.10559998763E+01  0.10560000000E+01  0.51109989000E-03 0.  1.
     -623   -1    0    0    0    0  0.00000000000E+00  0.00000000000E+00  0.47855275298E-10  0.17124000000E+03  0.17124000000E+03 0.  1.
       11    1    1    2    0    0  0.10082448842E-01 -0.14036834133E-01  0.49916074351E+00  0.49946010608E+00  0.51109989000E-03 0.  1.
     -623    1    1    2    0    0 -0.10868626813E-02  0.24676259677E-02  0.49224290707E-03  0.17124000002E+03  0.17124000000E+03 0.  1.
       22    1    1    2    0    0 -0.89955861607E-02  0.11569208166E-01  0.55634688990E+00  0.55653987193E+00  0.00000000000E+00 0.  1.
</event>
<event>
 5   1  0.2192208E+09  0.9118800E+02  0.7818608E-02  0.1180000E+00
       11   -1    0    0    0    0  0.00000000000E+00  0.00000000000E+00  0.10559998763E+01  0.10560000000E+01  0.51109989000E-03 0.  1.
     -623   -1    0    0    0    0  0.00000000000E+00  0.00000000000E+00  0.47855275298E-10  0.17124000000E+03  0.17124000000E+03 0. -1.
       11    1    1    2    0    0  0.14675761905E-01  0.41782904246E-01  0.99377947772E+00  0.99476585216E+00  0.51109989000E-03 0.  1.
     -623    1    1    2    0    0 -0.15380290992E-01 -0.44131252421E-01  0.10417390607E-02  0.17124000638E+03  0.17124000000E+03 0. -1.
       22    1    1    2    0    0  0.70453305704E-03  0.23483595672E-02  0.61178931900E-01  0.61228039883E-01  0.00000000000E+00 0.  1.
</event>
<event>
 5   1  0.2192208E+09  0.9118800E+02  0.7818608E-02  0.1180000E+00
       11   -1    0    0    0    0  0.00000000000E+00  0.00000000000E+00  0.10559998763E+01  0.10560000000E+01  0.51109989000E-03 0.  1.
     -623   -1    0    0    0    0  0.00000000000E+00  0.00000000000E+00  0.47855275298E-10  0.17124000000E+03  0.17124000000E+03 0.  1.
       11    1    1    2    0    0 -0.49068255501E-02 -0.38336694569E-02  0.78131003539E+00  0.78133501559E+00  0.51109989000E-03 0.  1.
     -623    1    1    2    0    0 -0.73309471740E-03 -0.12941479687E-02  0.13065450391E-03  0.17124000001E+03  0.17124000000E+03 0.  1.
       22    1    1    2    0    0  0.56399202678E-02  0.51278174262E-02  0.27455918694E+00  0.27466497837E+00  0.00000000000E+00 0.  1.
</event>
<event>
 5   1  0.2192208E+09  0.9118800E+02  0.7818608E-02  0.1180000E+00
       11   -1    0    0    0    0  0.00000000000E+00  0.00000000000E+00  0.10559998763E+01  0.10560000000E+01  0.51109989000E-03 0.  1.
     -623   -1    0    0    0    0  0.00000000000E+00  0.00000000000E+00  0.47855275298E-10  0.17124000000E+03  0.17124000000E+03 0. -1.
       11    1    1    2    0    0 -0.22582190405E-02 -0.26037354035E-02  0.92501913921E+00  0.92502570133E+00  0.51109989000E-03 0.  1.
     -623    1    1    2    0    0 -0.34188916040E-05  0.31066066804E-03  0.46044884744E-04  0.17124000000E+03  0.17124000000E+03 0. -1.
       22    1    1    2    0    0  0.22616379321E-02  0.22930747342E-02  0.13093469641E+00  0.13097430252E+00  0.00000000000E+00 0. -1.
</event>
<event>
 5   1  0.2192208E+09  0.9118800E+02  0.7818608E-02  0.1180000E+00
       11   -1    0    0    0    0  0.00000000000E+00  0.00000000000E+00  0.10559998763E+01  0.10560000000E+01  0.51109989000E-03 0. -1.
     -623   -1    0    0    0    0  0.00000000000E+00  0.00000000000E+00  0.47855275298E-10  0.17124000000E+03  0.17124000000E+03 0.  1.
       11    1    1    2    0    0  0.40282555544E-03  0.70400787133E-03  0.43457159039E-01  0.43467732749E-01  0.51109989000E-03 0. -1.
     -623    1    1    2    0    0  0.67679904886E-03 -0.12017279904E-01  0.74653703229E-04  0.17124000042E+03  0.17124000000E+03 0.  1.
       22    1    1    2    0    0 -0.10796246245E-02  0.11313272392E-01  0.10124680951E+01  0.10125318757E+01  0.00000000000E+00 0. -1.
</event>
<event>
 5   1  0.2192208E+09  0.9118800E+02  0.7818608E-02  0.1180000E+00
       11   -1    0    0    0    0  0.00000000000E+00  0.00000000000E+00  0.10559998763E+01  0.10560000000E+01  0.51109989000E-03 0. -1.
     -623   -1    0    0    0    0  0.00000000000E+00  0.00000000000E+00  0.47855275298E-10  0.17124000000E+03  0.17124000000E+03 0.  1.
       11    1    1    2    0    0  0.31199531409E-04  0.51536923079E-02  0.63341325723E+00  0.63343443006E+00  0.51109989000E-03 0. -1.
     -623    1    1    2    0    0  0.10943202703E-02 -0.10113228234E-03  0.52759234876E-04  0.17124000000E+03  0.17124000000E+03 0.  1.
       22    1    1    2    0    0 -0.11255198031E-02 -0.50525600255E-02  0.42253386124E+00  0.42256556776E+00  0.00000000000E+00 0. -1.
</event>
<event>
 5   1  0.2192208E+09  0.9118800E+02  0.7818608E-02  0.1180000E+00
       11   -1    0    0    0    0  0.00000000000E+00  0.00000000000E+00  0.10559998763E+01  0.10560000000E+01  0.51109989000E-03 0.  1.
     -623   -1    0    0    0    0  0.00000000000E+00  0.00000000000E+00  0.47855275298E-10  0.17124000000E+03  0.17124000000E+03 0. -1.
       11    1    1    2    0    0 -0.47268176412E-03  0.75814795073E-03  0.98070890766E+00  0.98070944780E+00  0.51109989000E-03 0.  1.
     -623    1    1    2    0    0  0.71097096559E-05  0.97990876110E-05  0.57726116480E-05  0.17124000000E+03  0.17124000000E+03 0. -1.
       22    1    1    2    0    0  0.46557205450E-03 -0.76794703830E-03  0.75285191115E-01  0.75290547224E-01  0.00000000000E+00 0. -1.
</event>
<event>
 5   1  0.2192208E+09  0.9118800E+02  0.7818608E-02  0.1180000E+00
       11   -1    0    0    0    0  0.00000000000E+00  0.00000000000E+00  0.10559998763E+01  0.10560000000E+01  0.51109989000E-03 0.  1.
     -623   -1    0    0    0    0  0.00000000000E+00  0.00000000000E+00  0.47855275298E-10  0.17124000000E+03  0.17124000000E+03 0. -1.
       11    1    1    2    0    0  0.17874286975E-02 -0.11116400811E-01  0.84701673222E+00  0.84709171590E+00  0.51109989000E-03 0.  1.
     -623    1    1    2    0    0 -0.20711872326E-02  0.13478781197E-01  0.88953415471E-04  0.17124000054E+03  0.17124000000E+03 0. -1.
       22    1    1    2    0    0  0.28375904606E-03 -0.23623837111E-02  0.20889445122E+00  0.20890800159E+00  0.00000000000E+00 0.  1.
</event>
<event>
 5   1  0.2192208E+09  0.9118800E+02  0.7818608E-02  0.1180000E+00
       11   -1    0    0    0    0  0.00000000000E+00  0.00000000000E+00  0.10559998763E+01  0.10560000000E+01  0.51109989000E-03 0. -1.
     -623   -1    0    0    0    0  0.00000000000E+00  0.00000000000E+00  0.47855275298E-10  0.17124000000E+03  0.17124000000E+03 0.  1.
       11    1    1    2    0    0  0.17636656225E-03  0.21947888684E-02  0.93256862072E+00  0.93257136015E+00  0.51109989000E-03 0. -1.
     -623    1    1    2    0    0 -0.38913308223E-04  0.10146588709E-04  0.22388462863E-04  0.17124000000E+03  0.17124000000E+03 0.  1.
       22    1    1    2    0    0 -0.13745325437E-03 -0.22049354570E-02  0.12340885794E+00  0.12342863060E+00  0.00000000000E+00 0. -1.
</event>
<event>
 5   1  0.2192208E+09  0.9118800E+02  0.7818608E-02  0.1180000E+00
       11   -1    0    0    0    0  0.00000000000E+00  0.00000000000E+00  0.10559998763E+01  0.10560000000E+01  0.51109989000E-03 0.  1.
     -623   -1    0    0    0    0  0.00000000000E+00  0.00000000000E+00  0.47855275298E-10  0.17124000000E+03  0.17124000000E+03 0. -1.
       11    1    1    2    0    0 -0.22656590029E-03  0.15090625578E-02  0.27159482116E-01  0.27207118440E-01  0.51109989000E-03 0.  1.
     -623    1    1    2    0    0 -0.38426233268E-02 -0.14069369664E-01  0.13285783609E-03  0.17124000062E+03  0.17124000000E+03 0. -1.
       22    1    1    2    0    0  0.40691892230E-02  0.12560307091E-01  0.10287075353E+01  0.10287922593E+01  0.00000000000E+00 0.  1.
</event>
<event>
 5   1  0.2192208E+09  0.9118800E+02  0.7818608E-02  0.1180000E+00
       11   -1    0    0    0    0  0.00000000000E+00  0.00000000000E+00  0.10559998763E+01  0.10560000000E+01  0.51109989000E-03 0. -1.
     -623   -1    0    0    0    0  0.00000000000E+00  0.00000000000E+00  0.47855275298E-10  0.17124000000E+03  0.17124000000E+03 0. -1.
       11    1    1    2    0    0  0.25100210084E-02 -0.26338213450E-02  0.98807290256E+00  0.98807973323E+00  0.51109989000E-03 0. -1.
     -623    1    1    2    0    0 -0.28228382087E-02  0.36717021604E-02  0.15420441421E-04  0.17124000006E+03  0.17124000000E+03 0. -1.
       22    1    1    2    0    0  0.31281739725E-03 -0.10378810715E-02  0.67911627038E-01  0.67920277818E-01  0.00000000000E+00 0. -1.
</event>
<event>
 5   1  0.2192208E+09  0.9118800E+02  0.7818608E-02  0.1180000E+00
       11   -1    0    0    0    0  0.00000000000E+00  0.00000000000E+00  0.10559998763E+01  0.10560000000E+01  0.51109989000E-03 0.  1.
     -623   -1    0    0    0    0  0.00000000000E+00  0.00000000000E+00  0.47855275298E-10  0.17124000000E+03  0.17124000000E+03 0. -1.
       11    1    1    2    0    0 -0.36826578520E-03  0.10323914084E-01  0.74371872215E+00  0.74379064105E+00  0.51109989000E-03 0.  1.
     -623    1    1    2    0    0  0.38903179450E-04 -0.15354201697E-01  0.11318390609E-03  0.17124000069E+03  0.17124000000E+03 0. -1.
       22    1    1    2    0    0  0.32936260207E-03  0.50302890631E-02  0.31216807004E+00  0.31220877028E+00  0.00000000000E+00 0.  1.
</event>
<event>
 5   1  0.2192208E+09  0.9118800E+02  0.7818608E-02  0.1180000E+00
       11   -1    0    0    0    0  0.00000000000E+00  0.00000000000E+00  0.10559998763E+01  0.10560000000E+01  0.51109989000E-03 0.  1.
     -623   -1    0    0    0    0  0.00000000000E+00  0.00000000000E+00  0.47855275298E-10  0.17124000000E+03  0.17124000000E+03 0.  1.
       11    1    1    2    0    0 -0.16314811347E-02 -0.24404626492E-02  0.71753224679E+00  0.71753843381E+00  0.51109989000E-03 0.  1.
     -623    1    1    2    0    0  0.11246046348E-02  0.62454345043E-02  0.27948898181E-04  0.17124000012E+03  0.17124000000E+03 0.  1.
       22    1    1    2    0    0  0.50687653522E-03 -0.38049716592E-02  0.33843964755E+00  0.33846141548E+00  0.00000000000E+00 0.  1.
</event>
<event>
 5   1  0.2192208E+09  0.9118800E+02  0.7818608E-02  0.1180000E+00
       11   -1    0    0    0    0  0.00000000000E+00  0.00000000000E+00  0.10559998763E+01  0.10560000000E+01  0.51109989000E-03 0. -1.
     -623   -1    0    0    0    0  0.00000000000E+00  0.00000000000E+00  0.47855275298E-10  0.17124000000E+03  0.17124000000E+03 0.  1.
       11    1    1    2    0    0 -0.20094792964E-02  0.67795715644E-02  0.84795227892E+00  0.84798191558E+00  0.51109989000E-03 0. -1.
     -623    1    1    2    0    0  0.33990856068E-03  0.71976834041E-03  0.17144422714E-03  0.17124000000E+03  0.17124000000E+03 0.  1.
       22    1    1    2    0    0  0.16695707358E-02 -0.74993399045E-02  0.20787615287E+00  0.20801808214E+00  0.00000000000E+00 0. -1.
</event>
<event>
 5   1  0.2192208E+09  0.9118800E+02  0.7818608E-02  0.1180000E+00
       11   -1    0    0    0    0  0.00000000000E+00  0.00000000000E+00  0.10559998763E+01  0.10560000000E+01  0.51109989000E-03 0.  1.
     -623   -1    0    0    0    0  0.00000000000E+00  0.00000000000E+00  0.47855275298E-10  0.17124000000E+03  0.17124000000E+03 0.  1.
       11    1    1    2    0    0 -0.58052463890E-03  0.84380469107E-03  0.10048673270E+01  0.10048679790E+01  0.51109989000E-03 0.  1.
     -623    1    1    2    0    0 -0.42388415134E-04 -0.21634622274E-03  0.81731986290E-05  0.17124000000E+03  0.17124000000E+03 0.  1.
       22    1    1    2    0    0  0.62291305513E-03 -0.62745846269E-03  0.51124403679E-01  0.51132048427E-01  0.00000000000E+00 0.  1.
</event>
<event>
 5   1  0.2192208E+09  0.9118800E+02  0.7818608E-02  0.1180000E+00
       11   -1    0    0    0    0  0.00000000000E+00  0.00000000000E+00  0.10559998763E+01  0.10560000000E+01  0.51109989000E-03 0. -1.
     -623   -1    0    0    0    0  0.00000000000E+00  0.00000000000E+00  0.47855275298E-10  0.17124000000E+03  0.17124000000E+03 0. -1.
       11    1    1    2    0    0  0.16975846788E-03  0.74327162606E-03  0.10001549645E+01  0.10001553856E+01  0.51109989000E-03 0. -1.
     -623    1    1    2    0    0  0.24698888602E-04 -0.47063243899E-04  0.49760893441E-05  0.17124000000E+03  0.17124000000E+03 0. -1.
       22    1    1    2    0    0 -0.19445735541E-03 -0.69620838421E-03  0.55839889956E-01  0.55844568493E-01  0.00000000000E+00 0.  1.
</event>
<event>
 5   1  0.2192208E+09  0.9118800E+02  0.7818608E-02  0.1180000E+00
       11   -1    0    0    0    0  0.00000000000E+00  0.00000000000E+00  0.10559998763E+01  0.10560000000E+01  0.51109989000E-03 0. -1.
     -623   -1    0    0    0    0  0.00000000000E+00  0.00000000000E+00  0.47855275298E-10  0.17124000000E+03  0.17124000000E+03 0. -1.
       11    1    1    2    0    0  0.20893190955E-02 -0.23692327211E-02  0.91144519355E+00  0.91145081084E+00  0.51109989000E-03 0. -1.
     -623    1    1    2    0    0  0.16341913148E-03  0.38940705462E-03  0.36609911087E-04  0.17124000000E+03  0.17124000000E+03 0. -1.
       22    1    1    2    0    0 -0.22527382275E-02  0.19798256652E-02  0.14451807639E+00  0.14454919212E+00  0.00000000000E+00 0. -1.
</event>
<event>
 5   1  0.2192208E+09  0.9118800E+02  0.7818608E-02  0.1180000E+00
       11   -1    0    0    0    0  0.00000000000E+00  0.00000000000E+00  0.10559998763E+01  0.10560000000E+01  0.51109989000E-03 0. -1.
     -623   -1    0    0    0    0  0.00000000000E+00  0.00000000000E+00  0.47855275298E-10  0.17124000000E+03  0.17124000000E+03 0. -1.
       11    1    1    2    0    0  0.34916784755E-02 -0.14266457097E-01  0.99011746404E+00  0.99022652834E+00  0.51109989000E-03 0. -1.
     -623    1    1    2    0    0 -0.36869331436E-02  0.15169814636E-01  0.11614606157E-03  0.17124000071E+03  0.17124000000E+03 0. -1.
       22    1    1    2    0    0  0.19526104382E-03 -0.90338377173E-03  0.65768092180E-01  0.65774586112E-01  0.00000000000E+00 0.  1.
</event>
<event>
 5   1  0.2192208E+09  0.9118800E+02  0.7818608E-02  0.1180000E+00
       11   -1    0    0    0    0  0.00000000000E+00  0.00000000000E+00  0.10559998763E+01  0.10560000000E+01  0.51109989000E-03 0. -1.
     -623   -1    0    0    0    0  0.00000000000E+00  0.00000000000E+00  0.47855275298E-10  0.17124000000E+03  0.17124000000E+03 0. -1.
       11    1    1    2    0    0 -0.11376867008E-02  0.12185219313E-01  0.95191777129E+00  0.95199657479E+00  0.51109989000E-03 0. -1.
     -623    1    1    2    0    0  0.20256958904E-02 -0.13410798528E-01  0.90229810394E-04  0.17124000054E+03  0.17124000000E+03 0. -1.
       22    1    1    2    0    0 -0.88800933602E-03  0.12255801843E-02  0.10399195155E+00  0.10400296436E+00  0.00000000000E+00 0. -1.
</event>
<event>
 5   1  0.2192208E+09  0.9118800E+02  0.7818608E-02  0.1180000E+00
       11   -1    0    0    0    0  0.00000000000E+00  0.00000000000E+00  0.10559998763E+01  0.10560000000E+01  0.51109989000E-03 0. -1.
     -623   -1    0    0    0    0  0.00000000000E+00  0.00000000000E+00  0.47855275298E-10  0.17124000000E+03  0.17124000000E+03 0.  1.
       11    1    1    2    0    0  0.99280646811E-03 -0.99573061206E-03  0.96583458135E+00  0.96583574012E+00  0.51109989000E-03 0. -1.
     -623    1    1    2    0    0 -0.97520259615E-03 -0.82323308412E-04  0.74847867437E-05  0.17124000000E+03  0.17124000000E+03 0.  1.
       22    1    1    2    0    0 -0.17603863340E-04  0.10780539212E-02  0.90157819562E-01  0.90164266416E-01  0.00000000000E+00 0.  1.
</event>
<event>
 5   1  0.2192208E+09  0.9118800E+02  0.7818608E-02  0.1180000E+00
       11   -1    0    0    0    0  0.00000000000E+00  0.00000000000E+00  0.10559998763E+01  0.10560000000E+01  0.51109989000E-03 0.  1.
     -623   -1    0    0    0    0  0.00000000000E+00  0.00000000000E+00  0.47855275298E-10  0.17124000000E+03  0.17124000000E+03 0. -1.
       11    1    1    2    0    0  0.42159495833E-03 -0.65084297621E-02  0.98938873976E+00  0.98941036834E+00  0.51109989000E-03 0.  1.
     -623    1    1    2    0    0 -0.94344505538E-03  0.54959859051E-02  0.31338003244E-04  0.17124000009E+03  0.17124000000E+03 0. -1.
       22    1    1    2    0    0  0.52185010306E-03  0.10124438220E-02  0.66579805323E-01  0.66589547580E-01  0.00000000000E+00 0. -1.
</event>
<event>
 5   1  0.2192208E+09  0.9118800E+02  0.7818608E-02  0.1180000E+00
       11   -1    0    0    0    0  0.00000000000E+00  0.00000000000E+00  0.10559998763E+01  0.10560000000E+01  0.51109989000E-03 0. -1.
     -623   -1    0    0    0    0  0.00000000000E+00  0.00000000000E+00  0.47855275298E-10  0.17124000000E+03  0.17124000000E+03 0.  1.
       11    1    1    2    0    0 -0.76524787791E-03 -0.61394953686E-02  0.93297695633E+00  0.93299761054E+00  0.51109989000E-03 0. -1.
     -623    1    1    2    0    0  0.19004291641E-02  0.45888848468E-02  0.35615557416E-04  0.17124000007E+03  0.17124000000E+03 0.  1.
       22    1    1    2    0    0 -0.11351812866E-02  0.15506105209E-02  0.12298730468E+00  0.12300231763E+00  0.00000000000E+00 0.  1.
</event>
<event>
 5   1  0.2192208E+09  0.9118800E+02  0.7818608E-02  0.1180000E+00
       11   -1    0    0    0    0  0.00000000000E+00  0.00000000000E+00  0.10559998763E+01  0.10560000000E+01  0.51109989000E-03 0.  1.
     -623   -1    0    0    0    0  0.00000000000E+00  0.00000000000E+00  0.47855275298E-10  0.17124000000E+03  0.17124000000E+03 0.  1.
       11    1    1    2    0    0  0.43153530153E-02  0.49047681123E-02  0.62067555550E+00  0.62071014608E+00  0.51109989000E-03 0.  1.
     -623    1    1    2    0    0 -0.41952763444E-02 -0.27092680844E-03  0.59200400528E-04  0.17124000005E+03  0.17124000000E+03 0.  1.
       22    1    1    2    0    0 -0.12007666778E-03 -0.46338413036E-02  0.43526512125E+00  0.43528980309E+00  0.00000000000E+00 0.  1.
</event>
<event>
 5   1  0.2192208E+09  0.9118800E+02  0.7818608E-02  0.1180000E+00
       11   -1    0    0    0    0  0.00000000000E+00  0.00000000000E+00  0.10559998763E+01  0.10560000000E+01  0.51109989000E-03 0.  1.
     -623   -1    0    0    0    0  0.00000000000E+00  0.00000000000E+00  0.47855275298E-10  0.17124000000E+03  0.17124000000E+03 0. -1.
       11    1    1    2    0    0  0.39410600242E-03  0.19339977777E-02  0.92968631335E+00  0.92968854899E+00  0.51109989000E-03 0.  1.
     -623    1    1    2    0    0  0.35707844055E-04 -0.53316083471E-04  0.16845123461E-04  0.17124000000E+03  0.17124000000E+03 0. -1.
       22    1    1    2    0    0 -0.42981384637E-03 -0.18806816944E-02  0.12629671487E+00  0.12631144797E+00  0.00000000000E+00 0.  1.
</event>
<event>
 5   1  0.2192208E+09  0.9118800E+02  0.7818608E-02  0.1180000E+00
       11   -1    0    0    0    0  0.00000000000E+00  0.00000000000E+00  0.10559998763E+01  0.10560000000E+01  0.51109989000E-03 0. -1.
     -623   -1    0    0    0    0  0.00000000000E+00  0.00000000000E+00  0.47855275298E-10  0.17124000000E+03  0.17124000000E+03 0.  1.
       11    1    1    2    0    0  0.13620856736E-01 -0.16195184952E-01  0.35015137116E+00  0.35079061519E+00  0.51109989000E-03 0. -1.
     -623    1    1    2    0    0 -0.15235766245E-01  0.61841615882E-02  0.71282155392E-03  0.17124000079E+03  0.17124000000E+03 0.  1.
       22    1    1    2    0    0  0.16149095085E-02  0.10011023364E-01  0.70513568362E+00  0.70520859385E+00  0.00000000000E+00 0. -1.
</event>
<event>
 5   1  0.2192208E+09  0.9118800E+02  0.7818608E-02  0.1180000E+00
       11   -1    0    0    0    0  0.00000000000E+00  0.00000000000E+00  0.10559998763E+01  0.10560000000E+01  0.51109989000E-03 0.  1.
     -623   -1    0    0    0    0  0.00000000000E+00  0.00000000000E+00  0.47855275298E-10  0.17124000000E+03  0.17124000000E+03 0.  1.
       11    1    1    2    0    0  0.63836099825E-03 -0.19162482009E-02  0.74004853572E+00  0.74005146845E+00  0.51109989000E-03 0.  1.
     -623    1    1    2    0    0 -0.35686153726E-02 -0.14970446911E-02  0.34880173868E-04  0.17124000004E+03  0.17124000000E+03 0.  1.
       22    1    1    2    0    0  0.29302544144E-02  0.34132929088E-02  0.31591647233E+00  0.31594849968E+00  0.00000000000E+00 0. -1.
</event>
<event>
 5   1  0.2192208E+09  0.9118800E+02  0.7818608E-02  0.1180000E+00
       11   -1    0    0    0    0  0.00000000000E+00  0.00000000000E+00  0.10559998763E+01  0.10560000000E+01  0.51109989000E-03 0.  1.
     -623   -1    0    0    0    0  0.00000000000E+00  0.00000000000E+00  0.47855275298E-10  0.17124000000E+03  0.17124000000E+03 0. -1.
       11    1    1    2    0    0  0.82748163714E-03  0.17489998524E-02  0.96516072246E+00  0.96516279722E+00  0.51109989000E-03 0.  1.
     -623    1    1    2    0    0  0.62782612597E-04  0.32739836679E-04  0.23790449948E-04  0.17124000000E+03  0.17124000000E+03 0. -1.
       22    1    1    2    0    0 -0.89026424866E-03 -0.17817396886E-02  0.90815345460E-01  0.90837184775E-01  0.00000000000E+00 0.  1.
</event>
<event>
 5   1  0.2192208E+09  0.9118800E+02  0.7818608E-02  0.1180000E+00
       11   -1    0    0    0    0  0.00000000000E+00  0.00000000000E+00  0.10559998763E+01  0.10560000000E+01  0.51109989000E-03 0. -1.
     -623   -1    0    0    0    0  0.00000000000E+00  0.00000000000E+00  0.47855275298E-10  0.17124000000E+03  0.17124000000E+03 0. -1.
       11    1    1    2    0    0 -0.50306630700E-03 -0.17373521714E-02  0.98864403831E+00  0.98864582494E+00  0.51109989000E-03 0. -1.
     -623    1    1    2    0    0  0.10904060994E-02  0.36795795608E-02  0.32276879241E-04  0.17124000004E+03  0.17124000000E+03 0. -1.
       22    1    1    2    0    0 -0.58733979871E-03 -0.19422274107E-02  0.67323567300E-01  0.67354138176E-01  0.00000000000E+00 0.  1.
</event>
<event>
 5   1  0.2192208E+09  0.9118800E+02  0.7818608E-02  0.1180000E+00
       11   -1    0    0    0    0  0.00000000000E+00  0.00000000000E+00  0.10559998763E+01  0.10560000000E+01  0.51109989000E-03 0. -1.
     -623   -1    0    0    0    0  0.00000000000E+00  0.00000000000E+00  0.47855275298E-10  0.17124000000E+03  0.17124000000E+03 0. -1.
       11    1    1    2    0    0 -0.58055268568E-02 -0.11006839101E-01  0.79005066853E+00  0.79014883074E+00  0.51109989000E-03 0. -1.
     -623    1    1    2    0    0  0.97449853258E-02  0.13989517438E-01  0.14481134282E-03  0.17124000085E+03  0.17124000000E+03 0. -1.
       22    1    1    2    0    0 -0.39394582329E-02 -0.29826779979E-02  0.26580437091E+00  0.26585029489E+00  0.00000000000E+00 0. -1.
</event>
<event>
 5   1  0.2192208E+09  0.9118800E+02  0.7818608E-02  0.1180000E+00
       11   -1    0    0    0    0  0.00000000000E+00  0.00000000000E+00  0.10559998763E+01  0.10560000000E+01  0.51109989000E-03 0. -1.
     -623   -1    0    0    0    0  0.00000000000E+00  0.00000000000E+00  0.47855275298E-10  0.17124000000E+03  0.17124000000E+03 0.  1.
       11    1    1    2    0    0 -0.10864446340E-01  0.28972202108E-02  0.82714406088E+00  0.82722064091E+00  0.51109989000E-03 0. -1.
     -623    1    1    2    0    0  0.14486714878E-01 -0.53608951344E-02  0.11909822181E-03  0.17124000070E+03  0.17124000000E+03 0.  1.
       22    1    1    2    0    0 -0.36222682052E-02  0.24636748008E-02  0.22873669306E+00  0.22877863815E+00  0.00000000000E+00 0. -1.
</event>
<event>
 5   1  0.2192208E+09  0.9118800E+02  0.7818608E-02  0.1180000E+00
       11   -1    0    0    0    0  0.00000000000E+00  0.00000000000E+00  0.10559998763E+01  0.10560000000E+01  0.51109989000E-03 0. -1.
     -623   -1    0    0    0    0  0.00000000000E+00  0.00000000000E+00  0.47855275298E-10  0.17124000000E+03  0.17124000000E+03 0. -1.
       11    1    1    2    0    0 -0.29396151180E-02  0.19786872912E-01  0.99476581996E+00  0.99496706451E+00  0.51109989000E-03 0. -1.
     -623    1    1    2    0    0  0.32525459559E-02 -0.21192372567E-01  0.21945158841E-03  0.17124000134E+03  0.17124000000E+03 0. -1.
       22    1    1    2    0    0 -0.31293146822E-03  0.14055037613E-02  0.61014809405E-01  0.61031797726E-01  0.00000000000E+00 0.  1.
</event>
<event>
 5   1  0.2192208E+09  0.9118800E+02  0.7818608E-02  0.1180000E+00
       11   -1    0    0    0    0  0.00000000000E+00  0.00000000000E+00  0.10559998763E+01  0.10560000000E+01  0.51109989000E-03 0.  1.
     -623   -1    0    0    0    0  0.00000000000E+00  0.00000000000E+00  0.47855275298E-10  0.17124000000E+03  0.17124000000E+03 0. -1.
       11    1    1    2    0    0 -0.11258267602E-01 -0.54593812810E-02  0.10001848143E+00  0.10079936152E+00  0.51109989000E-03 0.  1.
     -623    1    1    2    0    0 -0.43101288656E-02  0.17094255403E-01  0.97941823763E-03  0.17124000091E+03  0.17124000000E+03 0. -1.
       22    1    1    2    0    0  0.15568396468E-01 -0.11634874122E-01  0.95500197668E+00  0.95519972819E+00  0.00000000000E+00 0.  1.
</event>
<event>
 5   1  0.2192208E+09  0.9118800E+02  0.7818608E-02  0.1180000E+00
       11   -1    0    0    0    0  0.00000000000E+00  0.00000000000E+00  0.10559998763E+01  0.10560000000E+01  0.51109989000E-03 0. -1.
     -623   -1    0    0    0    0  0.00000000000E+00  0.00000000000E+00  0.47855275298E-10  0.17124000000E+03  0.17124000000E+03 0.  1.
       11    1    1    2    0    0  0.64193449573E-02  0.75989313862E-03  0.88812538455E+00  0.88814905581E+00  0.51109989000E-03 0. -1.
     -623    1    1    2    0    0 -0.67419323244E-02 -0.26773551024E-02  0.34963805562E-04  0.17124000015E+03  0.17124000000E+03 0.  1.
       22    1    1    2    0    0  0.32258743678E-03  0.19174619914E-02  0.16783953892E+00  0.16785080145E+00  0.00000000000E+00 0. -1.
</event>
<event>
 5   1  0.2192208E+09  0.9118800E+02  0.7818608E-02  0.1180000E+00
       11   -1    0    0    0    0  0.00000000000E+00  0.00000000000E+00  0.10559998763E+01  0.10560000000E+01  0.51109989000E-03 0.  1.
     -623   -1    0    0    0    0  0.00000000000E+00  0.00000000000E+00  0.47855275298E-10  0.17124000000E+03  0.17124000000E+03 0. -1.
       11    1    1    2    0    0  0.16825377606E-02 -0.74713090839E-02  0.39842755054E+00  0.39850147509E+00  0.51109989000E-03 0.  1.
     -623    1    1    2    0    0 -0.83960107393E-04 -0.16399794419E-03  0.12007910405E-03  0.17124000000E+03  0.17124000000E+03 0. -1.
       22    1    1    2    0    0 -0.15985776530E-02  0.76353070284E-02  0.65745224903E+00  0.65749852708E+00  0.00000000000E+00 0.  1.
</event>
<event>
 5   1  0.2192208E+09  0.9118800E+02  0.7818608E-02  0.1180000E+00
       11   -1    0    0    0    0  0.00000000000E+00  0.00000000000E+00  0.10559998763E+01  0.10560000000E+01  0.51109989000E-03 0.  1.
     -623   -1    0    0    0    0  0.00000000000E+00  0.00000000000E+00  0.47855275298E-10  0.17124000000E+03  0.17124000000E+03 0. -1.
       11    1    1    2    0    0 -0.57125960799E-02 -0.19252877986E-01  0.90585083071E+00  0.90607355981E+00  0.51109989000E-03 0.  1.
     -623    1    1    2    0    0  0.72040732865E-02  0.23000593390E-01  0.27857188171E-03  0.17124000170E+03  0.17124000000E+03 0. -1.
       22    1    1    2    0    0 -0.14914786845E-02 -0.37477201228E-02  0.14987069036E+00  0.14992496037E+00  0.00000000000E+00 0.  1.
</event>
<event>
 5   1  0.2192208E+09  0.9118800E+02  0.7818608E-02  0.1180000E+00
       11   -1    0    0    0    0  0.00000000000E+00  0.00000000000E+00  0.10559998763E+01  0.10560000000E+01  0.51109989000E-03 0.  1.
     -623   -1    0    0    0    0  0.00000000000E+00  0.00000000000E+00  0.47855275298E-10  0.17124000000E+03  0.17124000000E+03 0.  1.
       11    1    1    2    0    0 -0.26793062072E-02  0.14288047830E-01  0.10025107522E+01  0.10026162758E+01  0.51109989000E-03 0.  1.
     -623    1    1    2    0    0  0.27053661973E-02 -0.14835429723E-01  0.10887682738E-03  0.17124000066E+03  0.17124000000E+03 0.  1.
       22    1    1    2    0    0 -0.26058560927E-04  0.54737405658E-03  0.53379689564E-01  0.53382502334E-01  0.00000000000E+00 0. -1.
</event>
<event>
 5   1  0.2192208E+09  0.9118800E+02  0.7818608E-02  0.1180000E+00
       11   -1    0    0    0    0  0.00000000000E+00  0.00000000000E+00  0.10559998763E+01  0.10560000000E+01  0.51109989000E-03 0.  1.
     -623   -1    0    0    0    0  0.00000000000E+00  0.00000000000E+00  0.47855275298E-10  0.17124000000E+03  0.17124000000E+03 0. -1.
       11    1    1    2    0    0 -0.39902530492E-03  0.28325159821E-02  0.99431688464E+00  0.99432113055E+00  0.51109989000E-03 0.  1.
     -623    1    1    2    0    0 -0.29445141942E-02 -0.17286537248E-02  0.10474098393E-03  0.17124000003E+03  0.17124000000E+03 0. -1.
       22    1    1    2    0    0  0.33435394954E-02 -0.11038622596E-02  0.61578249391E-01  0.61678834022E-01  0.00000000000E+00 0.  1.
</event>
<event>
 5   1  0.2192208E+09  0.9118800E+02  0.7818608E-02  0.1180000E+00
       11   -1    0    0    0    0  0.00000000000E+00  0.00000000000E+00  0.10559998763E+01  0.10560000000E+01  0.51109989000E-03 0.  1.
     -623   -1    0    0    0    0  0.00000000000E+00  0.00000000000E+00  0.47855275298E-10  0.17124000000E+03  0.17124000000E+03 0. -1.
       11    1    1    2    0    0 -0.38429508180E-02  0.74164373956E-02  0.88836401444E+00  0.88840343043E+00  0.51109989000E-03 0.  1.
     -623    1    1    2    0    0 -0.13171950248E-02  0.20946980660E-03  0.29242242208E-03  0.17124000001E+03  0.17124000000E+03 0. -1.
       22    1    1    2    0    0  0.51601458449E-02 -0.76259072025E-02  0.16734344121E+00  0.16759656585E+00  0.00000000000E+00 0. -1.
</event>
<event>
 5   1  0.2192208E+09  0.9118800E+02  0.7818608E-02  0.1180000E+00
       11   -1    0    0    0    0  0.00000000000E+00  0.00000000000E+00  0.10559998763E+01  0.10560000000E+01  0.51109989000E-03 0. -1.
     -623   -1    0    0    0    0  0.00000000000E+00  0.00000000000E+00  0.47855275298E-10  0.17124000000E+03  0.17124000000E+03 0.  1.
       11    1    1    2    0    0 -0.60470031077E-02  0.52216757764E-02  0.53329395047E+00  0.53335403905E+00  0.51109989000E-03 0. -1.
     -623    1    1    2    0    0  0.37655321430E-02 -0.10662514395E-01  0.93639048065E-04  0.17124000037E+03  0.17124000000E+03 0.  1.
       22    1    1    2    0    0  0.22814709467E-02  0.54408386699E-02  0.52261229189E+00  0.52264559260E+00  0.00000000000E+00 0. -1.
</event>
<event>
 5   1  0.2192208E+09  0.9118800E+02  0.7818608E-02  0.1180000E+00
       11   -1    0    0    0    0  0.00000000000E+00  0.00000000000E+00  0.10559998763E+01  0.10560000000E+01  0.51109989000E-03 0. -1.
     -623   -1    0    0    0    0  0.00000000000E+00  0.00000000000E+00  0.47855275298E-10  0.17124000000E+03  0.17124000000E+03 0. -1.
       11    1    1    2    0    0 -0.36040474815E-03  0.12979310429E-02  0.97066702708E+00  0.97066809631E+00  0.51109989000E-03 0. -1.
     -623    1    1    2    0    0 -0.96142761509E-05 -0.32978073886E-04  0.11124229329E-04  0.17124000000E+03  0.17124000000E+03 0. -1.
       22    1    1    2    0    0  0.37001902433E-03 -0.12649529689E-02  0.85321727693E-01  0.85331906323E-01  0.00000000000E+00 0.  1.
</event>
<event>
 5   1  0.2192208E+09  0.9118800E+02  0.7818608E-02  0.1180000E+00
       11   -1    0    0    0    0  0.00000000000E+00  0.00000000000E+00  0.10559998763E+01  0.10560000000E+01  0.51109989000E-03 0. -1.
     -623   -1    0    0    0    0  0.00000000000E+00  0.00000000000E+00  0.47855275298E-10  0.17124000000E+03  0.17124000000E+03 0. -1.
       11    1    1    2    0    0  0.27185248741E-02 -0.93363228022E-02  0.91807676608E+00  0.91812840439E+00  0.51109989000E-03 0. -1.
     -623    1    1    2    0    0 -0.32311643577E-02  0.11114377253E-01  0.64324805784E-04  0.17124000039E+03  0.17124000000E+03 0. -1.
       22    1    1    2    0    0  0.51263985352E-03 -0.17780557229E-02  0.13785890636E+00  0.13787132532E+00  0.00000000000E+00 0. -1.
</event>
<event>
 5   1  0.2192208E+09  0.9118800E+02  0.7818608E-02  0.1180000E+00
       11   -1    0    0    0    0  0.00000000000E+00  0.00000000000E+00  0.10559998763E+01  0.10560000000E+01  0.51109989000E-03 0. -1.
     -623   -1    0    0    0    0  0.00000000000E+00  0.00000000000E+00  0.47855275298E-10  0.17124000000E+03  0.17124000000E+03 0.  1.
       11    1    1    2    0    0 -0.29785200600E-02 -0.10620903796E-01  0.68575822713E+00  0.68584712763E+00  0.51109989000E-03 0. -1.
     -623    1    1    2    0    0  0.34321353575E-02  0.15311612839E-01  0.11949624185E-03  0.17124000072E+03  0.17124000000E+03 0.  1.
       22    1    1    2    0    0 -0.45361577716E-03 -0.46907111826E-02  0.37012230055E+00  0.37015230095E+00  0.00000000000E+00 0. -1.
</event>
<event>
 5   1  0.2192208E+09  0.9118800E+02  0.7818608E-02  0.1180000E+00
       11   -1    0    0    0    0  0.00000000000E+00  0.00000000000E+00  0.10559998763E+01  0.10560000000E+01  0.51109989000E-03 0. -1.
     -623   -1    0    0    0    0  0.00000000000E+00  0.00000000000E+00  0.47855275298E-10  0.17124000000E+03  0.17124000000E+03 0.  1.
       11    1    1    2    0    0  0.10120551233E-02 -0.20514427337E-02  0.95098544261E+00  0.95098833113E+00  0.51109989000E-03 0. -1.
     -623    1    1    2    0    0  0.10753432315E-03  0.33524579160E-02  0.16826268549E-04  0.17124000003E+03  0.17124000000E+03 0.  1.
       22    1    1    2    0    0 -0.11195894459E-02 -0.13010151651E-02  0.10499760208E+00  0.10501163061E+00  0.00000000000E+00 0. -1.
</event>
<event>
 5   1  0.2192208E+09  0.9118800E+02  0.7818608E-02  0.1180000E+00
       11   -1    0    0    0    0  0.00000000000E+00  0.00000000000E+00  0.10559998763E+01  0.10560000000E+01  0.51109989000E-03 0.  1.
     -623   -1    0    0    0    0  0.00000000000E+00  0.00000000000E+00  0.47855275298E-10  0.17124000000E+03  0.17124000000E+03 0. -1.
       11    1    1    2    0    0 -0.11878819405E-01 -0.20561102706E-01  0.60358215432E+00  0.60404928899E+00  0.51109989000E-03 0.  1.
     -623    1    1    2    0    0  0.25422578336E-01  0.32035659250E-01  0.82063377269E-03  0.17124000489E+03  0.17124000000E+03 0. -1.
       22    1    1    2    0    0 -0.13543759310E-01 -0.11474557022E-01  0.45159710399E+00  0.45194584101E+00  0.00000000000E+00 0.  1.
</event>
<event>
 5   1  0.2192208E+09  0.9118800E+02  0.7818608E-02  0.1180000E+00
       11   -1    0    0    0    0  0.00000000000E+00  0.00000000000E+00  0.10559998763E+01  0.10560000000E+01  0.51109989000E-03 0. -1.
     -623   -1    0    0    0    0  0.00000000000E+00  0.00000000000E+00  0.47855275298E-10  0.17124000000E+03  0.17124000000E+03 0. -1.
       11    1    1    2    0    0  0.51852682139E-02  0.95406109612E-02  0.90445889091E+00  0.90452421573E+00  0.51109989000E-03 0. -1.
     -623    1    1    2    0    0 -0.55280609669E-02 -0.11413511374E-01  0.77637778708E-04  0.17124000047E+03  0.17124000000E+03 0. -1.
       22    1    1    2    0    0  0.34279340834E-03  0.18729017654E-02  0.15146347285E+00  0.15147543984E+00  0.00000000000E+00 0. -1.
</event>
<event>
 5   1  0.2192208E+09  0.9118800E+02  0.7818608E-02  0.1180000E+00
       11   -1    0    0    0    0  0.00000000000E+00  0.00000000000E+00  0.10559998763E+01  0.10560000000E+01  0.51109989000E-03 0. -1.
     -623   -1    0    0    0    0  0.00000000000E+00  0.00000000000E+00  0.47855275298E-10  0.17124000000E+03  0.17124000000E+03 0.  1.
       11    1    1    2    0    0  0.50226759340E-02 -0.94418107050E-02  0.63810930862E+00  0.63819912726E+00  0.51109989000E-03 0. -1.
     -623    1    1    2    0    0 -0.66801459893E-02  0.15413092541E-01  0.13648061994E-03  0.17124000082E+03  0.17124000000E+03 0.  1.
       22    1    1    2    0    0  0.16574708521E-02 -0.59712836745E-02  0.41775421306E+00  0.41780017469E+00  0.00000000000E+00 0. -1.
</event>
<event>
 5   1  0.2192208E+09  0.9118800E+02  0.7818608E-02  0.1180000E+00
       11   -1    0    0    0    0  0.00000000000E+00  0.00000000000E+00  0.10559998763E+01  0.10560000000E+01  0.51109989000E-03 0.  1.
     -623   -1    0    0    0    0  0.00000000000E+00  0.00000000000E+00  0.47855275298E-10  0.17124000000E+03  0.17124000000E+03 0.  1.
       11    1    1    2    0    0 -0.10699585455E-01 -0.98722243387E-02  0.93281369070E+00  0.93292742736E+00  0.51109989000E-03 0.  1.
     -623    1    1    2    0    0  0.12009648155E-01  0.11181030765E-01  0.12833189240E-03  0.17124000079E+03  0.17124000000E+03 0.  1.
       22    1    1    2    0    0 -0.13100752392E-02 -0.13088181010E-02  0.12305895627E+00  0.12307288905E+00  0.00000000000E+00 0. -1.
</event>
<event>
 5   1  0.2192208E+09  0.9118800E+02  0.7818608E-02  0.1180000E+00
       11   -1    0    0    0    0  0.00000000000E+00  0.00000000000E+00  0.10559998763E+01  0.10560000000E+01  0.51109989000E-03 0.  1.
     -623   -1    0    0    0    0  0.00000000000E+00  0.00000000000E+00  0.47855275298E-10  0.17124000000E+03  0.17124000000E+03 0. -1.
       11    1    1    2    0    0  0.68438478975E-02  0.13711548680E-01  0.10025328141E+01  0.10026500633E+01  0.51109989000E-03 0.  1.
     -623    1    1    2    0    0 -0.72621880799E-02 -0.14507720451E-01  0.12547584182E-03  0.17124000077E+03  0.17124000000E+03 0. -1.
       22    1    1    2    0    0  0.41835510636E-03  0.79620158453E-03  0.53343756247E-01  0.53351338207E-01  0.00000000000E+00 0. -1.
</event>
<event>
 5   1  0.2192208E+09  0.9118800E+02  0.7818608E-02  0.1180000E+00
       11   -1    0    0    0    0  0.00000000000E+00  0.00000000000E+00  0.10559998763E+01  0.10560000000E+01  0.51109989000E-03 0.  1.
     -623   -1    0    0    0    0  0.00000000000E+00  0.00000000000E+00  0.47855275298E-10  0.17124000000E+03  0.17124000000E+03 0.  1.
       11    1    1    2    0    0  0.40350233204E-02 -0.11759609162E-01  0.87850716559E+00  0.87859528284E+00  0.51109989000E-03 0.  1.
     -623    1    1    2    0    0 -0.54101800248E-02  0.13786724540E-01  0.10554617415E-03  0.17124000064E+03  0.17124000000E+03 0.  1.
       22    1    1    2    0    0  0.13751558503E-02 -0.20271132023E-02  0.17738699791E+00  0.17740390996E+00  0.00000000000E+00 0. -1.
</event>
<event>
 5   1  0.2192208E+09  0.9118800E+02  0.7818608E-02  0.1180000E+00
       11   -1    0    0    0    0  0.00000000000E+00  0.00000000000E+00  0.10559998763E+01  0.10560000000E+01  0.51109989000E-03 0. -1.
     -623   -1    0    0    0    0  0.00000000000E+00  0.00000000000E+00  0.47855275298E-10  0.17124000000E+03  0.17124000000E+03 0.  1.
       11    1    1    2    0    0 -0.51236145031E-02 -0.19669604488E-01  0.96221810265E+00  0.96243289795E+00  0.51109989000E-03 0. -1.
     -623    1    1    2    0    0  0.49871948654E-02  0.20964912962E-01  0.22509371142E-03  0.17124000136E+03  0.17124000000E+03 0.  1.
       22    1    1    2    0    0  0.13642002063E-03 -0.12953068643E-02  0.93556598951E-01  0.93565664843E-01  0.00000000000E+00 0. -1.
</event>
<event>
 5   1  0.2192208E+09  0.9118800E+02  0.7818608E-02  0.1180000E+00
       11   -1    0    0    0    0  0.00000000000E+00  0.00000000000E+00  0.10559998763E+01  0.10560000000E+01  0.51109989000E-03 0.  1.
     -623   -1    0    0    0    0  0.00000000000E+00  0.00000000000E+00  0.47855275298E-10  0.17124000000E+03  0.17124000000E+03 0.  1.
       11    1    1    2    0    0  0.36854383639E-02 -0.15314594002E-02  0.66153925291E+00  0.66155148869E+00  0.51109989000E-03 0.  1.
     -623    1    1    2    0    0 -0.19047970304E-02  0.77353038964E-02  0.65106860285E-04  0.17124000019E+03  0.17124000000E+03 0.  1.
       22    1    1    2    0    0 -0.17806413366E-02 -0.62038444837E-02  0.39439551489E+00  0.39444832429E+00  0.00000000000E+00 0.  1.
</event>
<event>
 5   1  0.2192208E+09  0.9118800E+02  0.7818608E-02  0.1180000E+00
       11   -1    0    0    0    0  0.00000000000E+00  0.00000000000E+00  0.10559998763E+01  0.10560000000E+01  0.51109989000E-03 0.  1.
     -623   -1    0    0    0    0  0.00000000000E+00  0.00000000000E+00  0.47855275298E-10  0.17124000000E+03  0.17124000000E+03 0. -1.
       11    1    1    2    0    0 -0.61892052127E-02 -0.93949605120E-02  0.37015404519E+00  0.37032532987E+00  0.51109989000E-03 0.  1.
     -623    1    1    2    0    0 -0.34999459359E-02 -0.30275689221E-03  0.30824788673E-03  0.17124000004E+03  0.17124000000E+03 0. -1.
       22    1    1    2    0    0  0.96891511484E-02  0.96977174042E-02  0.68553758325E+00  0.68567463378E+00  0.00000000000E+00 0.  1.
</event>
<event>
 5   1  0.2192208E+09  0.9118800E+02  0.7818608E-02  0.1180000E+00
       11   -1    0    0    0    0  0.00000000000E+00  0.00000000000E+00  0.10559998763E+01  0.10560000000E+01  0.51109989000E-03 0.  1.
     -623   -1    0    0    0    0  0.00000000000E+00  0.00000000000E+00  0.47855275298E-10  0.17124000000E+03  0.17124000000E+03 0. -1.
       11    1    1    2    0    0  0.84831596975E-02  0.20061891465E-01  0.81104820601E+00  0.81134080212E+00  0.51109989000E-03 0.  1.
     -623    1    1    2    0    0 -0.10624010489E-01 -0.26233923085E-01  0.38204604775E-03  0.17124000234E+03  0.17124000000E+03 0. -1.
       22    1    1    2    0    0  0.21408453492E-02  0.61720181801E-02  0.24456908352E+00  0.24465631740E+00  0.00000000000E+00 0. -1.
</event>
<event>
 5   1  0.2192208E+09  0.9118800E+02  0.7818608E-02  0.1180000E+00
       11   -1    0    0    0    0  0.00000000000E+00  0.00000000000E+00  0.10559998763E+01  0.10560000000E+01  0.51109989000E-03 0.  1.
     -623   -1    0    0    0    0  0.00000000000E+00  0.00000000000E+00  0.47855275298E-10  0.17124000000E+03  0.17124000000E+03 0.  1.
       11    1    1    2    0    0  0.63267980761E-02 -0.82997455256E-02  0.80837157211E+00  0.80843909725E+00  0.51109989000E-03 0.  1.
     -623    1    1    2    0    0 -0.86814669778E-02  0.11149356207E-01  0.95584923685E-04  0.17124000058E+03  0.17124000000E+03 0.  1.
       22    1    1    2    0    0  0.23546718624E-02 -0.28496144836E-02  0.24753307943E+00  0.24756067982E+00  0.00000000000E+00 0. -1.
</event>
<event>
 5   1  0.3290978E+09  0.9118800E+02  0.7818608E-02  0.1180000E+00
       11   -1    0    0    0    0  0.00000000000E+00  0.00000000000E+00  0.10559998763E+01  0.10560000000E+01  0.51109989000E-03 0.  1.
     -623   -1    0    0    0    0  0.00000000000E+00  0.00000000000E+00  0.47855275298E-10  0.17124000000E+03  0.17124000000E+03 0. -1.
       11    1    1    2    0    0 -0.47168474023E-01  0.56804070969E-01  0.97941377118E+00  0.98219303796E+00  0.51109989000E-03 0.  1.
     -623    1    1    2    0    0  0.48464013857E-01 -0.63599671572E-01  0.31228530685E-02  0.17124001870E+03  0.17124000000E+03 0. -1.
       22    1    1    2    0    0 -0.12955399368E-02  0.67956007389E-02  0.73463254363E-01  0.73788267053E-01  0.00000000000E+00 0. -1.
</event>
<event>
 5   1  0.2192208E+09  0.9118800E+02  0.7818608E-02  0.1180000E+00
       11   -1    0    0    0    0  0.00000000000E+00  0.00000000000E+00  0.10559998763E+01  0.10560000000E+01  0.51109989000E-03 0. -1.
     -623   -1    0    0    0    0  0.00000000000E+00  0.00000000000E+00  0.47855275298E-10  0.17124000000E+03  0.17124000000E+03 0. -1.
       11    1    1    2    0    0  0.28565867754E-02 -0.54439028842E-02  0.72500941439E+00  0.72503566005E+00  0.51109989000E-03 0. -1.
     -623    1    1    2    0    0 -0.46646017257E-02  0.90407209521E-02  0.50908174133E-04  0.17124000030E+03  0.17124000000E+03 0. -1.
       22    1    1    2    0    0  0.18080145517E-02 -0.35968172955E-02  0.33093946358E+00  0.33096394753E+00  0.00000000000E+00 0. -1.
</event>
<event>
 5   1  0.2192208E+09  0.9118800E+02  0.7818608E-02  0.1180000E+00
       11   -1    0    0    0    0  0.00000000000E+00  0.00000000000E+00  0.10559998763E+01  0.10560000000E+01  0.51109989000E-03 0. -1.
     -623   -1    0    0    0    0  0.00000000000E+00  0.00000000000E+00  0.47855275298E-10  0.17124000000E+03  0.17124000000E+03 0.  1.
       11    1    1    2    0    0  0.35607876198E-02 -0.21816387711E-02  0.69070933284E+00  0.69072214562E+00  0.51109989000E-03 0. -1.
     -623    1    1    2    0    0 -0.80534219105E-02  0.11121543841E-01  0.15029239920E-03  0.17124000055E+03  0.17124000000E+03 0.  1.
       22    1    1    2    0    0  0.44926342457E-02 -0.89399050078E-02  0.36514024523E+00  0.36527729788E+00  0.00000000000E+00 0. -1.
</event>
<event>
 5   1  0.2192208E+09  0.9118800E+02  0.7818608E-02  0.1180000E+00
       11   -1    0    0    0    0  0.00000000000E+00  0.00000000000E+00  0.10559998763E+01  0.10560000000E+01  0.51109989000E-03 0. -1.
     -623   -1    0    0    0    0  0.00000000000E+00  0.00000000000E+00  0.47855275298E-10  0.17124000000E+03  0.17124000000E+03 0. -1.
       11    1    1    2    0    0  0.15025112910E-02  0.34970220868E-02  0.75077649256E+00  0.75078631428E+00  0.51109989000E-03 0. -1.
     -623    1    1    2    0    0 -0.24610112574E-05  0.77048313304E-04  0.34311572761E-04  0.17124000000E+03  0.17124000000E+03 0. -1.
       22    1    1    2    0    0 -0.15000502797E-02 -0.35740703998E-02  0.30518906794E+00  0.30521368141E+00  0.00000000000E+00 0.  1.
</event>
<event>
 5   1  0.2192208E+09  0.9118800E+02  0.7818608E-02  0.1180000E+00
       11   -1    0    0    0    0  0.00000000000E+00  0.00000000000E+00  0.10559998763E+01  0.10560000000E+01  0.51109989000E-03 0. -1.
     -623   -1    0    0    0    0  0.00000000000E+00  0.00000000000E+00  0.47855275298E-10  0.17124000000E+03  0.17124000000E+03 0.  1.
       11    1    1    2    0    0 -0.19164708368E-02  0.64268529472E-02  0.36746800061E+00  0.36752954982E+00  0.51109989000E-03 0. -1.
     -623    1    1    2    0    0  0.73163942865E-02 -0.14177797322E-01  0.12697962637E-03  0.17124000074E+03  0.17124000000E+03 0.  1.
       22    1    1    2    0    0 -0.53999234051E-02  0.77509442880E-02  0.68840488968E+00  0.68846970045E+00  0.00000000000E+00 0.  1.
</event>
<event>
 5   1  0.2192208E+09  0.9118800E+02  0.7818608E-02  0.1180000E+00
       11   -1    0    0    0    0  0.00000000000E+00  0.00000000000E+00  0.10559998763E+01  0.10560000000E+01  0.51109989000E-03 0.  1.
     -623   -1    0    0    0    0  0.00000000000E+00  0.00000000000E+00  0.47855275298E-10  0.17124000000E+03  0.17124000000E+03 0.  1.
       11    1    1    2    0    0  0.34682745813E-02  0.35471781525E-04  0.96163110839E+00  0.96163749929E+00  0.51109989000E-03 0.  1.
     -623    1    1    2    0    0 -0.37473538119E-02 -0.12781013789E-02  0.14908011254E-04  0.17124000005E+03  0.17124000000E+03 0.  1.
       22    1    1    2    0    0  0.27907942647E-03  0.12426296642E-02  0.94353915167E-01  0.94362510147E-01  0.00000000000E+00 0. -1.
</event>
<event>
 5   1  0.2192208E+09  0.9118800E+02  0.7818608E-02  0.1180000E+00
       11   -1    0    0    0    0  0.00000000000E+00  0.00000000000E+00  0.10559998763E+01  0.10560000000E+01  0.51109989000E-03 0. -1.
     -623   -1    0    0    0    0  0.00000000000E+00  0.00000000000E+00  0.47855275298E-10  0.17124000000E+03  0.17124000000E+03 0.  1.
       11    1    1    2    0    0  0.52361249176E-02 -0.11015849053E-01  0.84334005462E+00  0.84342840531E+00  0.51109989000E-03 0. -1.
     -623    1    1    2    0    0 -0.69985256818E-02  0.13794133584E-01  0.11438912775E-03  0.17124000070E+03  0.17124000000E+03 0.  1.
       22    1    1    2    0    0  0.17624011252E-02 -0.27782852422E-02  0.21254548707E+00  0.21257095051E+00  0.00000000000E+00 0.  1.
</event>
<event>
 5   1  0.2192208E+09  0.9118800E+02  0.7818608E-02  0.1180000E+00
       11   -1    0    0    0    0  0.00000000000E+00  0.00000000000E+00  0.10559998763E+01  0.10560000000E+01  0.51109989000E-03 0.  1.
     -623   -1    0    0    0    0  0.00000000000E+00  0.00000000000E+00  0.47855275298E-10  0.17124000000E+03  0.17124000000E+03 0. -1.
       11    1    1    2    0    0 -0.90240616129E-02 -0.12685343718E-01  0.94667753915E+00  0.94680566960E+00  0.51109989000E-03 0.  1.
     -623    1    1    2    0    0  0.96820451072E-02  0.14023643229E-01  0.13903899313E-03  0.17124000085E+03  0.17124000000E+03 0. -1.
       22    1    1    2    0    0 -0.65798381495E-03 -0.13382999750E-02  0.10918333318E+00  0.10919351737E+00  0.00000000000E+00 0.  1.
</event>
<event>
 5   1  0.2192208E+09  0.9118800E+02  0.7818608E-02  0.1180000E+00
       11   -1    0    0    0    0  0.00000000000E+00  0.00000000000E+00  0.10559998763E+01  0.10560000000E+01  0.51109989000E-03 0. -1.
     -623   -1    0    0    0    0  0.00000000000E+00  0.00000000000E+00  0.47855275298E-10  0.17124000000E+03  0.17124000000E+03 0.  1.
       11    1    1    2    0    0 -0.66086022660E-05 -0.49373236906E-02  0.91733948847E+00  0.91735291766E+00  0.51109989000E-03 0. -1.
     -623    1    1    2    0    0 -0.37664836240E-03  0.63780526304E-02  0.21440248253E-04  0.17124000012E+03  0.17124000000E+03 0.  1.
       22    1    1    2    0    0  0.38325699759E-03 -0.14407294973E-02  0.13863903995E+00  0.13864705545E+00  0.00000000000E+00 0.  1.
</event>
<event>
 5   1  0.2192208E+09  0.9118800E+02  0.7818608E-02  0.1180000E+00
       11   -1    0    0    0    0  0.00000000000E+00  0.00000000000E+00  0.10559998763E+01  0.10560000000E+01  0.51109989000E-03 0.  1.
     -623   -1    0    0    0    0  0.00000000000E+00  0.00000000000E+00  0.47855275298E-10  0.17124000000E+03  0.17124000000E+03 0. -1.
       11    1    1    2    0    0 -0.40991669719E-02 -0.31395613607E-01  0.55839205379E+00  0.55928922274E+00  0.51109989000E-03 0.  1.
     -623    1    1    2    0    0 -0.19746456118E-01 -0.15900543251E-02  0.25686617982E-02  0.17124000117E+03  0.17124000000E+03 0. -1.
       22    1    1    2    0    0  0.23845623090E-01  0.32985667932E-01  0.49503916078E+00  0.49670961208E+00  0.00000000000E+00 0. -1.
</event>
<event>
 5   1  0.2192208E+09  0.9118800E+02  0.7818608E-02  0.1180000E+00
       11   -1    0    0    0    0  0.00000000000E+00  0.00000000000E+00  0.10559998763E+01  0.10560000000E+01  0.51109989000E-03 0.  1.
     -623   -1    0    0    0    0  0.00000000000E+00  0.00000000000E+00  0.47855275298E-10  0.17124000000E+03  0.17124000000E+03 0. -1.
       11    1    1    2    0    0  0.30505035424E-02 -0.19525867575E-02  0.91329597050E+00  0.91330329526E+00  0.51109989000E-03 0.  1.
     -623    1    1    2    0    0 -0.22618146933E-04 -0.51969298153E-03  0.60752997821E-04  0.17124000000E+03  0.17124000000E+03 0. -1.
       22    1    1    2    0    0 -0.30278853956E-02  0.24722797373E-02  0.14264314945E+00  0.14269670052E+00  0.00000000000E+00 0. -1.
</event>
<event>
 5   1  0.2192208E+09  0.9118800E+02  0.7818608E-02  0.1180000E+00
       11   -1    0    0    0    0  0.00000000000E+00  0.00000000000E+00  0.10559998763E+01  0.10560000000E+01  0.51109989000E-03 0.  1.
     -623   -1    0    0    0    0  0.00000000000E+00  0.00000000000E+00  0.47855275298E-10  0.17124000000E+03  0.17124000000E+03 0. -1.
       11    1    1    2    0    0  0.42798211185E-02 -0.57657243028E-02  0.28226155495E+00  0.28235333728E+00  0.51109989000E-03 0.  1.
     -623    1    1    2    0    0 -0.11727509111E-01  0.19466505994E-01  0.25034763420E-03  0.17124000151E+03  0.17124000000E+03 0. -1.
       22    1    1    2    0    0  0.74476889609E-02 -0.13700783299E-01  0.77348806097E+00  0.77364524169E+00  0.00000000000E+00 0.  1.
</event>
<event>
 5   1  0.2192208E+09  0.9118800E+02  0.7818608E-02  0.1180000E+00
       11   -1    0    0    0    0  0.00000000000E+00  0.00000000000E+00  0.10559998763E+01  0.10560000000E+01  0.51109989000E-03 0. -1.
     -623   -1    0    0    0    0  0.00000000000E+00  0.00000000000E+00  0.47855275298E-10  0.17124000000E+03  0.17124000000E+03 0. -1.
       11    1    1    2    0    0 -0.18418908000E-02  0.21766566021E-01  0.91733254742E+00  0.91759274177E+00  0.51109989000E-03 0. -1.
     -623    1    1    2    0    0  0.52576799759E-02 -0.24799820728E-01  0.33735625524E-03  0.17124000188E+03  0.17124000000E+03 0. -1.
       22    1    1    2    0    0 -0.34157892226E-02  0.30332549281E-02  0.13832998208E+00  0.13840539077E+00  0.00000000000E+00 0. -1.
</event>
<event>
 5   1  0.2192208E+09  0.9118800E+02  0.7818608E-02  0.1180000E+00
       11   -1    0    0    0    0  0.00000000000E+00  0.00000000000E+00  0.10559998763E+01  0.10560000000E+01  0.51109989000E-03 0. -1.
     -623   -1    0    0    0    0  0.00000000000E+00  0.00000000000E+00  0.47855275298E-10  0.17124000000E+03  0.17124000000E+03 0.  1.
       11    1    1    2    0    0 -0.36244813343E-02  0.15943375369E-01  0.97008460832E+00  0.97022251912E+00  0.51109989000E-03 0. -1.
     -623    1    1    2    0    0  0.39180489207E-02 -0.17431545512E-01  0.15213211195E-03  0.17124000093E+03  0.17124000000E+03 0.  1.
       22    1    1    2    0    0 -0.29356701179E-03  0.14881675864E-02  0.85762981097E-01  0.85776393903E-01  0.00000000000E+00 0. -1.
</event>
<event>
 5   1  0.2192208E+09  0.9118800E+02  0.7818608E-02  0.1180000E+00
       11   -1    0    0    0    0  0.00000000000E+00  0.00000000000E+00  0.10559998763E+01  0.10560000000E+01  0.51109989000E-03 0.  1.
     -623   -1    0    0    0    0  0.00000000000E+00  0.00000000000E+00  0.47855275298E-10  0.17124000000E+03  0.17124000000E+03 0.  1.
       11    1    1    2    0    0  0.22068228367E-02  0.80611186878E-03  0.69880387502E+00  0.69880801144E+00  0.51109989000E-03 0.  1.
     -623    1    1    2    0    0 -0.17932836342E-02 -0.44496828194E-02  0.22903169133E-04  0.17124000007E+03  0.17124000000E+03 0.  1.
       22    1    1    2    0    0 -0.41353923299E-03  0.36435708751E-02  0.35717308027E+00  0.35719190345E+00  0.00000000000E+00 0.  1.
</event>
<event>
 5   1  0.2192208E+09  0.9118800E+02  0.7818608E-02  0.1180000E+00
       11   -1    0    0    0    0  0.00000000000E+00  0.00000000000E+00  0.10559998763E+01  0.10560000000E+01  0.51109989000E-03 0. -1.
     -623   -1    0    0    0    0  0.00000000000E+00  0.00000000000E+00  0.47855275298E-10  0.17124000000E+03  0.17124000000E+03 0. -1.
       11    1    1    2    0    0  0.27924212370E-02 -0.12140362883E-02  0.99899215102E+00  0.99899692218E+00  0.51109989000E-03 0. -1.
     -623    1    1    2    0    0 -0.33514652561E-02  0.54243223601E-03  0.11379306137E-04  0.17124000003E+03  0.17124000000E+03 0. -1.
       22    1    1    2    0    0  0.55904395689E-03  0.67160406231E-03  0.56996326443E-01  0.57003024570E-01  0.00000000000E+00 0.  1.
</event>
<event>
 5   1  0.2192208E+09  0.9118800E+02  0.7818608E-02  0.1180000E+00
       11   -1    0    0    0    0  0.00000000000E+00  0.00000000000E+00  0.10559998763E+01  0.10560000000E+01  0.51109989000E-03 0.  1.
     -623   -1    0    0    0    0  0.00000000000E+00  0.00000000000E+00  0.47855275298E-10  0.17124000000E+03  0.17124000000E+03 0. -1.
       11    1    1    2    0    0 -0.22717575416E-04 -0.11036681340E-02  0.98589716144E+00  0.98589791193E+00  0.51109989000E-03 0.  1.
     -623    1    1    2    0    0 -0.22890449330E-03  0.33427327982E-03  0.53012588670E-05  0.17124000000E+03  0.17124000000E+03 0. -1.
       22    1    1    2    0    0  0.25162208265E-03  0.76939483381E-03  0.70097477958E-01  0.70102151879E-01  0.00000000000E+00 0.  1.
</event>
<event>
 5   1  0.2192208E+09  0.9118800E+02  0.7818608E-02  0.1180000E+00
       11   -1    0    0    0    0  0.00000000000E+00  0.00000000000E+00  0.10559998763E+01  0.10560000000E+01  0.51109989000E-03 0. -1.
     -623   -1    0    0    0    0  0.00000000000E+00  0.00000000000E+00  0.47855275298E-10  0.17124000000E+03  0.17124000000E+03 0.  1.
       11    1    1    2    0    0  0.13675565906E-02  0.78562846982E-02  0.96845135975E+00  0.96848432556E+00  0.51109989000E-03 0. -1.
     -623    1    1    2    0    0 -0.91525850746E-03 -0.89826073480E-02  0.41497287873E-04  0.17124000024E+03  0.17124000000E+03 0.  1.
       22    1    1    2    0    0 -0.45229814434E-03  0.11263220491E-02  0.87506948700E-01  0.87515365769E-01  0.00000000000E+00 0.  1.
</event>
<event>
 5   1  0.2192208E+09  0.9118800E+02  0.7818608E-02  0.1180000E+00
       11   -1    0    0    0    0  0.00000000000E+00  0.00000000000E+00  0.10559998763E+01  0.10560000000E+01  0.51109989000E-03 0.  1.
     -623   -1    0    0    0    0  0.00000000000E+00  0.00000000000E+00  0.47855275298E-10  0.17124000000E+03  0.17124000000E+03 0. -1.
       11    1    1    2    0    0  0.17317913493E-02 -0.90861034535E-02  0.97850776778E+00  0.97855161806E+00  0.51109989000E-03 0.  1.
     -623    1    1    2    0    0 -0.18503642835E-02  0.99283884211E-02  0.48695503146E-04  0.17124000030E+03  0.17124000000E+03 0. -1.
       22    1    1    2    0    0  0.11857096475E-03 -0.84227440027E-03  0.77442289177E-01  0.77446960162E-01  0.00000000000E+00 0.  1.
</event>
<event>
 5   1  0.2192208E+09  0.9118800E+02  0.7818608E-02  0.1180000E+00
       11   -1    0    0    0    0  0.00000000000E+00  0.00000000000E+00  0.10559998763E+01  0.10560000000E+01  0.51109989000E-03 0.  1.
     -623   -1    0    0    0    0  0.00000000000E+00  0.00000000000E+00  0.47855275298E-10  0.17124000000E+03  0.17124000000E+03 0. -1.
       11    1    1    2    0    0 -0.58312485887E-02  0.10615557620E-02  0.99193516848E+00  0.99195300799E+00  0.51109989000E-03 0.  1.
     -623    1    1    2    0    0  0.47557728764E-02 -0.20061594743E-02  0.33791151794E-04  0.17124000008E+03  0.17124000000E+03 0. -1.
       22    1    1    2    0    0  0.10754756514E-02  0.94460373790E-03  0.64030930230E-01  0.64046927719E-01  0.00000000000E+00 0.  1.
</event>
<event>
 5   1  0.2192208E+09  0.9118800E+02  0.7818608E-02  0.1180000E+00
       11   -1    0    0    0    0  0.00000000000E+00  0.00000000000E+00  0.10559998763E+01  0.10560000000E+01  0.51109989000E-03 0. -1.
     -623   -1    0    0    0    0  0.00000000000E+00  0.00000000000E+00  0.47855275298E-10  0.17124000000E+03  0.17124000000E+03 0. -1.
       11    1    1    2    0    0  0.10480459947E-02 -0.11198012852E-01  0.85373962888E+00  0.85381386088E+00  0.51109989000E-03 0. -1.
     -623    1    1    2    0    0 -0.11565424027E-02  0.13312014145E-01  0.85710869247E-04  0.17124000052E+03  0.17124000000E+03 0. -1.
       22    1    1    2    0    0  0.10849576745E-03 -0.21139939197E-02  0.20217395178E+00  0.20218503288E+00  0.00000000000E+00 0. -1.
</event>
<event>
 5   1  0.2192208E+09  0.9118800E+02  0.7818608E-02  0.1180000E+00
       11   -1    0    0    0    0  0.00000000000E+00  0.00000000000E+00  0.10559998763E+01  0.10560000000E+01  0.51109989000E-03 0.  1.
     -623   -1    0    0    0    0  0.00000000000E+00  0.00000000000E+00  0.47855275298E-10  0.17124000000E+03  0.17124000000E+03 0. -1.
       11    1    1    2    0    0  0.24419306104E-02 -0.30639596514E-02  0.98895791896E+00  0.98896581214E+00  0.51109989000E-03 0.  1.
     -623    1    1    2    0    0 -0.16637754894E-02  0.20966069736E-02  0.19287792236E-04  0.17124000002E+03  0.17124000000E+03 0. -1.
       22    1    1    2    0    0 -0.77815511507E-03  0.96735267036E-03  0.67022673342E-01  0.67034170678E-01  0.00000000000E+00 0. -1.
</event>
<event>
 5   1  0.2192208E+09  0.9118800E+02  0.7818608E-02  0.1180000E+00
       11   -1    0    0    0    0  0.00000000000E+00  0.00000000000E+00  0.10559998763E+01  0.10560000000E+01  0.51109989000E-03 0.  1.
     -623   -1    0    0    0    0  0.00000000000E+00  0.00000000000E+00  0.47855275298E-10  0.17124000000E+03  0.17124000000E+03 0.  1.
       11    1    1    2    0    0  0.82484525550E-03  0.17622486182E-02  0.99474309158E+00  0.99474512583E+00  0.51109989000E-03 0.  1.
     -623    1    1    2    0    0 -0.34864791686E-03 -0.60792300383E-03  0.14640782620E-04  0.17124000000E+03  0.17124000000E+03 0.  1.
       22    1    1    2    0    0 -0.47619734697E-03 -0.11543256289E-02  0.61242118800E-01  0.61254847537E-01  0.00000000000E+00 0. -1.
</event>
<event>
 5   1  0.2192208E+09  0.9118800E+02  0.7818608E-02  0.1180000E+00
       11   -1    0    0    0    0  0.00000000000E+00  0.00000000000E+00  0.10559998763E+01  0.10560000000E+01  0.51109989000E-03 0.  1.
     -623   -1    0    0    0    0  0.00000000000E+00  0.00000000000E+00  0.47855275298E-10  0.17124000000E+03  0.17124000000E+03 0.  1.
       11    1    1    2    0    0 -0.14448618207E-02 -0.65202246770E-03  0.98384055322E+00  0.98384196299E+00  0.51109989000E-03 0.  1.
     -623    1    1    2    0    0  0.24899063511E-03 -0.11733965872E-03  0.15298802849E-04  0.17124000000E+03  0.17124000000E+03 0.  1.
       22    1    1    2    0    0  0.11958711776E-02  0.76936213022E-03  0.72144058472E-01  0.72158070919E-01  0.00000000000E+00 0. -1.
</event>
<event>
 5   1  0.2192208E+09  0.9118800E+02  0.7818608E-02  0.1180000E+00
       11   -1    0    0    0    0  0.00000000000E+00  0.00000000000E+00  0.10559998763E+01  0.10560000000E+01  0.51109989000E-03 0.  1.
     -623   -1    0    0    0    0  0.00000000000E+00  0.00000000000E+00  0.47855275298E-10  0.17124000000E+03  0.17124000000E+03 0. -1.
       11    1    1    2    0    0  0.52965085612E-03 -0.24751824898E-02  0.96838143837E+00  0.96838488137E+00  0.51109989000E-03 0.  1.
     -623    1    1    2    0    0 -0.63101155128E-03  0.37612889192E-02  0.12860392864E-04  0.17124000004E+03  0.17124000000E+03 0. -1.
       22    1    1    2    0    0  0.10136068024E-03 -0.12861063404E-02  0.87605552623E-01  0.87615051184E-01  0.00000000000E+00 0.  1.
</event>
<event>
 5   1  0.2192208E+09  0.9118800E+02  0.7818608E-02  0.1180000E+00
       11   -1    0    0    0    0  0.00000000000E+00  0.00000000000E+00  0.10559998763E+01  0.10560000000E+01  0.51109989000E-03 0. -1.
     -623   -1    0    0    0    0  0.00000000000E+00  0.00000000000E+00  0.47855275298E-10  0.17124000000E+03  0.17124000000E+03 0. -1.
       11    1    1    2    0    0  0.13382532082E-01  0.16803337801E-01  0.61873568751E+00  0.61910867911E+00  0.51109989000E-03 0. -1.
     -623    1    1    2    0    0 -0.22380685731E-01 -0.28666175949E-01  0.63052425759E-03  0.17124000386E+03  0.17124000000E+03 0. -1.
       22    1    1    2    0    0  0.89981881580E-02  0.11862882347E-01  0.43663529184E+00  0.43688908598E+00  0.00000000000E+00 0. -1.
</event>
<event>
 5   1  0.2192208E+09  0.9118800E+02  0.7818608E-02  0.1180000E+00
       11   -1    0    0    0    0  0.00000000000E+00  0.00000000000E+00  0.10559998763E+01  0.10560000000E+01  0.51109989000E-03 0. -1.
     -623   -1    0    0    0    0  0.00000000000E+00  0.00000000000E+00  0.47855275298E-10  0.17124000000E+03  0.17124000000E+03 0.  1.
       11    1    1    2    0    0 -0.14754056117E-01 -0.10152947657E-01  0.83636487747E+00  0.83655677273E+00  0.51109989000E-03 0. -1.
     -623    1    1    2    0    0  0.18579912526E-01  0.14758402127E-02  0.39778663107E-03  0.17124000101E+03  0.17124000000E+03 0.  1.
       22    1    1    2    0    0 -0.38258564161E-02  0.86771074440E-02  0.21923721266E+00  0.21944221286E+00  0.00000000000E+00 0. -1.
</event>
<event>
 5   1  0.2192208E+09  0.9118800E+02  0.7818608E-02  0.1180000E+00
       11   -1    0    0    0    0  0.00000000000E+00  0.00000000000E+00  0.10559998763E+01  0.10560000000E+01  0.51109989000E-03 0.  1.
     -623   -1    0    0    0    0  0.00000000000E+00  0.00000000000E+00  0.47855275298E-10  0.17124000000E+03  0.17124000000E+03 0.  1.
       11    1    1    2    0    0 -0.18570631664E-02 -0.36524798337E-02  0.93111807533E+00  0.93112723122E+00  0.51109989000E-03 0.  1.
     -623    1    1    2    0    0  0.11956461058E-03  0.94223337328E-03  0.50541382548E-04  0.17124000000E+03  0.17124000000E+03 0.  1.
       22    1    1    2    0    0  0.17374985555E-02  0.27102464578E-02  0.12483126268E+00  0.12487276916E+00  0.00000000000E+00 0.  1.
</event>
<event>
 5   1  0.2192208E+09  0.9118800E+02  0.7818608E-02  0.1180000E+00
       11   -1    0    0    0    0  0.00000000000E+00  0.00000000000E+00  0.10559998763E+01  0.10560000000E+01  0.51109989000E-03 0. -1.
     -623   -1    0    0    0    0  0.00000000000E+00  0.00000000000E+00  0.47855275298E-10  0.17124000000E+03  0.17124000000E+03 0. -1.
       11    1    1    2    0    0  0.73531135884E-03 -0.52069216583E-02  0.38517880576E+00  0.38521503910E+00  0.51109989000E-03 0. -1.
     -623    1    1    2    0    0 -0.66187438692E-02  0.12435842796E-01  0.10144642888E-03  0.17124000058E+03  0.17124000000E+03 0. -1.
       22    1    1    2    0    0  0.58834325616E-02 -0.72289212343E-02  0.67071963236E+00  0.67078438959E+00  0.00000000000E+00 0.  1.
</event>
<event>
 5   1  0.2192208E+09  0.9118800E+02  0.7818608E-02  0.1180000E+00
       11   -1    0    0    0    0  0.00000000000E+00  0.00000000000E+00  0.10559998763E+01  0.10560000000E+01  0.51109989000E-03 0. -1.
     -623   -1    0    0    0    0  0.00000000000E+00  0.00000000000E+00  0.47855275298E-10  0.17124000000E+03  0.17124000000E+03 0.  1.
       11    1    1    2    0    0 -0.13335313824E-02  0.55743398173E-02  0.81831338034E+00  0.81833361243E+00  0.51109989000E-03 0. -1.
     -623    1    1    2    0    0  0.26777844090E-02 -0.87819206610E-02  0.45802549091E-04  0.17124000025E+03  0.17124000000E+03 0.  1.
       22    1    1    2    0    0 -0.13442531046E-02  0.32075810996E-02  0.23764072425E+00  0.23766617221E+00  0.00000000000E+00 0. -1.
</event>
<event>
 5   1  0.2192208E+09  0.9118800E+02  0.7818608E-02  0.1180000E+00
       11   -1    0    0    0    0  0.00000000000E+00  0.00000000000E+00  0.10559998763E+01  0.10560000000E+01  0.51109989000E-03 0. -1.
     -623   -1    0    0    0    0  0.00000000000E+00  0.00000000000E+00  0.47855275298E-10  0.17124000000E+03  0.17124000000E+03 0. -1.
       11    1    1    2    0    0 -0.23014370560E-02  0.10864724142E-01  0.56753458881E+00  0.56764347046E+00  0.51109989000E-03 0. -1.
     -623    1    1    2    0    0  0.55707594957E-02 -0.18269595648E-01  0.17691081286E-03  0.17124000107E+03  0.17124000000E+03 0. -1.
       22    1    1    2    0    0 -0.32693222753E-02  0.74048709670E-02  0.48828834560E+00  0.48835543309E+00  0.00000000000E+00 0. -1.
</event>
<event>
 5   1  0.2192208E+09  0.9118800E+02  0.7818608E-02  0.1180000E+00
       11   -1    0    0    0    0  0.00000000000E+00  0.00000000000E+00  0.10559998763E+01  0.10560000000E+01  0.51109989000E-03 0. -1.
     -623   -1    0    0    0    0  0.00000000000E+00  0.00000000000E+00  0.47855275298E-10  0.17124000000E+03  0.17124000000E+03 0.  1.
       11    1    1    2    0    0  0.30144323614E-02  0.72241110752E-02  0.76304707373E+00  0.76308739508E+00  0.51109989000E-03 0. -1.
     -623    1    1    2    0    0  0.12089454858E-04 -0.18221796529E-03  0.14049767202E-03  0.17124000000E+03  0.17124000000E+03 0.  1.
       22    1    1    2    0    0 -0.30265218163E-02 -0.70418931094E-02  0.29281230839E+00  0.29291260819E+00  0.00000000000E+00 0.  1.
</event>
<event>
 5   1  0.2192208E+09  0.9118800E+02  0.7818608E-02  0.1180000E+00
       11   -1    0    0    0    0  0.00000000000E+00  0.00000000000E+00  0.10559998763E+01  0.10560000000E+01  0.51109989000E-03 0. -1.
     -623   -1    0    0    0    0  0.00000000000E+00  0.00000000000E+00  0.47855275298E-10  0.17124000000E+03  0.17124000000E+03 0. -1.
       11    1    1    2    0    0 -0.60593883318E-03  0.13966159847E-02  0.93280357158E+00  0.93280495393E+00  0.51109989000E-03 0. -1.
     -623    1    1    2    0    0  0.36040914965E-03 -0.77425351106E-04  0.85670405086E-05  0.17124000000E+03  0.17124000000E+03 0. -1.
       22    1    1    2    0    0  0.24552968036E-03 -0.13191906329E-02  0.12318774704E+00  0.12319505497E+00  0.00000000000E+00 0. -1.
</event>
<event>
 5   1  0.2192208E+09  0.9118800E+02  0.7818608E-02  0.1180000E+00
       11   -1    0    0    0    0  0.00000000000E+00  0.00000000000E+00  0.10559998763E+01  0.10560000000E+01  0.51109989000E-03 0.  1.
     -623   -1    0    0    0    0  0.00000000000E+00  0.00000000000E+00  0.47855275298E-10  0.17124000000E+03  0.17124000000E+03 0. -1.
       11    1    1    2    0    0 -0.18978989568E-02 -0.45052169405E-02  0.75125146239E+00  0.75126754220E+00  0.51109989000E-03 0.  1.
     -623    1    1    2    0    0  0.19788565478E-03  0.10532590016E-02  0.40254039778E-04  0.17124000000E+03  0.17124000000E+03 0. -1.
       22    1    1    2    0    0  0.17000133021E-02  0.34519579393E-02  0.30470815966E+00  0.30473245416E+00  0.00000000000E+00 0.  1.
</event>
<event>
 5   1  0.2192208E+09  0.9118800E+02  0.7818608E-02  0.1180000E+00
       11   -1    0    0    0    0  0.00000000000E+00  0.00000000000E+00  0.10559998763E+01  0.10560000000E+01  0.51109989000E-03 0.  1.
     -623   -1    0    0    0    0  0.00000000000E+00  0.00000000000E+00  0.47855275298E-10  0.17124000000E+03  0.17124000000E+03 0.  1.
       11    1    1    2    0    0 -0.71629503757E-02 -0.32077317636E-02  0.99200344106E+00  0.99203461920E+00  0.51109989000E-03 0.  1.
     -623    1    1    2    0    0  0.51482282115E-02  0.91343619621E-03  0.10405057268E-03  0.17124000008E+03  0.17124000000E+03 0.  1.
       22    1    1    2    0    0  0.20147221675E-02  0.22942955679E-02  0.63892384059E-01  0.63965300268E-01  0.00000000000E+00 0.  1.
</event>
<event>
 5   1  0.2192208E+09  0.9118800E+02  0.7818608E-02  0.1180000E+00
       11   -1    0    0    0    0  0.00000000000E+00  0.00000000000E+00  0.10559998763E+01  0.10560000000E+01  0.51109989000E-03 0.  1.
     -623   -1    0    0    0    0  0.00000000000E+00  0.00000000000E+00  0.47855275298E-10  0.17124000000E+03  0.17124000000E+03 0. -1.
       11    1    1    2    0    0  0.56535160342E-02 -0.41376089632E-01  0.98858894162E+00  0.98947071698E+00  0.51109989000E-03 0.  1.
     -623    1    1    2    0    0 -0.60643660183E-02  0.44249265888E-01  0.95082457575E-03  0.17124000583E+03  0.17124000000E+03 0. -1.
       22    1    1    2    0    0  0.41084682341E-03 -0.28731531940E-02  0.66459560287E-01  0.66522905513E-01  0.00000000000E+00 0.  1.
</event>
<event>
 5   1  0.2192208E+09  0.9118800E+02  0.7818608E-02  0.1180000E+00
       11   -1    0    0    0    0  0.00000000000E+00  0.00000000000E+00  0.10559998763E+01  0.10560000000E+01  0.51109989000E-03 0.  1.
     -623   -1    0    0    0    0  0.00000000000E+00  0.00000000000E+00  0.47855275298E-10  0.17124000000E+03  0.17124000000E+03 0.  1.
       11    1    1    2    0    0  0.23564755546E-02 -0.86559382429E-02  0.53611078995E+00  0.53618608576E+00  0.51109989000E-03 0.  1.
     -623    1    1    2    0    0 -0.42319387748E-02  0.17049633232E-01  0.14723019053E-03  0.17124000090E+03  0.17124000000E+03 0.  1.
       22    1    1    2    0    0  0.18754640959E-02 -0.83936985167E-02  0.51974207469E+00  0.51981323160E+00  0.00000000000E+00 0.  1.
</event>
<event>
 5   1  0.2192208E+09  0.9118800E+02  0.7818608E-02  0.1180000E+00
       11   -1    0    0    0    0  0.00000000000E+00  0.00000000000E+00  0.10559998763E+01  0.10560000000E+01  0.51109989000E-03 0. -1.
     -623   -1    0    0    0    0  0.00000000000E+00  0.00000000000E+00  0.47855275298E-10  0.17124000000E+03  0.17124000000E+03 0.  1.
       11    1    1    2    0    0  0.84433042761E-02  0.23714658258E-01  0.81225708135E+00  0.81264721855E+00  0.51109989000E-03 0. -1.
     -623    1    1    2    0    0 -0.11070957323E-01 -0.30570420206E-01  0.50388455386E-03  0.17124000309E+03  0.17124000000E+03 0.  1.
       22    1    1    2    0    0  0.26276641012E-02  0.68557924714E-02  0.24323996434E+00  0.24335074843E+00  0.00000000000E+00 0.  1.
</event>
<event>
 5   1  0.2192208E+09  0.9118800E+02  0.7818608E-02  0.1180000E+00
       11   -1    0    0    0    0  0.00000000000E+00  0.00000000000E+00  0.10559998763E+01  0.10560000000E+01  0.51109989000E-03 0. -1.
     -623   -1    0    0    0    0  0.00000000000E+00  0.00000000000E+00  0.47855275298E-10  0.17124000000E+03  0.17124000000E+03 0. -1.
       11    1    1    2    0    0  0.14573762397E-01 -0.39584242624E-04  0.76080658446E+00  0.76094632945E+00  0.51109989000E-03 0. -1.
     -623    1    1    2    0    0 -0.18943428296E-01  0.33566985070E-02  0.19170973088E-03  0.17124000108E+03  0.17124000000E+03 0. -1.
       22    1    1    2    0    0  0.43696659438E-02 -0.33171142723E-02  0.29500158467E+00  0.29505259224E+00  0.00000000000E+00 0.  1.
</event>
<event>
 5   1  0.2192208E+09  0.9118800E+02  0.7818608E-02  0.1180000E+00
       11   -1    0    0    0    0  0.00000000000E+00  0.00000000000E+00  0.10559998763E+01  0.10560000000E+01  0.51109989000E-03 0.  1.
     -623   -1    0    0    0    0  0.00000000000E+00  0.00000000000E+00  0.47855275298E-10  0.17124000000E+03  0.17124000000E+03 0. -1.
       11    1    1    2    0    0  0.47582727880E-02 -0.94872540548E-02  0.33309670630E+00  0.33326614908E+00  0.51109989000E-03 0.  1.
     -623    1    1    2    0    0 -0.78877768727E-03  0.17455554547E-02  0.22169611421E-03  0.17124000001E+03  0.17124000000E+03 0. -1.
       22    1    1    2    0    0 -0.39694950999E-02  0.77416985981E-02  0.72268147514E+00  0.72273384126E+00  0.00000000000E+00 0.  1.
</event>
<event>
 5   1  0.2192208E+09  0.9118800E+02  0.7818608E-02  0.1180000E+00
       11   -1    0    0    0    0  0.00000000000E+00  0.00000000000E+00  0.10559998763E+01  0.10560000000E+01  0.51109989000E-03 0.  1.
     -623   -1    0    0    0    0  0.00000000000E+00  0.00000000000E+00  0.47855275298E-10  0.17124000000E+03  0.17124000000E+03 0. -1.
       11    1    1    2    0    0  0.50901147276E-02 -0.42181364003E-03  0.20418699093E+00  0.20425150106E+00  0.51109989000E-03 0.  1.
     -623    1    1    2    0    0 -0.16523486717E-02 -0.12037724514E-01  0.16289121576E-03  0.17124000043E+03  0.17124000000E+03 0. -1.
       22    1    1    2    0    0 -0.34377660608E-02  0.12459538118E-01  0.85164999108E+00  0.85174806464E+00  0.00000000000E+00 0.  1.
</event>
<event>
 5   1  0.2192208E+09  0.9118800E+02  0.7818608E-02  0.1180000E+00
       11   -1    0    0    0    0  0.00000000000E+00  0.00000000000E+00  0.10559998763E+01  0.10560000000E+01  0.51109989000E-03 0. -1.
     -623   -1    0    0    0    0  0.00000000000E+00  0.00000000000E+00  0.47855275298E-10  0.17124000000E+03  0.17124000000E+03 0.  1.
       11    1    1    2    0    0 -0.64004694404E-03  0.10843337180E-02  0.99655716895E+00  0.99655809547E+00  0.51109989000E-03 0. -1.
     -623    1    1    2    0    0 -0.18926108565E-03  0.61638782125E-04  0.17636979599E-04  0.17124000000E+03  0.17124000000E+03 0.  1.
       22    1    1    2    0    0  0.82930803281E-03 -0.11459725011E-02  0.59425087881E-01  0.59441921861E-01  0.00000000000E+00 0. -1.
</event>
<event>
 5   1  0.2192208E+09  0.9118800E+02  0.7818608E-02  0.1180000E+00
       11   -1    0    0    0    0  0.00000000000E+00  0.00000000000E+00  0.10559998763E+01  0.10560000000E+01  0.51109989000E-03 0. -1.
     -623   -1    0    0    0    0  0.00000000000E+00  0.00000000000E+00  0.47855275298E-10  0.17124000000E+03  0.17124000000E+03 0. -1.
       11    1    1    2    0    0 -0.56519737638E-02  0.10492066067E-01  0.75904467827E+00  0.75913840180E+00  0.51109989000E-03 0. -1.
     -623    1    1    2    0    0  0.66058154279E-02 -0.13937317652E-01  0.11581982485E-03  0.17124000069E+03  0.17124000000E+03 0. -1.
       22    1    1    2    0    0 -0.95384139026E-03  0.34452510070E-02  0.29683933449E+00  0.29686085978E+00  0.00000000000E+00 0.  1.
</event>
<event>
 5   1  0.2192208E+09  0.9118800E+02  0.7818608E-02  0.1180000E+00
       11   -1    0    0    0    0  0.00000000000E+00  0.00000000000E+00  0.10559998763E+01  0.10560000000E+01  0.51109989000E-03 0.  1.
     -623   -1    0    0    0    0  0.00000000000E+00  0.00000000000E+00  0.47855275298E-10  0.17124000000E+03  0.17124000000E+03 0. -1.
       11    1    1    2    0    0 -0.53393123307E-02  0.10405482684E-01  0.70354977926E+00  0.70364716687E+00  0.51109989000E-03 0.  1.
     -623    1    1    2    0    0  0.83329766082E-02 -0.15482064729E-01  0.14745849532E-03  0.17124000090E+03  0.17124000000E+03 0. -1.
       22    1    1    2    0    0 -0.29936611157E-02  0.50765761709E-02  0.35230223798E+00  0.35235152975E+00  0.00000000000E+00 0.  1.
</event>
<event>
 5   1  0.2192208E+09  0.9118800E+02  0.7818608E-02  0.1180000E+00
       11   -1    0    0    0    0  0.00000000000E+00  0.00000000000E+00  0.10559998763E+01  0.10560000000E+01  0.51109989000E-03 0. -1.
     -623   -1    0    0    0    0  0.00000000000E+00  0.00000000000E+00  0.47855275298E-10  0.17124000000E+03  0.17124000000E+03 0. -1.
       11    1    1    2    0    0 -0.23797814707E-02 -0.92135180406E-02  0.82607743419E+00  0.82613239906E+00  0.51109989000E-03 0. -1.
     -623    1    1    2    0    0  0.30745820212E-02  0.11574452014E-01  0.68434867095E-04  0.17124000042E+03  0.17124000000E+03 0. -1.
       22    1    1    2    0    0 -0.69479716792E-03 -0.23609212400E-02  0.22985284560E+00  0.22986602038E+00  0.00000000000E+00 0.  1.
</event>
<event>
 5   1  0.2192208E+09  0.9118800E+02  0.7818608E-02  0.1180000E+00
       11   -1    0    0    0    0  0.00000000000E+00  0.00000000000E+00  0.10559998763E+01  0.10560000000E+01  0.51109989000E-03 0.  1.
     -623   -1    0    0    0    0  0.00000000000E+00  0.00000000000E+00  0.47855275298E-10  0.17124000000E+03  0.17124000000E+03 0. -1.
       11    1    1    2    0    0 -0.91266761806E-02  0.15800849111E-01  0.94337316355E+00  0.94354976020E+00  0.51109989000E-03 0.  1.
     -623    1    1    2    0    0  0.99588103215E-02 -0.17687206014E-01  0.19657871382E-03  0.17124000120E+03  0.17124000000E+03 0. -1.
       22    1    1    2    0    0 -0.83213077591E-03  0.18863509267E-02  0.11242977736E+00  0.11244867984E+00  0.00000000000E+00 0.  1.
</event>
<event>
 5   1  0.2192208E+09  0.9118800E+02  0.7818608E-02  0.1180000E+00
       11   -1    0    0    0    0  0.00000000000E+00  0.00000000000E+00  0.10559998763E+01  0.10560000000E+01  0.51109989000E-03 0.  1.
     -623   -1    0    0    0    0  0.00000000000E+00  0.00000000000E+00  0.47855275298E-10  0.17124000000E+03  0.17124000000E+03 0.  1.
       11    1    1    2    0    0 -0.22330261474E-01  0.62991947780E-02  0.95285609029E+00  0.95313866277E+00  0.51109989000E-03 0.  1.
     -623    1    1    2    0    0  0.24343774457E-01 -0.74878559147E-02  0.31092247278E-03  0.17124000189E+03  0.17124000000E+03 0.  1.
       22    1    1    2    0    0 -0.20135114947E-02  0.11886606790E-02  0.10283279907E+00  0.10285937831E+00  0.00000000000E+00 0.  1.
</event>
<event>
 5   1  0.2192208E+09  0.9118800E+02  0.7818608E-02  0.1180000E+00
       11   -1    0    0    0    0  0.00000000000E+00  0.00000000000E+00  0.10559998763E+01  0.10560000000E+01  0.51109989000E-03 0. -1.
     -623   -1    0    0    0    0  0.00000000000E+00  0.00000000000E+00  0.47855275298E-10  0.17124000000E+03  0.17124000000E+03 0.  1.
       11    1    1    2    0    0 -0.33883846553E-02  0.76650287147E-02  0.96513193430E+00  0.96516845455E+00  0.51109989000E-03 0. -1.
     -623    1    1    2    0    0  0.32721879617E-02 -0.86366815078E-02  0.41917199954E-04  0.17124000025E+03  0.17124000000E+03 0.  1.
       22    1    1    2    0    0  0.11619699443E-03  0.97165199899E-03  0.90825927766E-01  0.90831199287E-01  0.00000000000E+00 0. -1.
</event>
<event>
 5   1  0.2192208E+09  0.9118800E+02  0.7818608E-02  0.1180000E+00
       11   -1    0    0    0    0  0.00000000000E+00  0.00000000000E+00  0.10559998763E+01  0.10560000000E+01  0.51109989000E-03 0. -1.
     -623   -1    0    0    0    0  0.00000000000E+00  0.00000000000E+00  0.47855275298E-10  0.17124000000E+03  0.17124000000E+03 0. -1.
       11    1    1    2    0    0 -0.23675077163E-01  0.58661044447E-02  0.84360229897E+00  0.84395498725E+00  0.51109989000E-03 0. -1.
     -623    1    1    2    0    0  0.24247013765E-01 -0.18357025698E-02  0.39337034750E-03  0.17124000173E+03  0.17124000000E+03 0. -1.
       22    1    1    2    0    0 -0.57193660985E-03 -0.40304018743E-02  0.21200420739E+00  0.21204328615E+00  0.00000000000E+00 0.  1.
</event>
<event>
 5   1  0.2192208E+09  0.9118800E+02  0.7818608E-02  0.1180000E+00
       11   -1    0    0    0    0  0.00000000000E+00  0.00000000000E+00  0.10559998763E+01  0.10560000000E+01  0.51109989000E-03 0.  1.
     -623   -1    0    0    0    0  0.00000000000E+00  0.00000000000E+00  0.47855275298E-10  0.17124000000E+03  0.17124000000E+03 0. -1.
       11    1    1    2    0    0  0.56450972579E-02 -0.14214598085E-01  0.80062920517E+00  0.80077544125E+00  0.51109989000E-03 0.  1.
     -623    1    1    2    0    0 -0.79511767886E-02  0.18324728805E-01  0.19079455208E-03  0.17124000117E+03  0.17124000000E+03 0. -1.
       22    1    1    2    0    0  0.23060814298E-02 -0.41101350971E-02  0.25518012880E+00  0.25522364577E+00  0.00000000000E+00 0.  1.
</event>
<event>
 5   1  0.2192208E+09  0.9118800E+02  0.7818608E-02  0.1180000E+00
       11   -1    0    0    0    0  0.00000000000E+00  0.00000000000E+00  0.10559998763E+01  0.10560000000E+01  0.51109989000E-03 0. -1.
     -623   -1    0    0    0    0  0.00000000000E+00  0.00000000000E+00  0.47855275298E-10  0.17124000000E+03  0.17124000000E+03 0.  1.
       11    1    1    2    0    0 -0.43131909917E-02  0.61965190275E-02  0.26505024820E+00  0.26515824663E+00  0.51109989000E-03 0. -1.
     -623    1    1    2    0    0  0.12196315731E-01 -0.21312852207E-01  0.29341558201E-03  0.17124000176E+03  0.17124000000E+03 0.  1.
       22    1    1    2    0    0 -0.78831242465E-02  0.15116332318E-01  0.79065616994E+00  0.79083994980E+00  0.00000000000E+00 0. -1.
</event>
<event>
 5   1  0.2420542E+09  0.9118800E+02  0.7818608E-02  0.1180000E+00
       11   -1    0    0    0    0  0.00000000000E+00  0.00000000000E+00  0.10559998763E+01  0.10560000000E+01  0.51109989000E-03 0.  1.
     -623   -1    0    0    0    0  0.00000000000E+00  0.00000000000E+00  0.47855275298E-10  0.17124000000E+03  0.17124000000E+03 0.  1.
       11    1    1    2    0    0  0.43384260375E-01 -0.50664628514E-01  0.79146172302E+00  0.79426759902E+00  0.51109989000E-03 0.  1.
     -623    1    1    2    0    0 -0.58086648712E-01  0.66459769811E-01  0.37196834059E-02  0.17124002279E+03  0.17124000000E+03 0.  1.
       22    1    1    2    0    0  0.14702381857E-01 -0.15795133883E-01  0.26081835255E+00  0.26170949412E+00  0.00000000000E+00 0. -1.
</event>
<event>
 5   1  0.2192208E+09  0.9118800E+02  0.7818608E-02  0.1180000E+00
       11   -1    0    0    0    0  0.00000000000E+00  0.00000000000E+00  0.10559998763E+01  0.10560000000E+01  0.51109989000E-03 0.  1.
     -623   -1    0    0    0    0  0.00000000000E+00  0.00000000000E+00  0.47855275298E-10  0.17124000000E+03  0.17124000000E+03 0. -1.
       11    1    1    2    0    0 -0.38498944030E-03 -0.64918968249E-02  0.76978768898E+00  0.76981532868E+00  0.51109989000E-03 0.  1.
     -623    1    1    2    0    0 -0.67748281863E-05  0.27036362647E-03  0.95419250110E-04  0.17124000000E+03  0.17124000000E+03 0. -1.
       22    1    1    2    0    0  0.39176426848E-03  0.62215331985E-02  0.28611676786E+00  0.28618467081E+00  0.00000000000E+00 0. -1.
</event>
<event>
 5   1  0.2192208E+09  0.9118800E+02  0.7818608E-02  0.1180000E+00
       11   -1    0    0    0    0  0.00000000000E+00  0.00000000000E+00  0.10559998763E+01  0.10560000000E+01  0.51109989000E-03 0. -1.
     -623   -1    0    0    0    0  0.00000000000E+00  0.00000000000E+00  0.47855275298E-10  0.17124000000E+03  0.17124000000E+03 0.  1.
       11    1    1    2    0    0 -0.24806105467E-02  0.85055082469E-04  0.96582160168E+00  0.96582492625E+00  0.51109989000E-03 0. -1.
     -623    1    1    2    0    0  0.29630973346E-02 -0.18089967234E-02  0.21007581191E-04  0.17124000004E+03  0.17124000000E+03 0.  1.
       22    1    1    2    0    0 -0.48248679258E-03  0.17239416438E-02  0.90157268762E-01  0.90175040222E-01  0.00000000000E+00 0.  1.
</event>
<event>
 5   1  0.2192208E+09  0.9118800E+02  0.7818608E-02  0.1180000E+00
       11   -1    0    0    0    0  0.00000000000E+00  0.00000000000E+00  0.10559998763E+01  0.10560000000E+01  0.51109989000E-03 0.  1.
     -623   -1    0    0    0    0  0.00000000000E+00  0.00000000000E+00  0.47855275298E-10  0.17124000000E+03  0.17124000000E+03 0.  1.
       11    1    1    2    0    0  0.10708998633E-02  0.14993793075E-02  0.85301947444E+00  0.85302161752E+00  0.51109989000E-03 0.  1.
     -623    1    1    2    0    0  0.64054865035E-03  0.78270458214E-03  0.22067338051E-04  0.17124000000E+03  0.17124000000E+03 0.  1.
       22    1    1    2    0    0 -0.17114485225E-02 -0.22820839004E-02  0.20295834916E+00  0.20297839406E+00  0.00000000000E+00 0.  1.
</event>
<event>
 5   1  0.2192208E+09  0.9118800E+02  0.7818608E-02  0.1180000E+00
       11   -1    0    0    0    0  0.00000000000E+00  0.00000000000E+00  0.10559998763E+01  0.10560000000E+01  0.51109989000E-03 0.  1.
     -623   -1    0    0    0    0  0.00000000000E+00  0.00000000000E+00  0.47855275298E-10  0.17124000000E+03  0.17124000000E+03 0. -1.
       11    1    1    2    0    0  0.33555411691E-02  0.11834853913E-01  0.45129857997E+00  0.45146649148E+00  0.51109989000E-03 0.  1.
     -623    1    1    2    0    0  0.44292855021E-03 -0.48377197520E-03  0.28630180561E-03  0.17124000000E+03  0.17124000000E+03 0. -1.
       22    1    1    2    0    0 -0.37984697200E-02 -0.11351081937E-01  0.60441499618E+00  0.60453350862E+00  0.00000000000E+00 0.  1.
</event>
<event>
 5   1  0.2192208E+09  0.9118800E+02  0.7818608E-02  0.1180000E+00
       11   -1    0    0    0    0  0.00000000000E+00  0.00000000000E+00  0.10559998763E+01  0.10560000000E+01  0.51109989000E-03 0.  1.
     -623   -1    0    0    0    0  0.00000000000E+00  0.00000000000E+00  0.47855275298E-10  0.17124000000E+03  0.17124000000E+03 0.  1.
       11    1    1    2    0    0  0.83691766365E-02 -0.16201865690E-02  0.34648823727E+00  0.34659346202E+00  0.51109989000E-03 0.  1.
     -623    1    1    2    0    0 -0.11675169796E-01 -0.95354947591E-02  0.20118818294E-03  0.17124000066E+03  0.17124000000E+03 0.  1.
       22    1    1    2    0    0  0.33059931728E-02  0.11155681339E-01  0.70931045212E+00  0.70940587558E+00  0.00000000000E+00 0.  1.
</event>
<event>
 5   1  0.2192208E+09  0.9118800E+02  0.7818608E-02  0.1180000E+00
       11   -1    0    0    0    0  0.00000000000E+00  0.00000000000E+00  0.10559998763E+01  0.10560000000E+01  0.51109989000E-03 0. -1.
     -623   -1    0    0    0    0  0.00000000000E+00  0.00000000000E+00  0.47855275298E-10  0.17124000000E+03  0.17124000000E+03 0. -1.
       11    1    1    2    0    0 -0.42695570510E-02  0.14753810613E-02  0.21721079569E+00  0.21725836429E+00  0.51109989000E-03 0. -1.
     -623    1    1    2    0    0  0.86601738615E-02 -0.10077332256E-01  0.10356417455E-03  0.17124000052E+03  0.17124000000E+03 0. -1.
       22    1    1    2    0    0 -0.43906168794E-02  0.86019512751E-02  0.83868552490E+00  0.83874112857E+00  0.00000000000E+00 0. -1.
</event>
<event>
 5   1  0.2192208E+09  0.9118800E+02  0.7818608E-02  0.1180000E+00
       11   -1    0    0    0    0  0.00000000000E+00  0.00000000000E+00  0.10559998763E+01  0.10560000000E+01  0.51109989000E-03 0. -1.
     -623   -1    0    0    0    0  0.00000000000E+00  0.00000000000E+00  0.47855275298E-10  0.17124000000E+03  0.17124000000E+03 0.  1.
       11    1    1    2    0    0 -0.15589768938E-02  0.12928488484E-02  0.10049872567E+01  0.10049894274E+01  0.51109989000E-03 0. -1.
     -623    1    1    2    0    0  0.64518646524E-03 -0.18269013313E-02  0.13039540280E-04  0.17124000001E+03  0.17124000000E+03 0.  1.
       22    1    1    2    0    0  0.91379040893E-03  0.53405253843E-03  0.50999612251E-01  0.51010593750E-01  0.00000000000E+00 0.  1.
</event>
<event>
 5   1  0.2192208E+09  0.9118800E+02  0.7818608E-02  0.1180000E+00
       11   -1    0    0    0    0  0.00000000000E+00  0.00000000000E+00  0.10559998763E+01  0.10560000000E+01  0.51109989000E-03 0. -1.
     -623   -1    0    0    0    0  0.00000000000E+00  0.00000000000E+00  0.47855275298E-10  0.17124000000E+03  0.17124000000E+03 0.  1.
       11    1    1    2    0    0  0.63202817599E-02  0.77804329268E-02  0.98219566063E+00  0.98224694354E+00  0.51109989000E-03 0. -1.
     -623    1    1    2    0    0 -0.71110709842E-02 -0.85880796740E-02  0.60184446242E-04  0.17124000036E+03  0.17124000000E+03 0.  1.
       22    1    1    2    0    0  0.79079028458E-03  0.80764802781E-03  0.73744188732E-01  0.73752850903E-01  0.00000000000E+00 0. -1.
</event>
<event>
 5   1  0.2192208E+09  0.9118800E+02  0.7818608E-02  0.1180000E+00
       11   -1    0    0    0    0  0.00000000000E+00  0.00000000000E+00  0.10559998763E+01  0.10560000000E+01  0.51109989000E-03 0. -1.
     -623   -1    0    0    0    0  0.00000000000E+00  0.00000000000E+00  0.47855275298E-10  0.17124000000E+03  0.17124000000E+03 0.  1.
       11    1    1    2    0    0  0.55510562854E-02  0.66445146994E-02  0.76172007775E+00  0.76176945454E+00  0.51109989000E-03 0. -1.
     -623    1    1    2    0    0 -0.81380627648E-02 -0.98486598021E-02  0.78550714579E-04  0.17124000048E+03  0.17124000000E+03 0.  1.
       22    1    1    2    0    0  0.25870079082E-02  0.32041468317E-02  0.29420143328E+00  0.29423025424E+00  0.00000000000E+00 0.  1.
</event>
<event>
 5   1  0.2192208E+09  0.9118800E+02  0.7818608E-02  0.1180000E+00
       11   -1    0    0    0    0  0.00000000000E+00  0.00000000000E+00  0.10559998763E+01  0.10560000000E+01  0.51109989000E-03 0.  1.
     -623   -1    0    0    0    0  0.00000000000E+00  0.00000000000E+00  0.47855275298E-10  0.17124000000E+03  0.17124000000E+03 0.  1.
       11    1    1    2    0    0  0.54588149598E-03  0.27786593296E-02  0.82265043529E+00  0.82265546789E+00  0.51109989000E-03 0.  1.
     -623    1    1    2    0    0  0.24128393012E-03 -0.23445876639E-03  0.20107453133E-04  0.17124000000E+03  0.17124000000E+03 0.  1.
       22    1    1    2    0    0 -0.78716542630E-03 -0.25442005630E-02  0.23332933449E+00  0.23334453265E+00  0.00000000000E+00 0.  1.
</event>
<event>
 5   1  0.2192208E+09  0.9118800E+02  0.7818608E-02  0.1180000E+00
       11   -1    0    0    0    0  0.00000000000E+00  0.00000000000E+00  0.10559998763E+01  0.10560000000E+01  0.51109989000E-03 0. -1.
     -623   -1    0    0    0    0  0.00000000000E+00  0.00000000000E+00  0.47855275298E-10  0.17124000000E+03  0.17124000000E+03 0. -1.
       11    1    1    2    0    0  0.57088726095E-02 -0.32395872942E-02  0.11886415152E+00  0.11904635187E+00  0.51109989000E-03 0. -1.
     -623    1    1    2    0    0 -0.86670502338E-02  0.15017187296E-01  0.26165071949E-03  0.17124000088E+03  0.17124000000E+03 0. -1.
       22    1    1    2    0    0  0.29581776465E-02 -0.11777600041E-01  0.93687407684E+00  0.93695277284E+00  0.00000000000E+00 0. -1.
</event>
<event>
 5   1  0.2192208E+09  0.9118800E+02  0.7818608E-02  0.1180000E+00
       11   -1    0    0    0    0  0.00000000000E+00  0.00000000000E+00  0.10559998763E+01  0.10560000000E+01  0.51109989000E-03 0. -1.
     -623   -1    0    0    0    0  0.00000000000E+00  0.00000000000E+00  0.47855275298E-10  0.17124000000E+03  0.17124000000E+03 0. -1.
       11    1    1    2    0    0 -0.47724062755E-02  0.90865652295E-02  0.97862673789E+00  0.97868069096E+00  0.51109989000E-03 0. -1.
     -623    1    1    2    0    0  0.50921194827E-02 -0.98859566115E-02  0.58984083814E-04  0.17124000036E+03  0.17124000000E+03 0. -1.
       22    1    1    2    0    0 -0.31972022882E-03  0.79940501403E-03  0.77315610464E-01  0.77320404104E-01  0.00000000000E+00 0.  1.
</event>
<event>
 5   1  0.2192208E+09  0.9118800E+02  0.7818608E-02  0.1180000E+00
       11   -1    0    0    0    0  0.00000000000E+00  0.00000000000E+00  0.10559998763E+01  0.10560000000E+01  0.51109989000E-03 0.  1.
     -623   -1    0    0    0    0  0.00000000000E+00  0.00000000000E+00  0.47855275298E-10  0.17124000000E+03  0.17124000000E+03 0. -1.
       11    1    1    2    0    0  0.32563925868E-02  0.11425909533E-01  0.70974887651E+00  0.70984849399E+00  0.51109989000E-03 0.  1.
     -623    1    1    2    0    0  0.51058192019E-02 -0.17393225378E-01  0.25292861359E-03  0.17124000096E+03  0.17124000000E+03 0. -1.
       22    1    1    2    0    0 -0.83622117801E-02  0.59673158159E-02  0.34599806948E+00  0.34615054460E+00  0.00000000000E+00 0.  1.
</event>
<event>
 5   1  0.2192208E+09  0.9118800E+02  0.7818608E-02  0.1180000E+00
       11   -1    0    0    0    0  0.00000000000E+00  0.00000000000E+00  0.10559998763E+01  0.10560000000E+01  0.51109989000E-03 0.  1.
     -623   -1    0    0    0    0  0.00000000000E+00  0.00000000000E+00  0.47855275298E-10  0.17124000000E+03  0.17124000000E+03 0.  1.
       11    1    1    2    0    0  0.18708358963E-02  0.63021031742E-02  0.55464763659E+00  0.55468682924E+00  0.51109989000E-03 0.  1.
     -623    1    1    2    0    0  0.10485057986E-03 -0.15729628104E-03  0.80623711753E-04  0.17124000000E+03  0.17124000000E+03 0.  1.
       22    1    1    2    0    0 -0.19756864768E-02 -0.61448068922E-02  0.50127162286E+00  0.50131317744E+00  0.00000000000E+00 0. -1.
</event>
<event>
 5   1  0.2192208E+09  0.9118800E+02  0.7818608E-02  0.1180000E+00
       11   -1    0    0    0    0  0.00000000000E+00  0.00000000000E+00  0.10559998763E+01  0.10560000000E+01  0.51109989000E-03 0.  1.
     -623   -1    0    0    0    0  0.00000000000E+00  0.00000000000E+00  0.47855275298E-10  0.17124000000E+03  0.17124000000E+03 0.  1.
       11    1    1    2    0    0  0.92970928956E-03  0.22472375686E-02  0.92184543244E+00  0.92184878205E+00  0.51109989000E-03 0.  1.
     -623    1    1    2    0    0 -0.28822190186E-04 -0.19656268587E-04  0.24747137631E-04  0.17124000000E+03  0.17124000000E+03 0.  1.
       22    1    1    2    0    0 -0.90088709931E-03 -0.22275812999E-02  0.13412969927E+00  0.13415122043E+00  0.00000000000E+00 0. -1.
</event>
<event>
 5   1  0.2192208E+09  0.9118800E+02  0.7818608E-02  0.1180000E+00
       11   -1    0    0    0    0  0.00000000000E+00  0.00000000000E+00  0.10559998763E+01  0.10560000000E+01  0.51109989000E-03 0. -1.
     -623   -1    0    0    0    0  0.00000000000E+00  0.00000000000E+00  0.47855275298E-10  0.17124000000E+03  0.17124000000E+03 0.  1.
       11    1    1    2    0    0  0.13954978194E-01  0.12701654597E-01  0.99986446868E+00  0.10000426443E+01  0.51109989000E-03 0. -1.
     -623    1    1    2    0    0 -0.14673832089E-01 -0.13471698955E-01  0.18912754933E-03  0.17124000116E+03  0.17124000000E+03 0.  1.
       22    1    1    2    0    0  0.71887092945E-03  0.77005999576E-03  0.55947505749E-01  0.55957422809E-01  0.00000000000E+00 0.  1.
</event>
<event>
 5   1  0.2192208E+09  0.9118800E+02  0.7818608E-02  0.1180000E+00
       11   -1    0    0    0    0  0.00000000000E+00  0.00000000000E+00  0.10559998763E+01  0.10560000000E+01  0.51109989000E-03 0.  1.
     -623   -1    0    0    0    0  0.00000000000E+00  0.00000000000E+00  0.47855275298E-10  0.17124000000E+03  0.17124000000E+03 0.  1.
       11    1    1    2    0    0  0.39728849108E-03 -0.13125603482E-02  0.10050386872E+01  0.10050397528E+01  0.51109989000E-03 0.  1.
     -623    1    1    2    0    0  0.13008191497E-03  0.41319848735E-03  0.11608491290E-04  0.17124000000E+03  0.17124000000E+03 0.  1.
       22    1    1    2    0    0 -0.52737040557E-03  0.89936186238E-03  0.50949576763E-01  0.50960242774E-01  0.00000000000E+00 0. -1.
</event>
<event>
 5   1  0.2192208E+09  0.9118800E+02  0.7818608E-02  0.1180000E+00
       11   -1    0    0    0    0  0.00000000000E+00  0.00000000000E+00  0.10559998763E+01  0.10560000000E+01  0.51109989000E-03 0. -1.
     -623   -1    0    0    0    0  0.00000000000E+00  0.00000000000E+00  0.47855275298E-10  0.17124000000E+03  0.17124000000E+03 0.  1.
       11    1    1    2    0    0 -0.17441060898E-02  0.13048235405E-01  0.93257066926E+00  0.93266371901E+00  0.51109989000E-03 0. -1.
     -623    1    1    2    0    0  0.15848939026E-02 -0.14841052998E-01  0.10671033092E-03  0.17124000065E+03  0.17124000000E+03 0.  1.
       22    1    1    2    0    0  0.15921128239E-03  0.17928260647E-02  0.12332309955E+00  0.12333623335E+00  0.00000000000E+00 0. -1.
</event>
<event>
 5   1  0.2192208E+09  0.9118800E+02  0.7818608E-02  0.1180000E+00
       11   -1    0    0    0    0  0.00000000000E+00  0.00000000000E+00  0.10559998763E+01  0.10560000000E+01  0.51109989000E-03 0.  1.
     -623   -1    0    0    0    0  0.00000000000E+00  0.00000000000E+00  0.47855275298E-10  0.17124000000E+03  0.17124000000E+03 0. -1.
       11    1    1    2    0    0  0.10636663945E-02 -0.32367825651E-03  0.97419780057E+00  0.97419856908E+00  0.51109989000E-03 0.  1.
     -623    1    1    2    0    0 -0.82192045353E-03  0.11523782306E-02  0.52056951427E-05  0.17124000001E+03  0.17124000000E+03 0. -1.
       22    1    1    2    0    0 -0.24174590818E-03 -0.82870001996E-03  0.81796912183E-01  0.81801467147E-01  0.00000000000E+00 0.  1.
</event>
<event>
 5   1  0.2192208E+09  0.9118800E+02  0.7818608E-02  0.1180000E+00
       11   -1    0    0    0    0  0.00000000000E+00  0.00000000000E+00  0.10559998763E+01  0.10560000000E+01  0.51109989000E-03 0.  1.
     -623   -1    0    0    0    0  0.00000000000E+00  0.00000000000E+00  0.47855275298E-10  0.17124000000E+03  0.17124000000E+03 0. -1.
       11    1    1    2    0    0 -0.37533348870E-02 -0.85704652433E-02  0.54959995773E+00  0.54967982968E+00  0.51109989000E-03 0.  1.
     -623    1    1    2    0    0  0.60658315295E-02  0.15625947724E-01  0.13501110595E-03  0.17124000082E+03  0.17124000000E+03 0. -1.
       22    1    1    2    0    0 -0.23124967137E-02 -0.70554826644E-02  0.50626491991E+00  0.50631936227E+00  0.00000000000E+00 0.  1.
</event>
<event>
 5   1  0.2192208E+09  0.9118800E+02  0.7818608E-02  0.1180000E+00
       11   -1    0    0    0    0  0.00000000000E+00  0.00000000000E+00  0.10559998763E+01  0.10560000000E+01  0.51109989000E-03 0.  1.
     -623   -1    0    0    0    0  0.00000000000E+00  0.00000000000E+00  0.47855275298E-10  0.17124000000E+03  0.17124000000E+03 0.  1.
       11    1    1    2    0    0 -0.78467001006E-03 -0.17590829417E-02  0.91381163492E+00  0.91381380785E+00  0.51109989000E-03 0.  1.
     -623    1    1    2    0    0  0.17889813414E-04  0.25215312198E-04  0.14689091429E-04  0.17124000000E+03  0.17124000000E+03 0.  1.
       22    1    1    2    0    0  0.76678019659E-03  0.17338676294E-02  0.14217355589E+00  0.14218619568E+00  0.00000000000E+00 0. -1.
</event>
<event>
 5   1  0.2192208E+09  0.9118800E+02  0.7818608E-02  0.1180000E+00
       11   -1    0    0    0    0  0.00000000000E+00  0.00000000000E+00  0.10559998763E+01  0.10560000000E+01  0.51109989000E-03 0.  1.
     -623   -1    0    0    0    0  0.00000000000E+00  0.00000000000E+00  0.47855275298E-10  0.17124000000E+03  0.17124000000E+03 0.  1.
       11    1    1    2    0    0  0.22513525294E-03 -0.41129549290E-02  0.73970269322E+00  0.73971433855E+00  0.51109989000E-03 0.  1.
     -623    1    1    2    0    0  0.22246661897E-04  0.35920838972E-04  0.37896758655E-04  0.17124000000E+03  0.17124000000E+03 0.  1.
       22    1    1    2    0    0 -0.24738191472E-03  0.40770340902E-02  0.31625928070E+00  0.31628565575E+00  0.00000000000E+00 0. -1.
</event>
<event>
 5   1  0.2192208E+09  0.9118800E+02  0.7818608E-02  0.1180000E+00
       11   -1    0    0    0    0  0.00000000000E+00  0.00000000000E+00  0.10559998763E+01  0.10560000000E+01  0.51109989000E-03 0.  1.
     -623   -1    0    0    0    0  0.00000000000E+00  0.00000000000E+00  0.47855275298E-10  0.17124000000E+03  0.17124000000E+03 0.  1.
       11    1    1    2    0    0 -0.55071353317E-03 -0.88741882162E-02  0.84811933419E+00  0.84816609267E+00  0.51109989000E-03 0.  1.
     -623    1    1    2    0    0  0.76047367184E-03  0.11019448729E-01  0.58168951230E-04  0.17124000036E+03  0.17124000000E+03 0.  1.
       22    1    1    2    0    0 -0.20976031427E-03 -0.21452630569E-02  0.20782261705E+00  0.20783379492E+00  0.00000000000E+00 0.  1.
</event>
<event>
 5   1  0.2192208E+09  0.9118800E+02  0.7818608E-02  0.1180000E+00
       11   -1    0    0    0    0  0.00000000000E+00  0.00000000000E+00  0.10559998763E+01  0.10560000000E+01  0.51109989000E-03 0. -1.
     -623   -1    0    0    0    0  0.00000000000E+00  0.00000000000E+00  0.47855275298E-10  0.17124000000E+03  0.17124000000E+03 0. -1.
       11    1    1    2    0    0  0.65650823512E-03 -0.60262427449E-03  0.10010805208E+01  0.10010810479E+01  0.51109989000E-03 0. -1.
     -623    1    1    2    0    0 -0.13797603980E-04  0.51740078928E-04  0.69275925461E-05  0.17124000000E+03  0.17124000000E+03 0. -1.
       22    1    1    2    0    0 -0.64271063162E-03  0.55088419734E-03  0.54912391784E-01  0.54918915883E-01  0.00000000000E+00 0. -1.
</event>
<event>
 5   1  0.2192208E+09  0.9118800E+02  0.7818608E-02  0.1180000E+00
       11   -1    0    0    0    0  0.00000000000E+00  0.00000000000E+00  0.10559998763E+01  0.10560000000E+01  0.51109989000E-03 0. -1.
     -623   -1    0    0    0    0  0.00000000000E+00  0.00000000000E+00  0.47855275298E-10  0.17124000000E+03  0.17124000000E+03 0.  1.
       11    1    1    2    0    0  0.78997180492E-02 -0.14085444896E-02  0.97502241582E+00  0.97505556874E+00  0.51109989000E-03 0. -1.
     -623    1    1    2    0    0 -0.85275230876E-02  0.30251271680E-02  0.51847947491E-04  0.17124000024E+03  0.17124000000E+03 0.  1.
       22    1    1    2    0    0  0.62780517026E-03 -0.16165827252E-02  0.80925628916E-01  0.80944208530E-01  0.00000000000E+00 0. -1.
</event>
<event>
 5   1  0.2192208E+09  0.9118800E+02  0.7818608E-02  0.1180000E+00
       11   -1    0    0    0    0  0.00000000000E+00  0.00000000000E+00  0.10559998763E+01  0.10560000000E+01  0.51109989000E-03 0. -1.
     -623   -1    0    0    0    0  0.00000000000E+00  0.00000000000E+00  0.47855275298E-10  0.17124000000E+03  0.17124000000E+03 0.  1.
       11    1    1    2    0    0 -0.22023145592E-02 -0.98938506159E-03  0.99087218625E+00  0.99087525945E+00  0.51109989000E-03 0. -1.
     -623    1    1    2    0    0  0.21359755759E-02 -0.17184759078E-04  0.10775924222E-04  0.17124000001E+03  0.17124000000E+03 0.  1.
       22    1    1    2    0    0  0.66338981103E-04  0.10065698207E-02  0.65116915285E-01  0.65124728329E-01  0.00000000000E+00 0.  1.
</event>
<event>
 5   1  0.2192208E+09  0.9118800E+02  0.7818608E-02  0.1180000E+00
       11   -1    0    0    0    0  0.00000000000E+00  0.00000000000E+00  0.10559998763E+01  0.10560000000E+01  0.51109989000E-03 0.  1.
     -623   -1    0    0    0    0  0.00000000000E+00  0.00000000000E+00  0.47855275298E-10  0.17124000000E+03  0.17124000000E+03 0. -1.
       11    1    1    2    0    0 -0.15292063955E-01  0.45965390678E-02  0.88718725435E+00  0.88733108865E+00  0.51109989000E-03 0.  1.
     -623    1    1    2    0    0  0.15775204144E-01 -0.64558268065E-02  0.15549917930E-03  0.17124000085E+03  0.17124000000E+03 0. -1.
       22    1    1    2    0    0 -0.48314001244E-03  0.18592876666E-02  0.16865711104E+00  0.16866805115E+00  0.00000000000E+00 0.  1.
</event>
<event>
 5   1  0.2192208E+09  0.9118800E+02  0.7818608E-02  0.1180000E+00
       11   -1    0    0    0    0  0.00000000000E+00  0.00000000000E+00  0.10559998763E+01  0.10560000000E+01  0.51109989000E-03 0.  1.
     -623   -1    0    0    0    0  0.00000000000E+00  0.00000000000E+00  0.47855275298E-10  0.17124000000E+03  0.17124000000E+03 0. -1.
       11    1    1    2    0    0 -0.34613144765E-02 -0.59916850370E-04  0.84387471776E+00  0.84388197325E+00  0.51109989000E-03 0.  1.
     -623    1    1    2    0    0  0.26015762706E-02  0.27791693170E-02  0.26347119048E-04  0.17124000004E+03  0.17124000000E+03 0. -1.
       22    1    1    2    0    0  0.85973826552E-03 -0.27192524030E-02  0.21209878729E+00  0.21211796023E+00  0.00000000000E+00 0. -1.
</event>
<event>
 5   1  0.2192208E+09  0.9118800E+02  0.7818608E-02  0.1180000E+00
       11   -1    0    0    0    0  0.00000000000E+00  0.00000000000E+00  0.10559998763E+01  0.10560000000E+01  0.51109989000E-03 0. -1.
     -623   -1    0    0    0    0  0.00000000000E+00  0.00000000000E+00  0.47855275298E-10  0.17124000000E+03  0.17124000000E+03 0. -1.
       11    1    1    2    0    0  0.13618232457E-02  0.63524786347E-03  0.99703082627E+00  0.99703208969E+00  0.51109989000E-03 0. -1.
     -623    1    1    2    0    0 -0.45930658654E-03  0.74290440399E-04  0.12316872094E-04  0.17124000000E+03  0.17124000000E+03 0. -1.
       22    1    1    2    0    0 -0.90251665029E-03 -0.70953830530E-03  0.58956753520E-01  0.58967929983E-01  0.00000000000E+00 0.  1.
</event>
<event>
 5   1  0.2192208E+09  0.9118800E+02  0.7818608E-02  0.1180000E+00
       11   -1    0    0    0    0  0.00000000000E+00  0.00000000000E+00  0.10559998763E+01  0.10560000000E+01  0.51109989000E-03 0. -1.
     -623   -1    0    0    0    0  0.00000000000E+00  0.00000000000E+00  0.47855275298E-10  0.17124000000E+03  0.17124000000E+03 0. -1.
       11    1    1    2    0    0  0.19243952417E-02 -0.15132310670E-02  0.91237635117E+00  0.91237977869E+00  0.51109989000E-03 0. -1.
     -623    1    1    2    0    0  0.13884867404E-02 -0.20402920052E-02  0.85515798477E-04  0.17124000002E+03  0.17124000000E+03 0. -1.
       22    1    1    2    0    0 -0.33128819788E-02  0.35535230673E-02  0.14353800684E+00  0.14362020095E+00  0.00000000000E+00 0.  1.
</event>
<event>
 5   1  0.2192208E+09  0.9118800E+02  0.7818608E-02  0.1180000E+00
       11   -1    0    0    0    0  0.00000000000E+00  0.00000000000E+00  0.10559998763E+01  0.10560000000E+01  0.51109989000E-03 0. -1.
     -623   -1    0    0    0    0  0.00000000000E+00  0.00000000000E+00  0.47855275298E-10  0.17124000000E+03  0.17124000000E+03 0.  1.
       11    1    1    2    0    0 -0.14522453567E-01  0.13102780711E-01  0.94001784702E+00  0.94022146246E+00  0.51109989000E-03 0. -1.
     -623    1    1    2    0    0  0.15933788161E-01 -0.14694434643E-01  0.22440822096E-03  0.17124000137E+03  0.17124000000E+03 0.  1.
       22    1    1    2    0    0 -0.14113336495E-02  0.15916530617E-02  0.11575755854E+00  0.11577710301E+00  0.00000000000E+00 0. -1.
</event>
<event>
 5   1  0.2192208E+09  0.9118800E+02  0.7818608E-02  0.1180000E+00
       11   -1    0    0    0    0  0.00000000000E+00  0.00000000000E+00  0.10559998763E+01  0.10560000000E+01  0.51109989000E-03 0.  1.
     -623   -1    0    0    0    0  0.00000000000E+00  0.00000000000E+00  0.47855275298E-10  0.17124000000E+03  0.17124000000E+03 0. -1.
       11    1    1    2    0    0  0.12980656440E-02 -0.34026933216E-02  0.79036787074E+00  0.79037642653E+00  0.51109989000E-03 0.  1.
     -623    1    1    2    0    0  0.62131817414E-03 -0.69036240501E-03  0.46907583864E-04  0.17124000000E+03  0.17124000000E+03 0. -1.
       22    1    1    2    0    0 -0.19193838152E-02  0.40930557234E-02  0.26558509306E+00  0.26562356596E+00  0.00000000000E+00 0. -1.
</event>
<event>
 5   1  0.2192208E+09  0.9118800E+02  0.7818608E-02  0.1180000E+00
       11   -1    0    0    0    0  0.00000000000E+00  0.00000000000E+00  0.10559998763E+01  0.10560000000E+01  0.51109989000E-03 0.  1.
     -623   -1    0    0    0    0  0.00000000000E+00  0.00000000000E+00  0.47855275298E-10  0.17124000000E+03  0.17124000000E+03 0. -1.
       11    1    1    2    0    0 -0.64940823515E-02  0.61247654490E-02  0.79599398283E+00  0.79604419964E+00  0.51109989000E-03 0.  1.
     -623    1    1    2    0    0  0.95424209959E-02  0.71847471808E-03  0.15832902331E-03  0.17124000027E+03  0.17124000000E+03 0. -1.
       22    1    1    2    0    0 -0.30483386601E-02 -0.68432401682E-02  0.25984756624E+00  0.25995553463E+00  0.00000000000E+00 0.  1.
</event>
<event>
 5   1  0.2192208E+09  0.9118800E+02  0.7818608E-02  0.1180000E+00
       11   -1    0    0    0    0  0.00000000000E+00  0.00000000000E+00  0.10559998763E+01  0.10560000000E+01  0.51109989000E-03 0. -1.
     -623   -1    0    0    0    0  0.00000000000E+00  0.00000000000E+00  0.47855275298E-10  0.17124000000E+03  0.17124000000E+03 0. -1.
       11    1    1    2    0    0 -0.71326650007E-03 -0.10931243562E-02  0.99449911690E+00  0.99450010478E+00  0.51109989000E-03 0. -1.
     -623    1    1    2    0    0  0.73403213088E-03  0.29767474317E-03  0.60140279461E-05  0.17124000000E+03  0.17124000000E+03 0. -1.
       22    1    1    2    0    0 -0.20765675897E-04  0.79544959473E-03  0.61494810308E-01  0.61499958261E-01  0.00000000000E+00 0.  1.
</event>
<event>
 5   1  0.2192208E+09  0.9118800E+02  0.7818608E-02  0.1180000E+00
       11   -1    0    0    0    0  0.00000000000E+00  0.00000000000E+00  0.10559998763E+01  0.10560000000E+01  0.51109989000E-03 0.  1.
     -623   -1    0    0    0    0  0.00000000000E+00  0.00000000000E+00  0.47855275298E-10  0.17124000000E+03  0.17124000000E+03 0. -1.
       11    1    1    2    0    0  0.17802103200E-02 -0.14024118602E-01  0.97602660612E+00  0.97612911140E+00  0.51109989000E-03 0.  1.
     -623    1    1    2    0    0 -0.10378745804E-02  0.16427296596E-01  0.14278646997E-03  0.17124000079E+03  0.17124000000E+03 0. -1.
       22    1    1    2    0    0 -0.74233572614E-03 -0.24031782077E-02  0.79830497474E-01  0.79870111148E-01  0.00000000000E+00 0. -1.
</event>
<event>
 5   1  0.2192208E+09  0.9118800E+02  0.7818608E-02  0.1180000E+00
       11   -1    0    0    0    0  0.00000000000E+00  0.00000000000E+00  0.10559998763E+01  0.10560000000E+01  0.51109989000E-03 0.  1.
     -623   -1    0    0    0    0  0.00000000000E+00  0.00000000000E+00  0.47855275298E-10  0.17124000000E+03  0.17124000000E+03 0. -1.
       11    1    1    2    0    0 -0.20364179765E-01 -0.65665916165E-02  0.77914470568E+00  0.77943861436E+00  0.51109989000E-03 0.  1.
     -623    1    1    2    0    0  0.23905098072E-01  0.15226579362E-01  0.45443111351E-03  0.17124000235E+03  0.17124000000E+03 0. -1.
       22    1    1    2    0    0 -0.35409183546E-02 -0.86599877760E-02  0.27640074167E+00  0.27655904160E+00  0.00000000000E+00 0.  1.
</event>
<event>
 5   1  0.2192208E+09  0.9118800E+02  0.7818608E-02  0.1180000E+00
       11   -1    0    0    0    0  0.00000000000E+00  0.00000000000E+00  0.10559998763E+01  0.10560000000E+01  0.51109989000E-03 0. -1.
     -623   -1    0    0    0    0  0.00000000000E+00  0.00000000000E+00  0.47855275298E-10  0.17124000000E+03  0.17124000000E+03 0.  1.
       11    1    1    2    0    0 -0.22763757687E-02  0.75824118568E-02  0.58273125200E+00  0.58278525044E+00  0.51109989000E-03 0. -1.
     -623    1    1    2    0    0 -0.13557755993E-03 -0.88384918213E-04  0.11936553906E-03  0.17124000000E+03  0.17124000000E+03 0.  1.
       22    1    1    2    0    0  0.24119533288E-02 -0.74940269386E-02  0.47314925961E+00  0.47321475022E+00  0.00000000000E+00 0. -1.
</event>
<event>
 5   1  0.2192208E+09  0.9118800E+02  0.7818608E-02  0.1180000E+00
       11   -1    0    0    0    0  0.00000000000E+00  0.00000000000E+00  0.10559998763E+01  0.10560000000E+01  0.51109989000E-03 0.  1.
     -623   -1    0    0    0    0  0.00000000000E+00  0.00000000000E+00  0.47855275298E-10  0.17124000000E+03  0.17124000000E+03 0.  1.
       11    1    1    2    0    0  0.74497909292E-02 -0.10621691708E-01  0.97188768633E+00  0.97197441108E+00  0.51109989000E-03 0.  1.
     -623    1    1    2    0    0 -0.81575375365E-02  0.11736967633E-01  0.97580615928E-04  0.17124000060E+03  0.17124000000E+03 0.  1.
       22    1    1    2    0    0  0.70774331661E-03 -0.11152711906E-02  0.84014183472E-01  0.84024566378E-01  0.00000000000E+00 0. -1.
</event>
<event>
 5   1  0.2192208E+09  0.9118800E+02  0.7818608E-02  0.1180000E+00
       11   -1    0    0    0    0  0.00000000000E+00  0.00000000000E+00  0.10559998763E+01  0.10560000000E+01  0.51109989000E-03 0. -1.
     -623   -1    0    0    0    0  0.00000000000E+00  0.00000000000E+00  0.47855275298E-10  0.17124000000E+03  0.17124000000E+03 0.  1.
       11    1    1    2    0    0 -0.94990819635E-02  0.96807264290E-02  0.60598378737E+00  0.60613576103E+00  0.51109989000E-03 0. -1.
     -623    1    1    2    0    0  0.27126748405E-01 -0.14811255272E-01  0.52941918899E-03  0.17124000279E+03  0.17124000000E+03 0.  1.
       22    1    1    2    0    0 -0.17627666444E-01  0.51305288441E-02  0.44948666991E+00  0.44986144909E+00  0.00000000000E+00 0. -1.
</event>
<event>
 5   1  0.2192208E+09  0.9118800E+02  0.7818608E-02  0.1180000E+00
       11   -1    0    0    0    0  0.00000000000E+00  0.00000000000E+00  0.10559998763E+01  0.10560000000E+01  0.51109989000E-03 0. -1.
     -623   -1    0    0    0    0  0.00000000000E+00  0.00000000000E+00  0.47855275298E-10  0.17124000000E+03  0.17124000000E+03 0. -1.
       11    1    1    2    0    0 -0.10306479328E-01 -0.34230472625E-02  0.71969268255E+00  0.71977479764E+00  0.51109989000E-03 0. -1.
     -623    1    1    2    0    0  0.92127915868E-02 -0.50325854686E-03  0.10694469641E-03  0.17124000025E+03  0.17124000000E+03 0. -1.
       22    1    1    2    0    0  0.10936877269E-02  0.39263058102E-02  0.33620025080E+00  0.33622495545E+00  0.00000000000E+00 0. -1.
</event>
<event>
 5   1  0.2192208E+09  0.9118800E+02  0.7818608E-02  0.1180000E+00
       11   -1    0    0    0    0  0.00000000000E+00  0.00000000000E+00  0.10559998763E+01  0.10560000000E+01  0.51109989000E-03 0.  1.
     -623   -1    0    0    0    0  0.00000000000E+00  0.00000000000E+00  0.47855275298E-10  0.17124000000E+03  0.17124000000E+03 0.  1.
       11    1    1    2    0    0 -0.62655795813E-02  0.19948962518E-03  0.98310854039E+00  0.98312865928E+00  0.51109989000E-03 0.  1.
     -623    1    1    2    0    0  0.34155627129E-02  0.19397074814E-02  0.10722391820E-03  0.17124000005E+03  0.17124000000E+03 0.  1.
       22    1    1    2    0    0  0.28500168687E-02 -0.21391971064E-02  0.72784111969E-01  0.72871295553E-01  0.00000000000E+00 0.  1.
</event>
<event>
 5   1  0.2192208E+09  0.9118800E+02  0.7818608E-02  0.1180000E+00
       11   -1    0    0    0    0  0.00000000000E+00  0.00000000000E+00  0.10559998763E+01  0.10560000000E+01  0.51109989000E-03 0.  1.
     -623   -1    0    0    0    0  0.00000000000E+00  0.00000000000E+00  0.47855275298E-10  0.17124000000E+03  0.17124000000E+03 0.  1.
       11    1    1    2    0    0  0.88336466525E-03 -0.11083035146E-01  0.77822261862E+00  0.77830220310E+00  0.51109989000E-03 0.  1.
     -623    1    1    2    0    0 -0.18570415865E-02  0.14037700048E-01  0.97472490902E-04  0.17124000059E+03  0.17124000000E+03 0.  1.
       22    1    1    2    0    0  0.97367721717E-03 -0.29546671389E-02  0.27767995350E+00  0.27769737968E+00  0.00000000000E+00 0. -1.
</event>
<event>
 5   1  0.2192208E+09  0.9118800E+02  0.7818608E-02  0.1180000E+00
       11   -1    0    0    0    0  0.00000000000E+00  0.00000000000E+00  0.10559998763E+01  0.10560000000E+01  0.51109989000E-03 0. -1.
     -623   -1    0    0    0    0  0.00000000000E+00  0.00000000000E+00  0.47855275298E-10  0.17124000000E+03  0.17124000000E+03 0.  1.
       11    1    1    2    0    0  0.73794136993E-02  0.28790854974E-02  0.90234230778E+00  0.90237721963E+00  0.51109989000E-03 0. -1.
     -623    1    1    2    0    0 -0.67211892132E-02 -0.47529918873E-02  0.47825833707E-04  0.17124000020E+03  0.17124000000E+03 0.  1.
       22    1    1    2    0    0 -0.65822446204E-03  0.18739064069E-02  0.15360974653E+00  0.15362258628E+00  0.00000000000E+00 0. -1.
</event>
<event>
 5   1  0.2192208E+09  0.9118800E+02  0.7818608E-02  0.1180000E+00
       11   -1    0    0    0    0  0.00000000000E+00  0.00000000000E+00  0.10559998763E+01  0.10560000000E+01  0.51109989000E-03 0.  1.
     -623   -1    0    0    0    0  0.00000000000E+00  0.00000000000E+00  0.47855275298E-10  0.17124000000E+03  0.17124000000E+03 0.  1.
       11    1    1    2    0    0 -0.44634233062E-03  0.17375273370E-02  0.89328751186E+00  0.89328945941E+00  0.51109989000E-03 0.  1.
     -623    1    1    2    0    0  0.41975198816E-04  0.41393023701E-03  0.16551489152E-04  0.17124000000E+03  0.17124000000E+03 0.  1.
       22    1    1    2    0    0  0.40436713180E-03 -0.21514575741E-02  0.16269581317E+00  0.16271054024E+00  0.00000000000E+00 0. -1.
</event>
<event>
 5   1  0.2192208E+09  0.9118800E+02  0.7818608E-02  0.1180000E+00
       11   -1    0    0    0    0  0.00000000000E+00  0.00000000000E+00  0.10559998763E+01  0.10560000000E+01  0.51109989000E-03 0.  1.
     -623   -1    0    0    0    0  0.00000000000E+00  0.00000000000E+00  0.47855275298E-10  0.17124000000E+03  0.17124000000E+03 0.  1.
       11    1    1    2    0    0  0.10332316472E-02  0.14818171918E-03  0.99447957737E+00  0.99448025650E+00  0.51109989000E-03 0.  1.
     -623    1    1    2    0    0 -0.13922361295E-02  0.49256563172E-03  0.49463062723E-05  0.17124000001E+03  0.17124000000E+03 0.  1.
       22    1    1    2    0    0  0.35900447455E-03 -0.64074734818E-03  0.61515346832E-01  0.61519731284E-01  0.00000000000E+00 0.  1.
</event>
<event>
 5   1  0.2192208E+09  0.9118800E+02  0.7818608E-02  0.1180000E+00
       11   -1    0    0    0    0  0.00000000000E+00  0.00000000000E+00  0.10559998763E+01  0.10560000000E+01  0.51109989000E-03 0. -1.
     -623   -1    0    0    0    0  0.00000000000E+00  0.00000000000E+00  0.47855275298E-10  0.17124000000E+03  0.17124000000E+03 0.  1.
       11    1    1    2    0    0 -0.44169872052E-04  0.19797991096E-02  0.90830203781E+00  0.90830434033E+00  0.51109989000E-03 0. -1.
     -623    1    1    2    0    0  0.15761854773E-02  0.82003478324E-03  0.36675686079E-04  0.17124000001E+03  0.17124000000E+03 0.  1.
       22    1    1    2    0    0 -0.15320156150E-02 -0.27998338979E-02  0.14766116941E+00  0.14769565699E+00  0.00000000000E+00 0. -1.
</event>
<event>
 5   1  0.2192208E+09  0.9118800E+02  0.7818608E-02  0.1180000E+00
       11   -1    0    0    0    0  0.00000000000E+00  0.00000000000E+00  0.10559998763E+01  0.10560000000E+01  0.51109989000E-03 0. -1.
     -623   -1    0    0    0    0  0.00000000000E+00  0.00000000000E+00  0.47855275298E-10  0.17124000000E+03  0.17124000000E+03 0.  1.
       11    1    1    2    0    0 -0.21212263683E-02  0.99007659298E-02  0.92388028706E+00  0.92393591272E+00  0.51109989000E-03 0. -1.
     -623    1    1    2    0    0  0.26545884949E-02 -0.11349788269E-01  0.64925528799E-04  0.17124000040E+03  0.17124000000E+03 0.  1.
       22    1    1    2    0    0 -0.53336489891E-03  0.14490341925E-02  0.13205576655E+00  0.13206479341E+00  0.00000000000E+00 0.  1.
</event>
<event>
 5   1  0.2192208E+09  0.9118800E+02  0.7818608E-02  0.1180000E+00
       11   -1    0    0    0    0  0.00000000000E+00  0.00000000000E+00  0.10559998763E+01  0.10560000000E+01  0.51109989000E-03 0. -1.
     -623   -1    0    0    0    0  0.00000000000E+00  0.00000000000E+00  0.47855275298E-10  0.17124000000E+03  0.17124000000E+03 0. -1.
       11    1    1    2    0    0  0.25369417285E-02 -0.23738434826E-02  0.86594332363E+00  0.86595044441E+00  0.51109989000E-03 0. -1.
     -623    1    1    2    0    0  0.64780673624E-04  0.16924763975E-03  0.37594887996E-04  0.17124000000E+03  0.17124000000E+03 0. -1.
       22    1    1    2    0    0 -0.26017224019E-02  0.22045958433E-02  0.19001895465E+00  0.19004955230E+00  0.00000000000E+00 0. -1.
</event>
<event>
 5   1  0.2192208E+09  0.9118800E+02  0.7818608E-02  0.1180000E+00
       11   -1    0    0    0    0  0.00000000000E+00  0.00000000000E+00  0.10559998763E+01  0.10560000000E+01  0.51109989000E-03 0.  1.
     -623   -1    0    0    0    0  0.00000000000E+00  0.00000000000E+00  0.47855275298E-10  0.17124000000E+03  0.17124000000E+03 0. -1.
       11    1    1    2    0    0 -0.31495514030E-03  0.40779961686E-02  0.78055640837E+00  0.78056729186E+00  0.51109989000E-03 0.  1.
     -623    1    1    2    0    0 -0.17946698118E-02 -0.76588205765E-02  0.42298129117E-04  0.17124000018E+03  0.17124000000E+03 0. -1.
       22    1    1    2    0    0  0.21096250308E-02  0.35808247437E-02  0.27540121617E+00  0.27543257376E+00  0.00000000000E+00 0.  1.
</event>
<event>
 5   1  0.2192208E+09  0.9118800E+02  0.7818608E-02  0.1180000E+00
       11   -1    0    0    0    0  0.00000000000E+00  0.00000000000E+00  0.10559998763E+01  0.10560000000E+01  0.51109989000E-03 0.  1.
     -623   -1    0    0    0    0  0.00000000000E+00  0.00000000000E+00  0.47855275298E-10  0.17124000000E+03  0.17124000000E+03 0.  1.
       11    1    1    2    0    0 -0.57248068364E-02  0.11655939956E-01  0.92391509595E+00  0.92400649354E+00  0.51109989000E-03 0.  1.
     -623    1    1    2    0    0  0.66616071520E-02 -0.13179775402E-01  0.10403192776E-03  0.17124000064E+03  0.17124000000E+03 0.  1.
       22    1    1    2    0    0 -0.93680768662E-03  0.15238500293E-02  0.13198191682E+00  0.13199403811E+00  0.00000000000E+00 0.  1.
</event>
<event>
 5   1  0.2192208E+09  0.9118800E+02  0.7818608E-02  0.1180000E+00
       11   -1    0    0    0    0  0.00000000000E+00  0.00000000000E+00  0.10559998763E+01  0.10560000000E+01  0.51109989000E-03 0.  1.
     -623   -1    0    0    0    0  0.00000000000E+00  0.00000000000E+00  0.47855275298E-10  0.17124000000E+03  0.17124000000E+03 0. -1.
       11    1    1    2    0    0 -0.54474801809E-02  0.10813053132E-01  0.41301389148E+00  0.41319164191E+00  0.51109989000E-03 0.  1.
     -623    1    1    2    0    0  0.45708078606E-03 -0.55161232610E-03  0.27891181671E-03  0.17124000000E+03  0.17124000000E+03 0. -1.
       22    1    1    2    0    0  0.49903993950E-02 -0.10261440807E-01  0.64270707273E+00  0.64280835603E+00  0.00000000000E+00 0. -1.
</event>
<event>
 5   1  0.2192208E+09  0.9118800E+02  0.7818608E-02  0.1180000E+00
       11   -1    0    0    0    0  0.00000000000E+00  0.00000000000E+00  0.10559998763E+01  0.10560000000E+01  0.51109989000E-03 0.  1.
     -623   -1    0    0    0    0  0.00000000000E+00  0.00000000000E+00  0.47855275298E-10  0.17124000000E+03  0.17124000000E+03 0. -1.
       11    1    1    2    0    0  0.11578859723E-01  0.21985844433E-01  0.71488515796E+00  0.71531706092E+00  0.51109989000E-03 0.  1.
     -623    1    1    2    0    0 -0.17054003396E-01 -0.34333622556E-01  0.70394398482E-03  0.17124000429E+03  0.17124000000E+03 0. -1.
       22    1    1    2    0    0  0.54751440173E-02  0.12347778817E-01  0.34041079573E+00  0.34067866779E+00  0.00000000000E+00 0. -1.
</event>
<event>
 5   1  0.2192208E+09  0.9118800E+02  0.7818608E-02  0.1180000E+00
       11   -1    0    0    0    0  0.00000000000E+00  0.00000000000E+00  0.10559998763E+01  0.10560000000E+01  0.51109989000E-03 0. -1.
     -623   -1    0    0    0    0  0.00000000000E+00  0.00000000000E+00  0.47855275298E-10  0.17124000000E+03  0.17124000000E+03 0. -1.
       11    1    1    2    0    0 -0.65538917594E-02 -0.30274890553E-02  0.34760632245E+00  0.34768165873E+00  0.51109989000E-03 0. -1.
     -623    1    1    2    0    0  0.11929629735E-01 -0.59283866230E-02  0.15275294215E-03  0.17124000052E+03  0.17124000000E+03 0. -1.
       22    1    1    2    0    0 -0.53757379415E-02  0.89558756613E-02  0.70824079794E+00  0.70831782000E+00  0.00000000000E+00 0. -1.
</event>
<event>
 5   1  0.2192208E+09  0.9118800E+02  0.7818608E-02  0.1180000E+00
       11   -1    0    0    0    0  0.00000000000E+00  0.00000000000E+00  0.10559998763E+01  0.10560000000E+01  0.51109989000E-03 0.  1.
     -623   -1    0    0    0    0  0.00000000000E+00  0.00000000000E+00  0.47855275298E-10  0.17124000000E+03  0.17124000000E+03 0. -1.
       11    1    1    2    0    0 -0.53266466185E-02  0.43758010991E-02  0.49521792547E+00  0.49526616655E+00  0.51109989000E-03 0.  1.
     -623    1    1    2    0    0  0.97320016227E-02  0.24909715217E-02  0.10776586125E-03  0.17124000029E+03  0.17124000000E+03 0. -1.
       22    1    1    2    0    0 -0.44053549888E-02 -0.68667726169E-02  0.56067418336E+00  0.56073353708E+00  0.00000000000E+00 0.  1.
</event>
<event>
 5   1  0.2192208E+09  0.9118800E+02  0.7818608E-02  0.1180000E+00
       11   -1    0    0    0    0  0.00000000000E+00  0.00000000000E+00  0.10559998763E+01  0.10560000000E+01  0.51109989000E-03 0. -1.
     -623   -1    0    0    0    0  0.00000000000E+00  0.00000000000E+00  0.47855275298E-10  0.17124000000E+03  0.17124000000E+03 0.  1.
       11    1    1    2    0    0  0.69024945711E-02  0.11235019200E-01  0.46319252220E+00  0.46338045269E+00  0.51109989000E-03 0. -1.
     -623    1    1    2    0    0  0.39365788093E-03 -0.60339890738E-04  0.33809790239E-03  0.17124000000E+03  0.17124000000E+03 0.  1.
       22    1    1    2    0    0 -0.72961524521E-02 -0.11174679309E-01  0.59246925625E+00  0.59261954650E+00  0.00000000000E+00 0.  1.
</event>
<event>
 5   1  0.2192208E+09  0.9118800E+02  0.7818608E-02  0.1180000E+00
       11   -1    0    0    0    0  0.00000000000E+00  0.00000000000E+00  0.10559998763E+01  0.10560000000E+01  0.51109989000E-03 0.  1.
     -623   -1    0    0    0    0  0.00000000000E+00  0.00000000000E+00  0.47855275298E-10  0.17124000000E+03  0.17124000000E+03 0.  1.
       11    1    1    2    0    0 -0.17291453260E-01 -0.11205426020E-01  0.88368966673E+00  0.88392999963E+00  0.51109989000E-03 0.  1.
     -623    1    1    2    0    0  0.18635714197E-01  0.14868969479E-01  0.28612634684E-03  0.17124000166E+03  0.17124000000E+03 0.  1.
       22    1    1    2    0    0 -0.13442609443E-02 -0.36635434657E-02  0.17202408373E+00  0.17206834099E+00  0.00000000000E+00 0.  1.
</event>
<event>
 5   1  0.2192208E+09  0.9118800E+02  0.7818608E-02  0.1180000E+00
       11   -1    0    0    0    0  0.00000000000E+00  0.00000000000E+00  0.10559998763E+01  0.10560000000E+01  0.51109989000E-03 0. -1.
     -623   -1    0    0    0    0  0.00000000000E+00  0.00000000000E+00  0.47855275298E-10  0.17124000000E+03  0.17124000000E+03 0.  1.
       11    1    1    2    0    0 -0.14240581955E-03 -0.11071771424E-02  0.95345075258E+00  0.95345154305E+00  0.51109989000E-03 0. -1.
     -623    1    1    2    0    0  0.28839069288E-04 -0.14085141551E-04  0.68598313918E-05  0.17124000000E+03  0.17124000000E+03 0.  1.
       22    1    1    2    0    0  0.11356675004E-03  0.11212622841E-02  0.10254227198E+00  0.10254846498E+00  0.00000000000E+00 0.  1.
</event>
<event>
 5   1  0.2192208E+09  0.9118800E+02  0.7818608E-02  0.1180000E+00
       11   -1    0    0    0    0  0.00000000000E+00  0.00000000000E+00  0.10559998763E+01  0.10560000000E+01  0.51109989000E-03 0. -1.
     -623   -1    0    0    0    0  0.00000000000E+00  0.00000000000E+00  0.47855275298E-10  0.17124000000E+03  0.17124000000E+03 0.  1.
       11    1    1    2    0    0  0.85429816571E-02  0.77023862915E-02  0.92137918744E+00  0.92145112598E+00  0.51109989000E-03 0. -1.
     -623    1    1    2    0    0 -0.10899284813E-01 -0.93995485718E-02  0.10375984477E-03  0.17124000060E+03  0.17124000000E+03 0.  1.
       22    1    1    2    0    0  0.23563042876E-02  0.16971632564E-02  0.13451703873E+00  0.13454837882E+00  0.00000000000E+00 0.  1.
</event>
<event>
 5   1  0.2192208E+09  0.9118800E+02  0.7818608E-02  0.1180000E+00
       11   -1    0    0    0    0  0.00000000000E+00  0.00000000000E+00  0.10559998763E+01  0.10560000000E+01  0.51109989000E-03 0. -1.
     -623   -1    0    0    0    0  0.00000000000E+00  0.00000000000E+00  0.47855275298E-10  0.17124000000E+03  0.17124000000E+03 0. -1.
       11    1    1    2    0    0 -0.18471937707E-02 -0.10431966099E-01  0.98682201965E+00  0.98687901879E+00  0.51109989000E-03 0. -1.
     -623    1    1    2    0    0  0.19718083360E-02  0.11247157434E-01  0.62175817607E-04  0.17124000038E+03  0.17124000000E+03 0. -1.
       22    1    1    2    0    0 -0.12461526030E-03 -0.81519529972E-03  0.69116053096E-01  0.69120972707E-01  0.00000000000E+00 0. -1.
</event>
<event>
 5   1  0.2192208E+09  0.9118800E+02  0.7818608E-02  0.1180000E+00
       11   -1    0    0    0    0  0.00000000000E+00  0.00000000000E+00  0.10559998763E+01  0.10560000000E+01  0.51109989000E-03 0. -1.
     -623   -1    0    0    0    0  0.00000000000E+00  0.00000000000E+00  0.47855275298E-10  0.17124000000E+03  0.17124000000E+03 0.  1.
       11    1    1    2    0    0 -0.77744609648E-02  0.44225346190E-02  0.10032944363E+01  0.10033344349E+01  0.51109989000E-03 0. -1.
     -623    1    1    2    0    0  0.81152162084E-02 -0.50141980158E-02  0.44566695273E-04  0.17124000027E+03  0.17124000000E+03 0.  1.
       22    1    1    2    0    0 -0.34075651853E-03  0.59166418456E-03  0.52661039259E-01  0.52665465320E-01  0.00000000000E+00 0.  1.
</event>
<event>
 5   1  0.2192208E+09  0.9118800E+02  0.7818608E-02  0.1180000E+00
       11   -1    0    0    0    0  0.00000000000E+00  0.00000000000E+00  0.10559998763E+01  0.10560000000E+01  0.51109989000E-03 0. -1.
     -623   -1    0    0    0    0  0.00000000000E+00  0.00000000000E+00  0.47855275298E-10  0.17124000000E+03  0.17124000000E+03 0.  1.
       11    1    1    2    0    0  0.82283092469E-03 -0.10516292830E-02  0.98010065602E+00  0.98010169888E+00  0.51109989000E-03 0. -1.
     -623    1    1    2    0    0  0.56607260713E-03  0.13526583670E-03  0.19162431203E-04  0.17124000000E+03  0.17124000000E+03 0.  1.
       22    1    1    2    0    0 -0.13889035270E-02  0.91636344751E-03  0.75880048864E-01  0.75898291091E-01  0.00000000000E+00 0. -1.
</event>
<event>
 5   1  0.2192208E+09  0.9118800E+02  0.7818608E-02  0.1180000E+00
       11   -1    0    0    0    0  0.00000000000E+00  0.00000000000E+00  0.10559998763E+01  0.10560000000E+01  0.51109989000E-03 0.  1.
     -623   -1    0    0    0    0  0.00000000000E+00  0.00000000000E+00  0.47855275298E-10  0.17124000000E+03  0.17124000000E+03 0. -1.
       11    1    1    2    0    0 -0.31673059972E-03 -0.19210864159E-01  0.99122142865E+00  0.99140775641E+00  0.51109989000E-03 0.  1.
     -623    1    1    2    0    0  0.11668210270E-03  0.20550721370E-01  0.20164558888E-03  0.17124000123E+03  0.17124000000E+03 0. -1.
       22    1    1    2    0    0  0.20004843264E-03 -0.13398685503E-02  0.64577384687E-01  0.64591592952E-01  0.00000000000E+00 0.  1.
</event>
<event>
 5   1  0.2192208E+09  0.9118800E+02  0.7818608E-02  0.1180000E+00
       11   -1    0    0    0    0  0.00000000000E+00  0.00000000000E+00  0.10559998763E+01  0.10560000000E+01  0.51109989000E-03 0.  1.
     -623   -1    0    0    0    0  0.00000000000E+00  0.00000000000E+00  0.47855275298E-10  0.17124000000E+03  0.17124000000E+03 0.  1.
       11    1    1    2    0    0  0.30307133300E-02  0.31189696662E-02  0.84889020713E+00  0.84890150087E+00  0.51109989000E-03 0.  1.
     -623    1    1    2    0    0 -0.49950691196E-02 -0.54255004508E-02  0.33490527344E-04  0.17124000016E+03  0.17124000000E+03 0.  1.
       22    1    1    2    0    0  0.19643559109E-02  0.23065309164E-02  0.20707620436E+00  0.20709836598E+00  0.00000000000E+00 0. -1.
</event>
<event>
 5   1  0.2192208E+09  0.9118800E+02  0.7818608E-02  0.1180000E+00
       11   -1    0    0    0    0  0.00000000000E+00  0.00000000000E+00  0.10559998763E+01  0.10560000000E+01  0.51109989000E-03 0.  1.
     -623   -1    0    0    0    0  0.00000000000E+00  0.00000000000E+00  0.47855275298E-10  0.17124000000E+03  0.17124000000E+03 0.  1.
       11    1    1    2    0    0  0.37095897816E-01  0.16179514573E-01  0.96918221126E+00  0.97002695950E+00  0.51109989000E-03 0.  1.
     -623    1    1    2    0    0 -0.40422846392E-01 -0.17805672591E-01  0.93011788955E-03  0.17124000570E+03  0.17124000000E+03 0.  1.
       22    1    1    2    0    0  0.33269640489E-02  0.16261648337E-02  0.85887951082E-01  0.85967745364E-01  0.00000000000E+00 0. -1.
</event>
<event>
 5   1  0.2192208E+09  0.9118800E+02  0.7818608E-02  0.1180000E+00
       11   -1    0    0    0    0  0.00000000000E+00  0.00000000000E+00  0.10559998763E+01  0.10560000000E+01  0.51109989000E-03 0. -1.
     -623   -1    0    0    0    0  0.00000000000E+00  0.00000000000E+00  0.47855275298E-10  0.17124000000E+03  0.17124000000E+03 0. -1.
       11    1    1    2    0    0 -0.44684896900E-02 -0.43554304987E-02  0.53742273117E+00  0.53745919880E+00  0.51109989000E-03 0. -1.
     -623    1    1    2    0    0 -0.14787980438E-02 -0.10877148073E-02  0.99031661132E-04  0.17124000001E+03  0.17124000000E+03 0. -1.
       22    1    1    2    0    0  0.59472877389E-02  0.54431453098E-02  0.51847811718E+00  0.51854079498E+00  0.00000000000E+00 0.  1.
</event>
<event>
 5   1  0.2192208E+09  0.9118800E+02  0.7818608E-02  0.1180000E+00
       11   -1    0    0    0    0  0.00000000000E+00  0.00000000000E+00  0.10559998763E+01  0.10560000000E+01  0.51109989000E-03 0. -1.
     -623   -1    0    0    0    0  0.00000000000E+00  0.00000000000E+00  0.47855275298E-10  0.17124000000E+03  0.17124000000E+03 0.  1.
       11    1    1    2    0    0 -0.81389123364E-02  0.16061022311E-02  0.74813700302E+00  0.74818317141E+00  0.51109989000E-03 0. -1.
     -623    1    1    2    0    0  0.10784068367E-01  0.16022415753E-02  0.74478545653E-04  0.17124000035E+03  0.17124000000E+03 0.  1.
       22    1    1    2    0    0 -0.26451560127E-02 -0.32083438037E-02  0.30778839305E+00  0.30781647977E+00  0.00000000000E+00 0. -1.
</event>
<event>
 5   1  0.2192208E+09  0.9118800E+02  0.7818608E-02  0.1180000E+00
       11   -1    0    0    0    0  0.00000000000E+00  0.00000000000E+00  0.10559998763E+01  0.10560000000E+01  0.51109989000E-03 0. -1.
     -623   -1    0    0    0    0  0.00000000000E+00  0.00000000000E+00  0.47855275298E-10  0.17124000000E+03  0.17124000000E+03 0.  1.
       11    1    1    2    0    0 -0.52334254200E-02  0.69886418355E-02  0.97053720168E+00  0.97057660745E+00  0.51109989000E-03 0. -1.
     -623    1    1    2    0    0  0.53876433585E-02 -0.78487643058E-02  0.44016363222E-04  0.17124000026E+03  0.17124000000E+03 0.  1.
       22    1    1    2    0    0 -0.15421663250E-03  0.86012056772E-03  0.85418402351E-01  0.85422871940E-01  0.00000000000E+00 0.  1.
</event>
<event>
 5   1  0.2192208E+09  0.9118800E+02  0.7818608E-02  0.1180000E+00
       11   -1    0    0    0    0  0.00000000000E+00  0.00000000000E+00  0.10559998763E+01  0.10560000000E+01  0.51109989000E-03 0.  1.
     -623   -1    0    0    0    0  0.00000000000E+00  0.00000000000E+00  0.47855275298E-10  0.17124000000E+03  0.17124000000E+03 0. -1.
       11    1    1    2    0    0 -0.63442195337E-02 -0.55800904328E-02  0.88124107661E+00  0.88128172730E+00  0.51109989000E-03 0.  1.
     -623    1    1    2    0    0 -0.53986623821E-03 -0.61651965864E-03  0.28620753524E-03  0.17124000000E+03  0.17124000000E+03 0. -1.
       22    1    1    2    0    0  0.68840857714E-02  0.61966100908E-02  0.17447259123E+00  0.17471826952E+00  0.00000000000E+00 0.  1.
</event>
<event>
 5   1  0.2192208E+09  0.9118800E+02  0.7818608E-02  0.1180000E+00
       11   -1    0    0    0    0  0.00000000000E+00  0.00000000000E+00  0.10559998763E+01  0.10560000000E+01  0.51109989000E-03 0.  1.
     -623   -1    0    0    0    0  0.00000000000E+00  0.00000000000E+00  0.47855275298E-10  0.17124000000E+03  0.17124000000E+03 0. -1.
       11    1    1    2    0    0 -0.73659030743E-02 -0.19030780701E-01  0.89415589801E+00  0.89438887421E+00  0.51109989000E-03 0.  1.
     -623    1    1    2    0    0  0.89525174517E-02  0.21599392019E-01  0.26265249755E-03  0.17124000160E+03  0.17124000000E+03 0. -1.
       22    1    1    2    0    0 -0.15866131439E-02 -0.25686083417E-02  0.16158118040E+00  0.16160938385E+00  0.00000000000E+00 0.  1.
</event>
<event>
 5   1  0.2192208E+09  0.9118800E+02  0.7818608E-02  0.1180000E+00
       11   -1    0    0    0    0  0.00000000000E+00  0.00000000000E+00  0.10559998763E+01  0.10560000000E+01  0.51109989000E-03 0.  1.
     -623   -1    0    0    0    0  0.00000000000E+00  0.00000000000E+00  0.47855275298E-10  0.17124000000E+03  0.17124000000E+03 0. -1.
       11    1    1    2    0    0  0.32468185295E-01 -0.53826351963E-01  0.67245228636E+00  0.67538418539E+00  0.51109989000E-03 0.  1.
     -623    1    1    2    0    0 -0.25073379342E-01 -0.65737188327E-02  0.78297211731E-02  0.17124000214E+03  0.17124000000E+03 0. -1.
       22    1    1    2    0    0 -0.73948059526E-02  0.60400070796E-01  0.37571786885E+00  0.38061367380E+00  0.00000000000E+00 0. -1.
</event>
<event>
 5   1  0.2192208E+09  0.9118800E+02  0.7818608E-02  0.1180000E+00
       11   -1    0    0    0    0  0.00000000000E+00  0.00000000000E+00  0.10559998763E+01  0.10560000000E+01  0.51109989000E-03 0. -1.
     -623   -1    0    0    0    0  0.00000000000E+00  0.00000000000E+00  0.47855275298E-10  0.17124000000E+03  0.17124000000E+03 0. -1.
       11    1    1    2    0    0 -0.35445432997E-03 -0.12551345275E-02  0.93452651099E+00  0.93452756083E+00  0.51109989000E-03 0. -1.
     -623    1    1    2    0    0 -0.17258609574E-04  0.15943891506E-04  0.78158857095E-05  0.17124000000E+03  0.17124000000E+03 0. -1.
       22    1    1    2    0    0  0.37171294040E-03  0.12391906352E-02  0.12146560195E+00  0.12147249162E+00  0.00000000000E+00 0.  1.
</event>
<event>
 5   1  0.2192208E+09  0.9118800E+02  0.7818608E-02  0.1180000E+00
       11   -1    0    0    0    0  0.00000000000E+00  0.00000000000E+00  0.10559998763E+01  0.10560000000E+01  0.51109989000E-03 0.  1.
     -623   -1    0    0    0    0  0.00000000000E+00  0.00000000000E+00  0.47855275298E-10  0.17124000000E+03  0.17124000000E+03 0.  1.
       11    1    1    2    0    0  0.22805880052E-01 -0.12308559716E-01  0.96332043783E+00  0.96366910087E+00  0.51109989000E-03 0.  1.
     -623    1    1    2    0    0 -0.25027737418E-01  0.13480247958E-01  0.38507448888E-03  0.17124000236E+03  0.17124000000E+03 0.  1.
       22    1    1    2    0    0  0.22218734570E-02 -0.11716969092E-02  0.92295042744E-01  0.92329218075E-01  0.00000000000E+00 0.  1.
</event>
<event>
 5   1  0.2192208E+09  0.9118800E+02  0.7818608E-02  0.1180000E+00
       11   -1    0    0    0    0  0.00000000000E+00  0.00000000000E+00  0.10559998763E+01  0.10560000000E+01  0.51109989000E-03 0.  1.
     -623   -1    0    0    0    0  0.00000000000E+00  0.00000000000E+00  0.47855275298E-10  0.17124000000E+03  0.17124000000E+03 0.  1.
       11    1    1    2    0    0 -0.73870162944E-03  0.28043318169E-02  0.90689116542E+00  0.90689594613E+00  0.51109989000E-03 0.  1.
     -623    1    1    2    0    0  0.32598011190E-03 -0.10520482847E-03  0.29660928001E-04  0.17124000000E+03  0.17124000000E+03 0.  1.
       22    1    1    2    0    0  0.41272151872E-03 -0.26991269888E-02  0.14907904619E+00  0.14910404970E+00  0.00000000000E+00 0.  1.
</event>
<event>
 5   1  0.2192208E+09  0.9118800E+02  0.7818608E-02  0.1180000E+00
       11   -1    0    0    0    0  0.00000000000E+00  0.00000000000E+00  0.10559998763E+01  0.10560000000E+01  0.51109989000E-03 0. -1.
     -623   -1    0    0    0    0  0.00000000000E+00  0.00000000000E+00  0.47855275298E-10  0.17124000000E+03  0.17124000000E+03 0. -1.
       11    1    1    2    0    0  0.78669420663E-02  0.54994483190E-02  0.63651075518E+00  0.63658332950E+00  0.51109989000E-03 0. -1.
     -623    1    1    2    0    0 -0.41256131672E-03 -0.90722076757E-03  0.16384809343E-03  0.17124000000E+03  0.17124000000E+03 0. -1.
       22    1    1    2    0    0 -0.74543807498E-02 -0.45922275518E-02  0.41932527264E+00  0.41941666707E+00  0.00000000000E+00 0. -1.
</event>
<event>
 5   1  0.2192208E+09  0.9118800E+02  0.7818608E-02  0.1180000E+00
       11   -1    0    0    0    0  0.00000000000E+00  0.00000000000E+00  0.10559998763E+01  0.10560000000E+01  0.51109989000E-03 0. -1.
     -623   -1    0    0    0    0  0.00000000000E+00  0.00000000000E+00  0.47855275298E-10  0.17124000000E+03  0.17124000000E+03 0.  1.
       11    1    1    2    0    0 -0.12905673541E-02 -0.22010610442E-02  0.91986521929E+00  0.91986889996E+00  0.51109989000E-03 0. -1.
     -623    1    1    2    0    0 -0.37808463824E-04 -0.95663736910E-04  0.29415212755E-04  0.17124000000E+03  0.17124000000E+03 0.  1.
       22    1    1    2    0    0  0.13283758181E-02  0.22967247816E-02  0.13610524708E+00  0.13613110522E+00  0.00000000000E+00 0. -1.
</event>
<event>
 5   1  0.2192208E+09  0.9118800E+02  0.7818608E-02  0.1180000E+00
       11   -1    0    0    0    0  0.00000000000E+00  0.00000000000E+00  0.10559998763E+01  0.10560000000E+01  0.51109989000E-03 0. -1.
     -623   -1    0    0    0    0  0.00000000000E+00  0.00000000000E+00  0.47855275298E-10  0.17124000000E+03  0.17124000000E+03 0. -1.
       11    1    1    2    0    0 -0.48982987436E-02  0.16095883074E-02  0.16073163016E+00  0.16081511826E+00  0.51109989000E-03 0. -1.
     -623    1    1    2    0    0  0.75363965250E-02 -0.13603203210E-01  0.16830669745E-03  0.17124000071E+03  0.17124000000E+03 0. -1.
       22    1    1    2    0    0 -0.26380977959E-02  0.11993614929E-01  0.89509994154E+00  0.89518417753E+00  0.00000000000E+00 0. -1.
</event>
<event>
 5   1  0.2192208E+09  0.9118800E+02  0.7818608E-02  0.1180000E+00
       11   -1    0    0    0    0  0.00000000000E+00  0.00000000000E+00  0.10559998763E+01  0.10560000000E+01  0.51109989000E-03 0.  1.
     -623   -1    0    0    0    0  0.00000000000E+00  0.00000000000E+00  0.47855275298E-10  0.17124000000E+03  0.17124000000E+03 0.  1.
       11    1    1    2    0    0  0.14317969890E-02  0.62951720019E-02  0.98254728591E+00  0.98256862839E+00  0.51109989000E-03 0.  1.
     -623    1    1    2    0    0 -0.18199236951E-02 -0.71998731939E-02  0.27979053781E-04  0.17124000016E+03  0.17124000000E+03 0.  1.
       22    1    1    2    0    0  0.38812661816E-03  0.90470084396E-03  0.73424560363E-01  0.73431159533E-01  0.00000000000E+00 0.  1.
</event>
<event>
 5   1  0.2192208E+09  0.9118800E+02  0.7818608E-02  0.1180000E+00
       11   -1    0    0    0    0  0.00000000000E+00  0.00000000000E+00  0.10559998763E+01  0.10560000000E+01  0.51109989000E-03 0.  1.
     -623   -1    0    0    0    0  0.00000000000E+00  0.00000000000E+00  0.47855275298E-10  0.17124000000E+03  0.17124000000E+03 0. -1.
       11    1    1    2    0    0  0.85023092183E-02  0.73292325634E-02  0.99573349588E+00  0.99579689844E+00  0.51109989000E-03 0.  1.
     -623    1    1    2    0    0 -0.91913550590E-02 -0.84189210391E-02  0.77539249888E-04  0.17124000045E+03  0.17124000000E+03 0. -1.
       22    1    1    2    0    0  0.68904470384E-03  0.10896874344E-02  0.60188710628E-01  0.60202517292E-01  0.00000000000E+00 0.  1.
</event>
<event>
 5   1  0.2192208E+09  0.9118800E+02  0.7818608E-02  0.1180000E+00
       11   -1    0    0    0    0  0.00000000000E+00  0.00000000000E+00  0.10559998763E+01  0.10560000000E+01  0.51109989000E-03 0.  1.
     -623   -1    0    0    0    0  0.00000000000E+00  0.00000000000E+00  0.47855275298E-10  0.17124000000E+03  0.17124000000E+03 0.  1.
       11    1    1    2    0    0  0.10246534680E-02  0.57400426367E-03  0.10059421321E+01  0.10059429476E+01  0.51109989000E-03 0.  1.
     -623    1    1    2    0    0 -0.29888332310E-03  0.10657605933E-03  0.10581135491E-04  0.17124000000E+03  0.17124000000E+03 0.  1.
       22    1    1    2    0    0 -0.72577014710E-03 -0.68058032220E-03  0.50047155219E-01  0.50057044233E-01  0.00000000000E+00 0.  1.
</event>
<event>
 5   1  0.2192208E+09  0.9118800E+02  0.7818608E-02  0.1180000E+00
       11   -1    0    0    0    0  0.00000000000E+00  0.00000000000E+00  0.10559998763E+01  0.10560000000E+01  0.51109989000E-03 0. -1.
     -623   -1    0    0    0    0  0.00000000000E+00  0.00000000000E+00  0.47855275298E-10  0.17124000000E+03  0.17124000000E+03 0. -1.
       11    1    1    2    0    0 -0.48031751798E-02 -0.13637843385E-01  0.82300971400E+00  0.82313687308E+00  0.51109989000E-03 0. -1.
     -623    1    1    2    0    0  0.51205297934E-02  0.17478357629E-01  0.15989264600E-03  0.17124000097E+03  0.17124000000E+03 0. -1.
       22    1    1    2    0    0 -0.31735435620E-03 -0.38405133665E-02  0.23283021665E+00  0.23286210520E+00  0.00000000000E+00 0. -1.
</event>
<event>
 5   1  0.2192208E+09  0.9118800E+02  0.7818608E-02  0.1180000E+00
       11   -1    0    0    0    0  0.00000000000E+00  0.00000000000E+00  0.10559998763E+01  0.10560000000E+01  0.51109989000E-03 0.  1.
     -623   -1    0    0    0    0  0.00000000000E+00  0.00000000000E+00  0.47855275298E-10  0.17124000000E+03  0.17124000000E+03 0. -1.
       11    1    1    2    0    0 -0.28261826036E-01 -0.95378916901E-02  0.81885306241E+00  0.81939630291E+00  0.51109989000E-03 0.  1.
     -623    1    1    2    0    0  0.36010327343E-01  0.12503836812E-01  0.69287556222E-03  0.17124000424E+03  0.17124000000E+03 0. -1.
       22    1    1    2    0    0 -0.77485037310E-02 -0.29659459631E-02  0.23645400942E+00  0.23659952391E+00  0.00000000000E+00 0.  1.
</event>
<event>
 5   1  0.2192208E+09  0.9118800E+02  0.7818608E-02  0.1180000E+00
       11   -1    0    0    0    0  0.00000000000E+00  0.00000000000E+00  0.10559998763E+01  0.10560000000E+01  0.51109989000E-03 0.  1.
     -623   -1    0    0    0    0  0.00000000000E+00  0.00000000000E+00  0.47855275298E-10  0.17124000000E+03  0.17124000000E+03 0.  1.
       11    1    1    2    0    0  0.40538848210E-02 -0.75748547986E-02  0.51986889300E-01  0.52694499614E-01  0.51109989000E-03 0.  1.
     -623    1    1    2    0    0 -0.16650667476E-02 -0.32635995374E-02  0.76891583836E-03  0.17124000004E+03  0.17124000000E+03 0.  1.
       22    1    1    2    0    0 -0.23888180734E-02  0.10838454336E-01  0.10032440712E+01  0.10033054595E+01  0.00000000000E+00 0.  1.
</event>
<event>
 5   1  0.2192208E+09  0.9118800E+02  0.7818608E-02  0.1180000E+00
       11   -1    0    0    0    0  0.00000000000E+00  0.00000000000E+00  0.10559998763E+01  0.10560000000E+01  0.51109989000E-03 0.  1.
     -623   -1    0    0    0    0  0.00000000000E+00  0.00000000000E+00  0.47855275298E-10  0.17124000000E+03  0.17124000000E+03 0.  1.
       11    1    1    2    0    0  0.66532196489E-03  0.34156207941E-02  0.96522584884E+00  0.96523225683E+00  0.51109989000E-03 0.  1.
     -623    1    1    2    0    0 -0.73769657839E-03 -0.45286321018E-02  0.13198912566E-04  0.17124000006E+03  0.17124000000E+03 0.  1.
       22    1    1    2    0    0  0.72374626643E-04  0.11130113884E-02  0.90760847424E-01  0.90767700520E-01  0.00000000000E+00 0. -1.
</event>
<event>
 5   1  0.2192208E+09  0.9118800E+02  0.7818608E-02  0.1180000E+00
       11   -1    0    0    0    0  0.00000000000E+00  0.00000000000E+00  0.10559998763E+01  0.10560000000E+01  0.51109989000E-03 0.  1.
     -623   -1    0    0    0    0  0.00000000000E+00  0.00000000000E+00  0.47855275298E-10  0.17124000000E+03  0.17124000000E+03 0.  1.
       11    1    1    2    0    0  0.16036719673E-02 -0.53690185068E-02  0.83957087414E+00  0.83958972841E+00  0.51109989000E-03 0.  1.
     -623    1    1    2    0    0  0.35806048653E-03  0.56433578883E-03  0.80968473396E-04  0.17124000000E+03  0.17124000000E+03 0.  1.
       22    1    1    2    0    0 -0.19617324550E-02  0.48046827161E-02  0.21634803720E+00  0.21641027372E+00  0.00000000000E+00 0. -1.
</event>
<event>
 5   1  0.2192208E+09  0.9118800E+02  0.7818608E-02  0.1180000E+00
       11   -1    0    0    0    0  0.00000000000E+00  0.00000000000E+00  0.10559998763E+01  0.10560000000E+01  0.51109989000E-03 0. -1.
     -623   -1    0    0    0    0  0.00000000000E+00  0.00000000000E+00  0.47855275298E-10  0.17124000000E+03  0.17124000000E+03 0.  1.
       11    1    1    2    0    0 -0.24417440929E-03  0.10082095486E-02  0.95673677746E+00  0.95673747637E+00  0.51109989000E-03 0. -1.
     -623    1    1    2    0    0  0.71935655852E-04 -0.10969099376E-04  0.57342266448E-05  0.17124000000E+03  0.17124000000E+03 0.  1.
       22    1    1    2    0    0  0.17223874571E-03 -0.99724044803E-03  0.99257478137E-01  0.99262637084E-01  0.00000000000E+00 0. -1.
</event>
<event>
 5   1  0.2192208E+09  0.9118800E+02  0.7818608E-02  0.1180000E+00
       11   -1    0    0    0    0  0.00000000000E+00  0.00000000000E+00  0.10559998763E+01  0.10560000000E+01  0.51109989000E-03 0.  1.
     -623   -1    0    0    0    0  0.00000000000E+00  0.00000000000E+00  0.47855275298E-10  0.17124000000E+03  0.17124000000E+03 0. -1.
       11    1    1    2    0    0 -0.17496801230E-01  0.12001820104E-01  0.99864431463E+00  0.99886981640E+00  0.51109989000E-03 0.  1.
     -623    1    1    2    0    0  0.17602813767E-01 -0.10958293760E-01  0.23626345856E-03  0.17124000126E+03  0.17124000000E+03 0. -1.
       22    1    1    2    0    0 -0.10601253520E-03 -0.10435263457E-02  0.57119298155E-01  0.57128927940E-01  0.00000000000E+00 0. -1.
</event>
<event>
 5   1  0.2192208E+09  0.9118800E+02  0.7818608E-02  0.1180000E+00
       11   -1    0    0    0    0  0.00000000000E+00  0.00000000000E+00  0.10559998763E+01  0.10560000000E+01  0.51109989000E-03 0. -1.
     -623   -1    0    0    0    0  0.00000000000E+00  0.00000000000E+00  0.47855275298E-10  0.17124000000E+03  0.17124000000E+03 0. -1.
       11    1    1    2    0    0 -0.14257358135E-01  0.26133985822E-01  0.94702775220E+00  0.94749568977E+00  0.51109989000E-03 0. -1.
     -623    1    1    2    0    0  0.14498249804E-01 -0.28067555927E-01  0.48822623249E-03  0.17124000291E+03  0.17124000000E+03 0. -1.
       22    1    1    2    0    0 -0.24089169965E-03  0.19335701639E-02  0.10848390015E+00  0.10850139775E+00  0.00000000000E+00 0. -1.
</event>
<event>
 5   1  0.2192208E+09  0.9118800E+02  0.7818608E-02  0.1180000E+00
       11   -1    0    0    0    0  0.00000000000E+00  0.00000000000E+00  0.10559998763E+01  0.10560000000E+01  0.51109989000E-03 0. -1.
     -623   -1    0    0    0    0  0.00000000000E+00  0.00000000000E+00  0.47855275298E-10  0.17124000000E+03  0.17124000000E+03 0. -1.
       11    1    1    2    0    0 -0.84159833965E-02 -0.67329249203E-02  0.61558022768E+00  0.61567478346E+00  0.51109989000E-03 0. -1.
     -623    1    1    2    0    0  0.83546269900E-02  0.63432403130E-03  0.13687697959E-03  0.17124000021E+03  0.17124000000E+03 0. -1.
       22    1    1    2    0    0  0.61356385905E-04  0.60986008874E-02  0.44028277431E+00  0.44032501411E+00  0.00000000000E+00 0.  1.
</event>
<event>
 5   1  0.2192208E+09  0.9118800E+02  0.7818608E-02  0.1180000E+00
       11   -1    0    0    0    0  0.00000000000E+00  0.00000000000E+00  0.10559998763E+01  0.10560000000E+01  0.51109989000E-03 0. -1.
     -623   -1    0    0    0    0  0.00000000000E+00  0.00000000000E+00  0.47855275298E-10  0.17124000000E+03  0.17124000000E+03 0.  1.
       11    1    1    2    0    0  0.20110145741E-03  0.26328126822E-02  0.82778321573E+00  0.82778758484E+00  0.51109989000E-03 0. -1.
     -623    1    1    2    0    0 -0.16414158270E-02 -0.97482809805E-04  0.22882394076E-04  0.17124000001E+03  0.17124000000E+03 0.  1.
       22    1    1    2    0    0  0.14403143678E-02 -0.25353298725E-02  0.22819377710E+00  0.22821240613E+00  0.00000000000E+00 0. -1.
</event>
<event>
 5   1  0.2192208E+09  0.9118800E+02  0.7818608E-02  0.1180000E+00
       11   -1    0    0    0    0  0.00000000000E+00  0.00000000000E+00  0.10559998763E+01  0.10560000000E+01  0.51109989000E-03 0.  1.
     -623   -1    0    0    0    0  0.00000000000E+00  0.00000000000E+00  0.47855275298E-10  0.17124000000E+03  0.17124000000E+03 0. -1.
       11    1    1    2    0    0  0.43426632124E-02 -0.27772884881E-02  0.14926938951E+00  0.14935924452E+00  0.51109989000E-03 0.  1.
     -623    1    1    2    0    0 -0.12329561544E-01  0.18088288673E-01  0.25560870744E-03  0.17124000140E+03  0.17124000000E+03 0. -1.
       22    1    1    2    0    0  0.79868983341E-02 -0.15311000188E-01  0.90647487832E+00  0.90663935625E+00  0.00000000000E+00 0.  1.
</event>
<event>
 5   1  0.2192208E+09  0.9118800E+02  0.7818608E-02  0.1180000E+00
       11   -1    0    0    0    0  0.00000000000E+00  0.00000000000E+00  0.10559998763E+01  0.10560000000E+01  0.51109989000E-03 0. -1.
     -623   -1    0    0    0    0  0.00000000000E+00  0.00000000000E+00  0.47855275298E-10  0.17124000000E+03  0.17124000000E+03 0. -1.
       11    1    1    2    0    0  0.19670298774E-02 -0.11679614767E-01  0.25288423329E+00  0.25316196254E+00  0.51109989000E-03 0. -1.
     -623    1    1    2    0    0  0.97321860115E-02  0.33561563975E-01  0.66471246889E-03  0.17124000357E+03  0.17124000000E+03 0. -1.
       22    1    1    2    0    0 -0.11699215886E-01 -0.21881949199E-01  0.80245093031E+00  0.80283447043E+00  0.00000000000E+00 0.  1.
</event>
<event>
 5   1  0.2192208E+09  0.9118800E+02  0.7818608E-02  0.1180000E+00
       11   -1    0    0    0    0  0.00000000000E+00  0.00000000000E+00  0.10559998763E+01  0.10560000000E+01  0.51109989000E-03 0. -1.
     -623   -1    0    0    0    0  0.00000000000E+00  0.00000000000E+00  0.47855275298E-10  0.17124000000E+03  0.17124000000E+03 0.  1.
       11    1    1    2    0    0  0.12635639441E-01 -0.16198316742E-01  0.10016020597E+01  0.10018128529E+01  0.51109989000E-03 0. -1.
     -623    1    1    2    0    0 -0.13289592839E-01  0.17040148711E-01  0.22251971874E-03  0.17124000136E+03  0.17124000000E+03 0.  1.
       22    1    1    2    0    0  0.65396391135E-03 -0.84184544929E-03  0.54176132124E-01  0.54186618869E-01  0.00000000000E+00 0. -1.
</event>
<event>
 5   1  0.2192208E+09  0.9118800E+02  0.7818608E-02  0.1180000E+00
       11   -1    0    0    0    0  0.00000000000E+00  0.00000000000E+00  0.10559998763E+01  0.10560000000E+01  0.51109989000E-03 0.  1.
     -623   -1    0    0    0    0  0.00000000000E+00  0.00000000000E+00  0.47855275298E-10  0.17124000000E+03  0.17124000000E+03 0. -1.
       11    1    1    2    0    0 -0.25313609285E-02  0.19428987248E-02  0.94012267612E+00  0.94012823063E+00  0.51109989000E-03 0.  1.
     -623    1    1    2    0    0 -0.18674762786E-03  0.33506005188E-04  0.54177397266E-04  0.17124000000E+03  0.17124000000E+03 0. -1.
       22    1    1    2    0    0  0.27181085558E-02 -0.19764047299E-02  0.11582301946E+00  0.11587176587E+00  0.00000000000E+00 0.  1.
</event>
<event>
 5   1  0.2192208E+09  0.9118800E+02  0.7818608E-02  0.1180000E+00
       11   -1    0    0    0    0  0.00000000000E+00  0.00000000000E+00  0.10559998763E+01  0.10560000000E+01  0.51109989000E-03 0. -1.
     -623   -1    0    0    0    0  0.00000000000E+00  0.00000000000E+00  0.47855275298E-10  0.17124000000E+03  0.17124000000E+03 0.  1.
       11    1    1    2    0    0  0.86525729918E-03 -0.84048623003E-02  0.64024751183E+00  0.64030346556E+00  0.51109989000E-03 0. -1.
     -623    1    1    2    0    0  0.90659167119E-04 -0.25762761425E-03  0.14719612823E-03  0.17124000000E+03  0.17124000000E+03 0.  1.
       22    1    1    2    0    0 -0.95591646656E-03  0.86624899153E-02  0.41560517142E+00  0.41569653717E+00  0.00000000000E+00 0. -1.
</event>
<event>
 5   1  0.2192208E+09  0.9118800E+02  0.7818608E-02  0.1180000E+00
       11   -1    0    0    0    0  0.00000000000E+00  0.00000000000E+00  0.10559998763E+01  0.10560000000E+01  0.51109989000E-03 0.  1.
     -623   -1    0    0    0    0  0.00000000000E+00  0.00000000000E+00  0.47855275298E-10  0.17124000000E+03  0.17124000000E+03 0. -1.
       11    1    1    2    0    0  0.62620230655E-02  0.60261296643E-02  0.94074209752E+00  0.94078237783E+00  0.51109989000E-03 0.  1.
     -623    1    1    2    0    0 -0.65069079089E-02 -0.72141634732E-02  0.46817742294E-04  0.17124000028E+03  0.17124000000E+03 0. -1.
       22    1    1    2    0    0  0.24488463762E-03  0.11880335808E-02  0.11521092771E+00  0.11521731318E+00  0.00000000000E+00 0.  1.
</event>
<event>
 5   1  0.2192208E+09  0.9118800E+02  0.7818608E-02  0.1180000E+00
       11   -1    0    0    0    0  0.00000000000E+00  0.00000000000E+00  0.10559998763E+01  0.10560000000E+01  0.51109989000E-03 0.  1.
     -623   -1    0    0    0    0  0.00000000000E+00  0.00000000000E+00  0.47855275298E-10  0.17124000000E+03  0.17124000000E+03 0. -1.
       11    1    1    2    0    0  0.29356100267E-02 -0.12854200587E-01  0.67343017678E+00  0.67355943501E+00  0.51109989000E-03 0.  1.
     -623    1    1    2    0    0 -0.45416562939E-02  0.17790533284E-01  0.16535077507E-03  0.17124000098E+03  0.17124000000E+03 0. -1.
       22    1    1    2    0    0  0.16060461702E-02 -0.49363323168E-02  0.38240432625E+00  0.38243955797E+00  0.00000000000E+00 0. -1.
</event>
<event>
 5   1  0.2192208E+09  0.9118800E+02  0.7818608E-02  0.1180000E+00
       11   -1    0    0    0    0  0.00000000000E+00  0.00000000000E+00  0.10559998763E+01  0.10560000000E+01  0.51109989000E-03 0. -1.
     -623   -1    0    0    0    0  0.00000000000E+00  0.00000000000E+00  0.47855275298E-10  0.17124000000E+03  0.17124000000E+03 0. -1.
       11    1    1    2    0    0 -0.15359545291E-01 -0.27043446880E-01  0.82660210649E+00  0.82718714166E+00  0.51109989000E-03 0. -1.
     -623    1    1    2    0    0  0.20514124528E-01  0.35369334078E-01  0.79943365182E-03  0.17124000488E+03  0.17124000000E+03 0. -1.
       22    1    1    2    0    0 -0.51545797268E-02 -0.83258880419E-02  0.22859836142E+00  0.22880800018E+00  0.00000000000E+00 0. -1.
</event>
<event>
 5   1  0.2192208E+09  0.9118800E+02  0.7818608E-02  0.1180000E+00
       11   -1    0    0    0    0  0.00000000000E+00  0.00000000000E+00  0.10559998763E+01  0.10560000000E+01  0.51109989000E-03 0.  1.
     -623   -1    0    0    0    0  0.00000000000E+00  0.00000000000E+00  0.47855275298E-10  0.17124000000E+03  0.17124000000E+03 0.  1.
       11    1    1    2    0    0  0.50342698822E-03 -0.19492083730E-02  0.90949180126E+00  0.90949417295E+00  0.51109989000E-03 0.  1.
     -623    1    1    2    0    0 -0.24941094062E-03  0.31242056589E-03  0.11612264429E-04  0.17124000000E+03  0.17124000000E+03 0.  1.
       22    1    1    2    0    0 -0.25401604088E-03  0.16367877987E-02  0.14649649130E+00  0.14650585505E+00  0.00000000000E+00 0. -1.
</event>
<event>
 5   1  0.2192208E+09  0.9118800E+02  0.7818608E-02  0.1180000E+00
       11   -1    0    0    0    0  0.00000000000E+00  0.00000000000E+00  0.10559998763E+01  0.10560000000E+01  0.51109989000E-03 0. -1.
     -623   -1    0    0    0    0  0.00000000000E+00  0.00000000000E+00  0.47855275298E-10  0.17124000000E+03  0.17124000000E+03 0. -1.
       11    1    1    2    0    0  0.19985725527E-02 -0.14400441138E-02  0.99017262191E+00  0.99017581793E+00  0.51109989000E-03 0. -1.
     -623    1    1    2    0    0 -0.23155003568E-02  0.62580224807E-03  0.88884740672E-05  0.17124000002E+03  0.17124000000E+03 0. -1.
       22    1    1    2    0    0  0.31692783271E-03  0.81424185798E-03  0.65818379062E-01  0.65824178349E-01  0.00000000000E+00 0. -1.
</event>
<event>
 5   1  0.2192208E+09  0.9118800E+02  0.7818608E-02  0.1180000E+00
       11   -1    0    0    0    0  0.00000000000E+00  0.00000000000E+00  0.10559998763E+01  0.10560000000E+01  0.51109989000E-03 0. -1.
     -623   -1    0    0    0    0  0.00000000000E+00  0.00000000000E+00  0.47855275298E-10  0.17124000000E+03  0.17124000000E+03 0. -1.
       11    1    1    2    0    0 -0.64788004468E-03 -0.21653193977E-02  0.94840579571E+00  0.94840862655E+00  0.51109989000E-03 0. -1.
     -623    1    1    2    0    0  0.33587428932E-04  0.39917955659E-02  0.20011952899E-04  0.17124000005E+03  0.17124000000E+03 0. -1.
       22    1    1    2    0    0  0.61429261659E-03 -0.18264760674E-02  0.10757404203E+00  0.10759130025E+00  0.00000000000E+00 0.  1.
</event>
<event>
 5   1  0.2192208E+09  0.9118800E+02  0.7818608E-02  0.1180000E+00
       11   -1    0    0    0    0  0.00000000000E+00  0.00000000000E+00  0.10559998763E+01  0.10560000000E+01  0.51109989000E-03 0.  1.
     -623   -1    0    0    0    0  0.00000000000E+00  0.00000000000E+00  0.47855275298E-10  0.17124000000E+03  0.17124000000E+03 0.  1.
       11    1    1    2    0    0  0.19143913883E-02 -0.28459892180E-03  0.95007569004E+00  0.95007779888E+00  0.51109989000E-03 0.  1.
     -623    1    1    2    0    0 -0.19139893839E-02  0.20091841034E-02  0.16048140667E-04  0.17124000002E+03  0.17124000000E+03 0.  1.
       22    1    1    2    0    0 -0.40200966521E-06 -0.17245851761E-02  0.10590813533E+00  0.10592217578E+00  0.00000000000E+00 0.  1.
</event>
<event>
 5   1  0.2192208E+09  0.9118800E+02  0.7818608E-02  0.1180000E+00
       11   -1    0    0    0    0  0.00000000000E+00  0.00000000000E+00  0.10559998763E+01  0.10560000000E+01  0.51109989000E-03 0.  1.
     -623   -1    0    0    0    0  0.00000000000E+00  0.00000000000E+00  0.47855275298E-10  0.17124000000E+03  0.17124000000E+03 0. -1.
       11    1    1    2    0    0  0.19582681458E-02  0.30950249584E-04  0.97772045161E+00  0.97772254678E+00  0.51109989000E-03 0.  1.
     -623    1    1    2    0    0 -0.20059913687E-02 -0.12953530758E-02  0.12215254439E-04  0.17124000002E+03  0.17124000000E+03 0. -1.
       22    1    1    2    0    0  0.47723166271E-04  0.12644027897E-02  0.78267179682E-01  0.78277406749E-01  0.00000000000E+00 0.  1.
</event>
<event>
 5   1  0.2192208E+09  0.9118800E+02  0.7818608E-02  0.1180000E+00
       11   -1    0    0    0    0  0.00000000000E+00  0.00000000000E+00  0.10559998763E+01  0.10560000000E+01  0.51109989000E-03 0.  1.
     -623   -1    0    0    0    0  0.00000000000E+00  0.00000000000E+00  0.47855275298E-10  0.17124000000E+03  0.17124000000E+03 0. -1.
       11    1    1    2    0    0 -0.21401013364E-03 -0.20119165863E-01  0.34899313368E+00  0.34957301843E+00  0.51109989000E-03 0.  1.
     -623    1    1    2    0    0  0.17678232319E-02  0.33742283021E-03  0.85850598297E-03  0.17124000001E+03  0.17124000000E+03 0. -1.
       22    1    1    2    0    0 -0.15538130982E-02  0.19781743033E-01  0.70614823669E+00  0.70642696995E+00  0.00000000000E+00 0.  1.
</event>
<event>
 5   1  0.2192208E+09  0.9118800E+02  0.7818608E-02  0.1180000E+00
       11   -1    0    0    0    0  0.00000000000E+00  0.00000000000E+00  0.10559998763E+01  0.10560000000E+01  0.51109989000E-03 0. -1.
     -623   -1    0    0    0    0  0.00000000000E+00  0.00000000000E+00  0.47855275298E-10  0.17124000000E+03  0.17124000000E+03 0.  1.
       11    1    1    2    0    0  0.89752817308E-02 -0.10003422464E-01  0.75287821970E+00  0.75299833935E+00  0.51109989000E-03 0. -1.
     -623    1    1    2    0    0 -0.12076264192E-01  0.13321522982E-01  0.15497802121E-03  0.17124000094E+03  0.17124000000E+03 0.  1.
       22    1    1    2    0    0  0.31009797977E-02 -0.33180975798E-02  0.30296644577E+00  0.30300048368E+00  0.00000000000E+00 0.  1.
</event>
<event>
 5   1  0.2192208E+09  0.9118800E+02  0.7818608E-02  0.1180000E+00
       11   -1    0    0    0    0  0.00000000000E+00  0.00000000000E+00  0.10559998763E+01  0.10560000000E+01  0.51109989000E-03 0. -1.
     -623   -1    0    0    0    0  0.00000000000E+00  0.00000000000E+00  0.47855275298E-10  0.17124000000E+03  0.17124000000E+03 0.  1.
       11    1    1    2    0    0 -0.32442191551E-02 -0.10471935463E-02  0.95472838704E+00  0.95473461015E+00  0.51109989000E-03 0. -1.
     -623    1    1    2    0    0  0.32876416108E-02  0.21267189424E-02  0.11907780655E-04  0.17124000004E+03  0.17124000000E+03 0.  1.
       22    1    1    2    0    0 -0.43422312470E-04 -0.10795253034E-02  0.10125953553E+00  0.10126529907E+00  0.00000000000E+00 0. -1.
</event>
<event>
 5   1  0.2192208E+09  0.9118800E+02  0.7818608E-02  0.1180000E+00
       11   -1    0    0    0    0  0.00000000000E+00  0.00000000000E+00  0.10559998763E+01  0.10560000000E+01  0.51109989000E-03 0.  1.
     -623   -1    0    0    0    0  0.00000000000E+00  0.00000000000E+00  0.47855275298E-10  0.17124000000E+03  0.17124000000E+03 0.  1.
       11    1    1    2    0    0  0.22477937607E-02  0.30163000000E-02  0.75972744104E+00  0.75973692587E+00  0.51109989000E-03 0.  1.
     -623    1    1    2    0    0  0.74285792560E-04  0.31129244387E-04  0.34135639860E-04  0.17124000000E+03  0.17124000000E+03 0.  1.
       22    1    1    2    0    0 -0.23220795529E-02 -0.30474292442E-02  0.29623829488E+00  0.29626306930E+00  0.00000000000E+00 0.  1.
</event>
<event>
 5   1  0.2192208E+09  0.9118800E+02  0.7818608E-02  0.1180000E+00
       11   -1    0    0    0    0  0.00000000000E+00  0.00000000000E+00  0.10559998763E+01  0.10560000000E+01  0.51109989000E-03 0.  1.
     -623   -1    0    0    0    0  0.00000000000E+00  0.00000000000E+00  0.47855275298E-10  0.17124000000E+03  0.17124000000E+03 0. -1.
       11    1    1    2    0    0 -0.20797505506E-02  0.10971735980E-01  0.49283030071E+00  0.49295706798E+00  0.51109989000E-03 0.  1.
     -623    1    1    2    0    0 -0.19575111141E-03 -0.46780433914E-03  0.22923086643E-03  0.17124000000E+03  0.17124000000E+03 0. -1.
       22    1    1    2    0    0  0.22755016619E-02 -0.10503931641E-01  0.56294034390E+00  0.56304293022E+00  0.00000000000E+00 0.  1.
</event>
<event>
 5   1  0.2192208E+09  0.9118800E+02  0.7818608E-02  0.1180000E+00
       11   -1    0    0    0    0  0.00000000000E+00  0.00000000000E+00  0.10559998763E+01  0.10560000000E+01  0.51109989000E-03 0.  1.
     -623   -1    0    0    0    0  0.00000000000E+00  0.00000000000E+00  0.47855275298E-10  0.17124000000E+03  0.17124000000E+03 0. -1.
       11    1    1    2    0    0 -0.36435082407E-01  0.24806784662E-01  0.10002863064E+01  0.10012571337E+01  0.51109989000E-03 0.  1.
     -623    1    1    2    0    0  0.36545931766E-01 -0.26441336712E-01  0.10011710074E-02  0.17124000594E+03  0.17124000000E+03 0. -1.
       22    1    1    2    0    0 -0.11084992524E-03  0.16345524591E-02  0.54712415325E-01  0.54736938535E-01  0.00000000000E+00 0.  1.
</event>
<event>
 5   1  0.2192208E+09  0.9118800E+02  0.7818608E-02  0.1180000E+00
       11   -1    0    0    0    0  0.00000000000E+00  0.00000000000E+00  0.10559998763E+01  0.10560000000E+01  0.51109989000E-03 0. -1.
     -623   -1    0    0    0    0  0.00000000000E+00  0.00000000000E+00  0.47855275298E-10  0.17124000000E+03  0.17124000000E+03 0. -1.
       11    1    1    2    0    0 -0.15077816781E-01 -0.12276680566E-01  0.96332648364E+00  0.96352282420E+00  0.51109989000E-03 0. -1.
     -623    1    1    2    0    0  0.16515910231E-01  0.13495740166E-01  0.21676434982E-03  0.17124000133E+03  0.17124000000E+03 0. -1.
       22    1    1    2    0    0 -0.14381551932E-02 -0.12191100532E-02  0.92460575362E-01  0.92479795177E-01  0.00000000000E+00 0.  1.
</event>
<event>
 5   1  0.2192208E+09  0.9118800E+02  0.7818608E-02  0.1180000E+00
       11   -1    0    0    0    0  0.00000000000E+00  0.00000000000E+00  0.10559998763E+01  0.10560000000E+01  0.51109989000E-03 0.  1.
     -623   -1    0    0    0    0  0.00000000000E+00  0.00000000000E+00  0.47855275298E-10  0.17124000000E+03  0.17124000000E+03 0. -1.
       11    1    1    2    0    0 -0.81640280630E-02  0.21743735109E-01  0.62189112778E+00  0.62232489699E+00  0.51109989000E-03 0.  1.
     -623    1    1    2    0    0  0.17893300948E-01 -0.35401530004E-01  0.76256527261E-03  0.17124000460E+03  0.17124000000E+03 0. -1.
       22    1    1    2    0    0 -0.97292730420E-02  0.13657795206E-01  0.43334619256E+00  0.43367051633E+00  0.00000000000E+00 0.  1.
</event>
<event>
 5   1  0.2192208E+09  0.9118800E+02  0.7818608E-02  0.1180000E+00
       11   -1    0    0    0    0  0.00000000000E+00  0.00000000000E+00  0.10559998763E+01  0.10560000000E+01  0.51109989000E-03 0.  1.
     -623   -1    0    0    0    0  0.00000000000E+00  0.00000000000E+00  0.47855275298E-10  0.17124000000E+03  0.17124000000E+03 0.  1.
       11    1    1    2    0    0  0.11364003484E-02  0.21133893405E-02  0.85002899452E+00  0.85003253501E+00  0.51109989000E-03 0.  1.
     -623    1    1    2    0    0 -0.43601988759E-03  0.62888134285E-03  0.22865707503E-04  0.17124000000E+03  0.17124000000E+03 0.  1.
       22    1    1    2    0    0 -0.70038045837E-03 -0.27422706869E-02  0.20594802204E+00  0.20596746919E+00  0.00000000000E+00 0.  1.
</event>
<event>
 5   1  0.2192208E+09  0.9118800E+02  0.7818608E-02  0.1180000E+00
       11   -1    0    0    0    0  0.00000000000E+00  0.00000000000E+00  0.10559998763E+01  0.10560000000E+01  0.51109989000E-03 0.  1.
     -623   -1    0    0    0    0  0.00000000000E+00  0.00000000000E+00  0.47855275298E-10  0.17124000000E+03  0.17124000000E+03 0. -1.
       11    1    1    2    0    0 -0.72582993458E-02 -0.21072476975E-01  0.10026178111E+01  0.10028656284E+01  0.51109989000E-03 0.  1.
     -623    1    1    2    0    0  0.77875752050E-02  0.21660353309E-01  0.25512951919E-03  0.17124000155E+03  0.17124000000E+03 0. -1.
       22    1    1    2    0    0 -0.52927535461E-03 -0.58787492960E-03  0.53126867336E-01  0.53132756020E-01  0.00000000000E+00 0. -1.
</event>
<event>
 5   1  0.2192208E+09  0.9118800E+02  0.7818608E-02  0.1180000E+00
       11   -1    0    0    0    0  0.00000000000E+00  0.00000000000E+00  0.10559998763E+01  0.10560000000E+01  0.51109989000E-03 0. -1.
     -623   -1    0    0    0    0  0.00000000000E+00  0.00000000000E+00  0.47855275298E-10  0.17124000000E+03  0.17124000000E+03 0. -1.
       11    1    1    2    0    0  0.62850844780E-02  0.68130518460E-02  0.92808333886E+00  0.92812976735E+00  0.51109989000E-03 0. -1.
     -623    1    1    2    0    0 -0.75914406102E-02 -0.84518580836E-02  0.63857576057E-04  0.17124000038E+03  0.17124000000E+03 0. -1.
       22    1    1    2    0    0  0.13063555436E-02  0.16388055822E-02  0.12785259805E+00  0.12786977390E+00  0.00000000000E+00 0. -1.
</event>
<event>
 5   1  0.2192208E+09  0.9118800E+02  0.7818608E-02  0.1180000E+00
       11   -1    0    0    0    0  0.00000000000E+00  0.00000000000E+00  0.10559998763E+01  0.10560000000E+01  0.51109989000E-03 0.  1.
     -623   -1    0    0    0    0  0.00000000000E+00  0.00000000000E+00  0.47855275298E-10  0.17124000000E+03  0.17124000000E+03 0. -1.
       11    1    1    2    0    0  0.23250017786E-01 -0.13338234203E-01  0.94843559664E+00  0.94881442549E+00  0.51109989000E-03 0.  1.
     -623    1    1    2    0    0 -0.25851877462E-01  0.14436446925E-01  0.41847832718E-03  0.17124000256E+03  0.17124000000E+03 0. -1.
       22    1    1    2    0    0  0.26018636131E-02 -0.10982149201E-02  0.10714596216E+00  0.10718317488E+00  0.00000000000E+00 0.  1.
</event>
<event>
 5   1  0.2192208E+09  0.9118800E+02  0.7818608E-02  0.1180000E+00
       11   -1    0    0    0    0  0.00000000000E+00  0.00000000000E+00  0.10559998763E+01  0.10560000000E+01  0.51109989000E-03 0. -1.
     -623   -1    0    0    0    0  0.00000000000E+00  0.00000000000E+00  0.47855275298E-10  0.17124000000E+03  0.17124000000E+03 0. -1.
       11    1    1    2    0    0 -0.25126524288E-02  0.24295729331E-02  0.88403399333E+00  0.88404105042E+00  0.51109989000E-03 0. -1.
     -623    1    1    2    0    0 -0.52899446738E-03 -0.40088671876E-03  0.45806510133E-04  0.17124000000E+03  0.17124000000E+03 0. -1.
       22    1    1    2    0    0  0.30416468970E-02 -0.20286862138E-02  0.17192007804E+00  0.17195894980E+00  0.00000000000E+00 0. -1.
</event>
<event>
 5   1  0.2192208E+09  0.9118800E+02  0.7818608E-02  0.1180000E+00
       11   -1    0    0    0    0  0.00000000000E+00  0.00000000000E+00  0.10559998763E+01  0.10560000000E+01  0.51109989000E-03 0. -1.
     -623   -1    0    0    0    0  0.00000000000E+00  0.00000000000E+00  0.47855275298E-10  0.17124000000E+03  0.17124000000E+03 0.  1.
       11    1    1    2    0    0 -0.22483596557E-01  0.17248772213E-01  0.99847300006E+00  0.99887518005E+00  0.51109989000E-03 0. -1.
     -623    1    1    2    0    0  0.23063394542E-01 -0.19046608851E-01  0.43591248033E-03  0.17124000261E+03  0.17124000000E+03 0.  1.
       22    1    1    2    0    0 -0.57979865135E-03  0.17978371881E-02  0.57090994320E-01  0.57122237504E-01  0.00000000000E+00 0. -1.
</event>
<event>
 5   1  0.2192208E+09  0.9118800E+02  0.7818608E-02  0.1180000E+00
       11   -1    0    0    0    0  0.00000000000E+00  0.00000000000E+00  0.10559998763E+01  0.10560000000E+01  0.51109989000E-03 0.  1.
     -623   -1    0    0    0    0  0.00000000000E+00  0.00000000000E+00  0.47855275298E-10  0.17124000000E+03  0.17124000000E+03 0.  1.
       11    1    1    2    0    0  0.21619698804E-02 -0.28745707415E-02  0.98360754466E+00  0.98361425387E+00  0.51109989000E-03 0.  1.
     -623    1    1    2    0    0 -0.12835663594E-02  0.92575476724E-03  0.38163143221E-04  0.17124000001E+03  0.17124000000E+03 0.  1.
       22    1    1    2    0    0 -0.87840351746E-03  0.19488159717E-02  0.72354171505E-01  0.72385741763E-01  0.00000000000E+00 0.  1.
</event>
<event>
 5   1  0.2192208E+09  0.9118800E+02  0.7818608E-02  0.1180000E+00
       11   -1    0    0    0    0  0.00000000000E+00  0.00000000000E+00  0.10559998763E+01  0.10560000000E+01  0.51109989000E-03 0. -1.
     -623   -1    0    0    0    0  0.00000000000E+00  0.00000000000E+00  0.47855275298E-10  0.17124000000E+03  0.17124000000E+03 0. -1.
       11    1    1    2    0    0 -0.25840916803E-02  0.52435803037E-02  0.74075179305E+00  0.74077503521E+00  0.51109989000E-03 0. -1.
     -623    1    1    2    0    0 -0.51791086566E-03 -0.56859114675E-03  0.73053554988E-04  0.17124000000E+03  0.17124000000E+03 0. -1.
       22    1    1    2    0    0  0.31020025457E-02 -0.46749891572E-02  0.31517502919E+00  0.31522496248E+00  0.00000000000E+00 0.  1.
</event>
<event>
 5   1  0.2192208E+09  0.9118800E+02  0.7818608E-02  0.1180000E+00
       11   -1    0    0    0    0  0.00000000000E+00  0.00000000000E+00  0.10559998763E+01  0.10560000000E+01  0.51109989000E-03 0.  1.
     -623   -1    0    0    0    0  0.00000000000E+00  0.00000000000E+00  0.47855275298E-10  0.17124000000E+03  0.17124000000E+03 0. -1.
       11    1    1    2    0    0 -0.13525425903E-01  0.14453004964E-01  0.80556254394E+00  0.80580586987E+00  0.51109989000E-03 0.  1.
     -623    1    1    2    0    0  0.17945422580E-01 -0.18895923139E-01  0.32368924736E-03  0.17124000198E+03  0.17124000000E+03 0. -1.
       22    1    1    2    0    0 -0.44199935494E-02  0.44429148817E-02  0.25011345918E+00  0.25019196290E+00  0.00000000000E+00 0. -1.
</event>
<event>
 5   1  0.2192208E+09  0.9118800E+02  0.7818608E-02  0.1180000E+00
       11   -1    0    0    0    0  0.00000000000E+00  0.00000000000E+00  0.10559998763E+01  0.10560000000E+01  0.51109989000E-03 0. -1.
     -623   -1    0    0    0    0  0.00000000000E+00  0.00000000000E+00  0.47855275298E-10  0.17124000000E+03  0.17124000000E+03 0. -1.
       11    1    1    2    0    0 -0.10996065420E-01 -0.12749667136E-01  0.93406140869E+00  0.93421327538E+00  0.51109989000E-03 0. -1.
     -623    1    1    2    0    0  0.12465550861E-01  0.14409232778E-01  0.17297769458E-03  0.17124000106E+03  0.17124000000E+03 0. -1.
       22    1    1    2    0    0 -0.14695397792E-02 -0.16596284524E-02  0.12177009241E+00  0.12179026775E+00  0.00000000000E+00 0.  1.
</event>
<event>
 5   1  0.2192208E+09  0.9118800E+02  0.7818608E-02  0.1180000E+00
       11   -1    0    0    0    0  0.00000000000E+00  0.00000000000E+00  0.10559998763E+01  0.10560000000E+01  0.51109989000E-03 0.  1.
     -623   -1    0    0    0    0  0.00000000000E+00  0.00000000000E+00  0.47855275298E-10  0.17124000000E+03  0.17124000000E+03 0.  1.
       11    1    1    2    0    0  0.20666771722E-01  0.78205746412E-02  0.89455158809E+00  0.89482460953E+00  0.51109989000E-03 0.  1.
     -623    1    1    2    0    0 -0.24440423992E-01 -0.96836676710E-02  0.32987113531E-03  0.17124000202E+03  0.17124000000E+03 0.  1.
       22    1    1    2    0    0  0.37736703622E-02  0.18631001982E-02  0.16111919861E+00  0.16117415392E+00  0.00000000000E+00 0. -1.
</event>
<event>
 5   1  0.2192208E+09  0.9118800E+02  0.7818608E-02  0.1180000E+00
       11   -1    0    0    0    0  0.00000000000E+00  0.00000000000E+00  0.10559998763E+01  0.10560000000E+01  0.51109989000E-03 0. -1.
     -623   -1    0    0    0    0  0.00000000000E+00  0.00000000000E+00  0.47855275298E-10  0.17124000000E+03  0.17124000000E+03 0. -1.
       11    1    1    2    0    0  0.22978859096E-02 -0.21025566947E-01  0.94021880265E+00  0.94045681071E+00  0.51109989000E-03 0. -1.
     -623    1    1    2    0    0 -0.24470210335E-02  0.24898528233E-01  0.30473795328E-03  0.17124000183E+03  0.17124000000E+03 0. -1.
       22    1    1    2    0    0  0.14913506000E-03 -0.38729606369E-02  0.11547630820E+00  0.11554133382E+00  0.00000000000E+00 0.  1.
</event>
<event>
 5   1  0.2192208E+09  0.9118800E+02  0.7818608E-02  0.1180000E+00
       11   -1    0    0    0    0  0.00000000000E+00  0.00000000000E+00  0.10559998763E+01  0.10560000000E+01  0.51109989000E-03 0. -1.
     -623   -1    0    0    0    0  0.00000000000E+00  0.00000000000E+00  0.47855275298E-10  0.17124000000E+03  0.17124000000E+03 0.  1.
       11    1    1    2    0    0 -0.38192755345E-02 -0.57816791525E-02  0.77406784042E+00  0.77409902304E+00  0.51109989000E-03 0. -1.
     -623    1    1    2    0    0  0.65310868287E-02  0.25212647151E-02  0.63102046698E-04  0.17124000014E+03  0.17124000000E+03 0.  1.
       22    1    1    2    0    0 -0.27118113328E-02  0.32604144225E-02  0.28186894015E+00  0.28190084009E+00  0.00000000000E+00 0. -1.
</event>
<event>
 5   1  0.2192208E+09  0.9118800E+02  0.7818608E-02  0.1180000E+00
       11   -1    0    0    0    0  0.00000000000E+00  0.00000000000E+00  0.10559998763E+01  0.10560000000E+01  0.51109989000E-03 0.  1.
     -623   -1    0    0    0    0  0.00000000000E+00  0.00000000000E+00  0.47855275298E-10  0.17124000000E+03  0.17124000000E+03 0.  1.
       11    1    1    2    0    0 -0.19562654509E-02 -0.36375582013E-02  0.99089087267E+00  0.99089961225E+00  0.51109989000E-03 0.  1.
     -623    1    1    2    0    0 -0.18697373436E-03  0.26402484362E-02  0.51569688994E-04  0.17124000002E+03  0.17124000000E+03 0.  1.
       22    1    1    2    0    0  0.21432391855E-02  0.99730976208E-03  0.65057435248E-01  0.65100368525E-01  0.00000000000E+00 0. -1.
</event>
<event>
 5   1  0.2192208E+09  0.9118800E+02  0.7818608E-02  0.1180000E+00
       11   -1    0    0    0    0  0.00000000000E+00  0.00000000000E+00  0.10559998763E+01  0.10560000000E+01  0.51109989000E-03 0. -1.
     -623   -1    0    0    0    0  0.00000000000E+00  0.00000000000E+00  0.47855275298E-10  0.17124000000E+03  0.17124000000E+03 0. -1.
       11    1    1    2    0    0 -0.62660061603E-03 -0.27301883113E-02  0.85159285987E+00  0.85159762022E+00  0.51109989000E-03 0. -1.
     -623    1    1    2    0    0  0.75788510460E-03 -0.76530601462E-03  0.34572759343E-04  0.17124000000E+03  0.17124000000E+03 0. -1.
       22    1    1    2    0    0 -0.13128448440E-03  0.34954943217E-02  0.20437243792E+00  0.20440237057E+00  0.00000000000E+00 0. -1.
</event>
<event>
 5   1  0.2192208E+09  0.9118800E+02  0.7818608E-02  0.1180000E+00
       11   -1    0    0    0    0  0.00000000000E+00  0.00000000000E+00  0.10559998763E+01  0.10560000000E+01  0.51109989000E-03 0. -1.
     -623   -1    0    0    0    0  0.00000000000E+00  0.00000000000E+00  0.47855275298E-10  0.17124000000E+03  0.17124000000E+03 0. -1.
       11    1    1    2    0    0  0.37726379366E-02  0.86047779572E-03  0.83440790499E+00  0.83441703383E+00  0.51109989000E-03 0. -1.
     -623    1    1    2    0    0 -0.41967612393E-02 -0.38388976266E-02  0.29523814319E-04  0.17124000009E+03  0.17124000000E+03 0. -1.
       22    1    1    2    0    0  0.42412332046E-03  0.29784198471E-02  0.22156245203E+00  0.22158287618E+00  0.00000000000E+00 0. -1.
</event>
<event>
 5   1  0.2192208E+09  0.9118800E+02  0.7818608E-02  0.1180000E+00
       11   -1    0    0    0    0  0.00000000000E+00  0.00000000000E+00  0.10559998763E+01  0.10560000000E+01  0.51109989000E-03 0. -1.
     -623   -1    0    0    0    0  0.00000000000E+00  0.00000000000E+00  0.47855275298E-10  0.17124000000E+03  0.17124000000E+03 0. -1.
       11    1    1    2    0    0 -0.16372784882E-01  0.22002663148E-01  0.10004433555E+01  0.10008193414E+01  0.51109989000E-03 0. -1.
     -623    1    1    2    0    0  0.17306643013E-01 -0.23183461838E-01  0.39884731558E-03  0.17124000244E+03  0.17124000000E+03 0. -1.
       22    1    1    2    0    0 -0.93384434810E-03  0.11807802277E-02  0.55156832881E-01  0.55177373268E-01  0.00000000000E+00 0. -1.
</event>
<event>
 5   1  0.2192208E+09  0.9118800E+02  0.7818608E-02  0.1180000E+00
       11   -1    0    0    0    0  0.00000000000E+00  0.00000000000E+00  0.10559998763E+01  0.10560000000E+01  0.51109989000E-03 0.  1.
     -623   -1    0    0    0    0  0.00000000000E+00  0.00000000000E+00  0.47855275298E-10  0.17124000000E+03  0.17124000000E+03 0.  1.
       11    1    1    2    0    0 -0.35603260337E-02  0.20275349831E-02  0.18135103944E+00  0.18139803623E+00  0.51109989000E-03 0.  1.
     -623    1    1    2    0    0  0.35345324897E-02  0.28358099029E-01  0.57725245391E-03  0.17124000239E+03  0.17124000000E+03 0.  1.
       22    1    1    2    0    0  0.25793540183E-04 -0.30385634043E-01  0.87407158561E+00  0.87459957935E+00  0.00000000000E+00 0.  1.
</event>
<event>
 5   1  0.2192208E+09  0.9118800E+02  0.7818608E-02  0.1180000E+00
       11   -1    0    0    0    0  0.00000000000E+00  0.00000000000E+00  0.10559998763E+01  0.10560000000E+01  0.51109989000E-03 0. -1.
     -623   -1    0    0    0    0  0.00000000000E+00  0.00000000000E+00  0.47855275298E-10  0.17124000000E+03  0.17124000000E+03 0. -1.
       11    1    1    2    0    0  0.13004154668E-03  0.13937058611E-01  0.95275618623E+00  0.95285826340E+00  0.51109989000E-03 0. -1.
     -623    1    1    2    0    0 -0.15301011018E-02 -0.15845477434E-01  0.12985523052E-03  0.17124000074E+03  0.17124000000E+03 0. -1.
       22    1    1    2    0    0  0.14000595367E-02  0.19084186320E-02  0.10311382218E+00  0.10314098387E+00  0.00000000000E+00 0.  1.
</event>
<event>
 5   1  0.2192208E+09  0.9118800E+02  0.7818608E-02  0.1180000E+00
       11   -1    0    0    0    0  0.00000000000E+00  0.00000000000E+00  0.10559998763E+01  0.10560000000E+01  0.51109989000E-03 0.  1.
     -623   -1    0    0    0    0  0.00000000000E+00  0.00000000000E+00  0.47855275298E-10  0.17124000000E+03  0.17124000000E+03 0. -1.
       11    1    1    2    0    0 -0.23867052217E-02 -0.71422764555E-02  0.59859377518E+00  0.59864135957E+00  0.51109989000E-03 0.  1.
     -623    1    1    2    0    0  0.51008879077E-02  0.12497130275E-01  0.87396023022E-04  0.17124000053E+03  0.17124000000E+03 0. -1.
       22    1    1    2    0    0 -0.27141840833E-02 -0.53548572428E-02  0.45731899441E+00  0.45735839769E+00  0.00000000000E+00 0.  1.
</event>
<event>
 5   1  0.2192208E+09  0.9118800E+02  0.7818608E-02  0.1180000E+00
       11   -1    0    0    0    0  0.00000000000E+00  0.00000000000E+00  0.10559998763E+01  0.10560000000E+01  0.51109989000E-03 0. -1.
     -623   -1    0    0    0    0  0.00000000000E+00  0.00000000000E+00  0.47855275298E-10  0.17124000000E+03  0.17124000000E+03 0.  1.
       11    1    1    2    0    0  0.33123446446E-02 -0.22680248462E-02  0.95427027521E+00  0.95427885596E+00  0.51109989000E-03 0. -1.
     -623    1    1    2    0    0 -0.22615399622E-02  0.34246417899E-02  0.20510179643E-04  0.17124000005E+03  0.17124000000E+03 0.  1.
       22    1    1    2    0    0 -0.10508046156E-02 -0.11566170450E-02  0.10170912220E+00  0.10172112608E+00  0.00000000000E+00 0. -1.
</event>
<event>
 5   1  0.2192208E+09  0.9118800E+02  0.7818608E-02  0.1180000E+00
       11   -1    0    0    0    0  0.00000000000E+00  0.00000000000E+00  0.10559998763E+01  0.10560000000E+01  0.51109989000E-03 0. -1.
     -623   -1    0    0    0    0  0.00000000000E+00  0.00000000000E+00  0.47855275298E-10  0.17124000000E+03  0.17124000000E+03 0.  1.
       11    1    1    2    0    0 -0.28146438507E-03  0.14158676397E-02  0.93224993185E+00  0.93225118963E+00  0.51109989000E-03 0. -1.
     -623    1    1    2    0    0 -0.46968915813E-04 -0.36621464945E-04  0.92564680436E-05  0.17124000000E+03  0.17124000000E+03 0.  1.
       22    1    1    2    0    0  0.32843330134E-03 -0.13792461744E-02  0.12374069817E+00  0.12374882049E+00  0.00000000000E+00 0. -1.
</event>
<event>
 5   1  0.2192208E+09  0.9118800E+02  0.7818608E-02  0.1180000E+00
       11   -1    0    0    0    0  0.00000000000E+00  0.00000000000E+00  0.10559998763E+01  0.10560000000E+01  0.51109989000E-03 0.  1.
     -623   -1    0    0    0    0  0.00000000000E+00  0.00000000000E+00  0.47855275298E-10  0.17124000000E+03  0.17124000000E+03 0. -1.
       11    1    1    2    0    0  0.12117648140E-02  0.20628196002E-02  0.93887098197E+00  0.93887416921E+00  0.51109989000E-03 0.  1.
     -623    1    1    2    0    0 -0.92600351707E-03 -0.23646558053E-03  0.17655029851E-04  0.17124000000E+03  0.17124000000E+03 0. -1.
       22    1    1    2    0    0 -0.28576129421E-03 -0.18263540190E-02  0.11711124251E+00  0.11712583128E+00  0.00000000000E+00 0.  1.
</event>
<event>
 5   1  0.2192208E+09  0.9118800E+02  0.7818608E-02  0.1180000E+00
       11   -1    0    0    0    0  0.00000000000E+00  0.00000000000E+00  0.10559998763E+01  0.10560000000E+01  0.51109989000E-03 0. -1.
     -623   -1    0    0    0    0  0.00000000000E+00  0.00000000000E+00  0.47855275298E-10  0.17124000000E+03  0.17124000000E+03 0.  1.
       11    1    1    2    0    0  0.70451353896E-03 -0.83453238072E-03  0.98952727056E+00  0.98952800526E+00  0.51109989000E-03 0. -1.
     -623    1    1    2    0    0 -0.61651516902E-03  0.16264946052E-02  0.53961160875E-05  0.17124000001E+03  0.17124000000E+03 0.  1.
       22    1    1    2    0    0 -0.87998305203E-04 -0.79196239528E-03  0.66467320563E-01  0.66472096784E-01  0.00000000000E+00 0.  1.
</event>
<event>
 5   1  0.2192208E+09  0.9118800E+02  0.7818608E-02  0.1180000E+00
       11   -1    0    0    0    0  0.00000000000E+00  0.00000000000E+00  0.10559998763E+01  0.10560000000E+01  0.51109989000E-03 0.  1.
     -623   -1    0    0    0    0  0.00000000000E+00  0.00000000000E+00  0.47855275298E-10  0.17124000000E+03  0.17124000000E+03 0. -1.
       11    1    1    2    0    0 -0.44161662646E-02 -0.41297966661E-02  0.95035956843E+00  0.95037893930E+00  0.51109989000E-03 0.  1.
     -623    1    1    2    0    0  0.45181895205E-03 -0.40756389117E-03  0.19124666846E-03  0.17124000000E+03  0.17124000000E+03 0. -1.
       22    1    1    2    0    0  0.39643473118E-02  0.45373605579E-02  0.10544906293E+00  0.10562106118E+00  0.00000000000E+00 0.  1.
</event>
<event>
 5   1  0.2192208E+09  0.9118800E+02  0.7818608E-02  0.1180000E+00
       11   -1    0    0    0    0  0.00000000000E+00  0.00000000000E+00  0.10559998763E+01  0.10560000000E+01  0.51109989000E-03 0. -1.
     -623   -1    0    0    0    0  0.00000000000E+00  0.00000000000E+00  0.47855275298E-10  0.17124000000E+03  0.17124000000E+03 0.  1.
       11    1    1    2    0    0 -0.69541371603E-02  0.27082470325E-02  0.52533171504E+00  0.52538496997E+00  0.51109989000E-03 0.  1.
     -623    1    1    2    0    0  0.12632857300E-01 -0.84490492214E-02  0.11525193482E-03  0.17124000067E+03  0.17124000000E+03 0.  1.
       22    1    1    2    0    0 -0.56787202392E-02  0.57408022556E-02  0.53055291774E+00  0.53061436392E+00  0.00000000000E+00 0. -1.
</event>
<event>
 5   1  0.2192208E+09  0.9118800E+02  0.7818608E-02  0.1180000E+00
       11   -1    0    0    0    0  0.00000000000E+00  0.00000000000E+00  0.10559998763E+01  0.10560000000E+01  0.51109989000E-03 0. -1.
     -623   -1    0    0    0    0  0.00000000000E+00  0.00000000000E+00  0.47855275298E-10  0.17124000000E+03  0.17124000000E+03 0.  1.
       11    1    1    2    0    0 -0.79974596400E-03 -0.67421941390E-02  0.80932337528E+00  0.80935201474E+00  0.51109989000E-03 0. -1.
     -623    1    1    2    0    0 -0.15731187064E-02 -0.20955933813E-02  0.19834442628E-03  0.17124000002E+03  0.17124000000E+03 0.  1.
       22    1    1    2    0    0  0.23728646725E-02  0.88377875231E-02  0.24647815802E+00  0.24664796645E+00  0.00000000000E+00 0. -1.
</event>
<event>
 5   1  0.2192208E+09  0.9118800E+02  0.7818608E-02  0.1180000E+00
       11   -1    0    0    0    0  0.00000000000E+00  0.00000000000E+00  0.10559998763E+01  0.10560000000E+01  0.51109989000E-03 0. -1.
     -623   -1    0    0    0    0  0.00000000000E+00  0.00000000000E+00  0.47855275298E-10  0.17124000000E+03  0.17124000000E+03 0.  1.
       11    1    1    2    0    0  0.42814939633E-02 -0.16531607290E-01  0.81664347497E+00  0.81682216648E+00  0.51109989000E-03 0. -1.
     -623    1    1    2    0    0 -0.51423692594E-02  0.20261458579E-01  0.21047784004E-03  0.17124000128E+03  0.17124000000E+03 0.  1.
       22    1    1    2    0    0  0.86087507553E-03 -0.37298504204E-02  0.23914587828E+00  0.23917651220E+00  0.00000000000E+00 0.  1.
</event>
<event>
 5   1  0.2192208E+09  0.9118800E+02  0.7818608E-02  0.1180000E+00
       11   -1    0    0    0    0  0.00000000000E+00  0.00000000000E+00  0.10559998763E+01  0.10560000000E+01  0.51109989000E-03 0. -1.
     -623   -1    0    0    0    0  0.00000000000E+00  0.00000000000E+00  0.47855275298E-10  0.17124000000E+03  0.17124000000E+03 0. -1.
       11    1    1    2    0    0  0.18578642603E-02  0.24344602235E-01  0.97878073167E+00  0.97908533501E+00  0.51109989000E-03 0. -1.
     -623    1    1    2    0    0 -0.22644042005E-02 -0.26173388137E-01  0.32931498162E-03  0.17124000202E+03  0.17124000000E+03 0. -1.
       22    1    1    2    0    0  0.40654013432E-03  0.18287881459E-02  0.76889920209E-01  0.76912739977E-01  0.00000000000E+00 0. -1.
</event>
<event>
 5   1  0.2192208E+09  0.9118800E+02  0.7818608E-02  0.1180000E+00
       11   -1    0    0    0    0  0.00000000000E+00  0.00000000000E+00  0.10559998763E+01  0.10560000000E+01  0.51109989000E-03 0. -1.
     -623   -1    0    0    0    0  0.00000000000E+00  0.00000000000E+00  0.47855275298E-10  0.17124000000E+03  0.17124000000E+03 0. -1.
       11    1    1    2    0    0 -0.46409011401E-02 -0.90796808890E-02  0.82209383242E+00  0.82215722894E+00  0.51109989000E-03 0. -1.
     -623    1    1    2    0    0  0.60133012713E-02  0.11962201627E-01  0.85590658255E-04  0.17124000052E+03  0.17124000000E+03 0. -1.
       22    1    1    2    0    0 -0.13724085915E-02 -0.28825375684E-02  0.23382193889E+00  0.23384373336E+00  0.00000000000E+00 0. -1.
</event>
<event>
 5   1  0.2375528E+09  0.9118800E+02  0.7818608E-02  0.1180000E+00
       11   -1    0    0    0    0  0.00000000000E+00  0.00000000000E+00  0.10559998763E+01  0.10560000000E+01  0.51109989000E-03 0. -1.
     -623   -1    0    0    0    0  0.00000000000E+00  0.00000000000E+00  0.47855275298E-10  0.17124000000E+03  0.17124000000E+03 0.  1.
       11    1    1    2    0    0  0.11167353544E-01 -0.14867727662E-01  0.23362144572E+00  0.23436083340E+00  0.51109989000E-03 0.  1.
     -623    1    1    2    0    0 -0.51376475731E-01  0.66013906525E-01  0.33396115155E-02  0.17124002046E+03  0.17124000000E+03 0.  1.
       22    1    1    2    0    0  0.40209113876E-01 -0.51146168184E-01  0.81903864884E+00  0.82161853172E+00  0.00000000000E+00 0. -1.
</event>
<event>
 5   1  0.2192208E+09  0.9118800E+02  0.7818608E-02  0.1180000E+00
       11   -1    0    0    0    0  0.00000000000E+00  0.00000000000E+00  0.10559998763E+01  0.10560000000E+01  0.51109989000E-03 0. -1.
     -623   -1    0    0    0    0  0.00000000000E+00  0.00000000000E+00  0.47855275298E-10  0.17124000000E+03  0.17124000000E+03 0.  1.
       11    1    1    2    0    0 -0.31800551239E-02  0.86100007617E-02  0.21706608249E+00  0.21726065050E+00  0.51109989000E-03 0. -1.
     -623    1    1    2    0    0  0.16605593395E-03 -0.93620547804E-04  0.24309819647E-03  0.17124000000E+03  0.17124000000E+03 0.  1.
       22    1    1    2    0    0  0.30139991899E-02 -0.85163802139E-02  0.83869069633E+00  0.83873934987E+00  0.00000000000E+00 0. -1.
</event>
<event>
 5   1  0.2192208E+09  0.9118800E+02  0.7818608E-02  0.1180000E+00
       11   -1    0    0    0    0  0.00000000000E+00  0.00000000000E+00  0.10559998763E+01  0.10560000000E+01  0.51109989000E-03 0.  1.
     -623   -1    0    0    0    0  0.00000000000E+00  0.00000000000E+00  0.47855275298E-10  0.17124000000E+03  0.17124000000E+03 0. -1.
       11    1    1    2    0    0 -0.31125563012E-02 -0.13077395475E-02  0.94945851893E+00  0.94946465895E+00  0.51109989000E-03 0.  1.
     -623    1    1    2    0    0  0.30256509359E-02  0.27354029844E-02  0.15666783013E-04  0.17124000005E+03  0.17124000000E+03 0. -1.
       22    1    1    2    0    0  0.86905285295E-04 -0.14276635092E-02  0.10652571857E+00  0.10653532040E+00  0.00000000000E+00 0.  1.
</event>
<event>
 5   1  0.2192208E+09  0.9118800E+02  0.7818608E-02  0.1180000E+00
       11   -1    0    0    0    0  0.00000000000E+00  0.00000000000E+00  0.10559998763E+01  0.10560000000E+01  0.51109989000E-03 0.  1.
     -623   -1    0    0    0    0  0.00000000000E+00  0.00000000000E+00  0.47855275298E-10  0.17124000000E+03  0.17124000000E+03 0.  1.
       11    1    1    2    0    0  0.75858335342E-02  0.10372785245E-01  0.10021949809E+01  0.10022774967E+01  0.51109989000E-03 0.  1.
     -623    1    1    2    0    0 -0.10430104374E-01 -0.12157571608E-01  0.18818626906E-03  0.17124000075E+03  0.17124000000E+03 0.  1.
       22    1    1    2    0    0  0.28442708368E-02  0.17847863604E-02  0.53616708950E-01  0.53721753672E-01  0.00000000000E+00 0. -1.
</event>
<event>
 5   1  0.2192208E+09  0.9118800E+02  0.7818608E-02  0.1180000E+00
       11   -1    0    0    0    0  0.00000000000E+00  0.00000000000E+00  0.10559998763E+01  0.10560000000E+01  0.51109989000E-03 0.  1.
     -623   -1    0    0    0    0  0.00000000000E+00  0.00000000000E+00  0.47855275298E-10  0.17124000000E+03  0.17124000000E+03 0. -1.
       11    1    1    2    0    0 -0.30603894897E-03 -0.99880114084E-03  0.95993625809E+00  0.95993696256E+00  0.51109989000E-03 0.  1.
     -623    1    1    2    0    0 -0.24422372183E-04 -0.22917844512E-04  0.65828837479E-05  0.17124000000E+03  0.17124000000E+03 0. -1.
       22    1    1    2    0    0  0.33046132111E-03  0.10217189853E-02  0.96057033665E-01  0.96063035716E-01  0.00000000000E+00 0. -1.
</event>
<event>
 5   1  0.2192208E+09  0.9118800E+02  0.7818608E-02  0.1180000E+00
       11   -1    0    0    0    0  0.00000000000E+00  0.00000000000E+00  0.10559998763E+01  0.10560000000E+01  0.51109989000E-03 0. -1.
     -623   -1    0    0    0    0  0.00000000000E+00  0.00000000000E+00  0.47855275298E-10  0.17124000000E+03  0.17124000000E+03 0. -1.
       11    1    1    2    0    0 -0.30620686783E-02  0.15236105513E-01  0.95601040865E+00  0.95613685100E+00  0.51109989000E-03 0. -1.
     -623    1    1    2    0    0  0.33979645842E-02 -0.16701205748E-01  0.13847986908E-03  0.17124000085E+03  0.17124000000E+03 0. -1.
       22    1    1    2    0    0 -0.33589791728E-03  0.14651101211E-02  0.99851612876E-01  0.99862925898E-01  0.00000000000E+00 0. -1.
</event>
<event>
 5   1  0.2192208E+09  0.9118800E+02  0.7818608E-02  0.1180000E+00
       11   -1    0    0    0    0  0.00000000000E+00  0.00000000000E+00  0.10559998763E+01  0.10560000000E+01  0.51109989000E-03 0. -1.
     -623   -1    0    0    0    0  0.00000000000E+00  0.00000000000E+00  0.47855275298E-10  0.17124000000E+03  0.17124000000E+03 0.  1.
       11    1    1    2    0    0 -0.19056185658E-02  0.10639113957E-02  0.87622054431E+00  0.87622341145E+00  0.51109989000E-03 0. -1.
     -623    1    1    2    0    0  0.24888806353E-02  0.26817367129E-02  0.42753532765E-04  0.17124000004E+03  0.17124000000E+03 0.  1.
       22    1    1    2    0    0 -0.58326205546E-03 -0.37456480935E-02  0.17973657255E+00  0.17977654348E+00  0.00000000000E+00 0.  1.
</event>
<event>
 5   1  0.2192208E+09  0.9118800E+02  0.7818608E-02  0.1180000E+00
       11   -1    0    0    0    0  0.00000000000E+00  0.00000000000E+00  0.10559998763E+01  0.10560000000E+01  0.51109989000E-03 0.  1.
     -623   -1    0    0    0    0  0.00000000000E+00  0.00000000000E+00  0.47855275298E-10  0.17124000000E+03  0.17124000000E+03 0.  1.
       11    1    1    2    0    0  0.53091750033E-03  0.15016273030E-02  0.95906282721E+00  0.95906428592E+00  0.51109989000E-03 0.  1.
     -623    1    1    2    0    0 -0.56659383446E-04 -0.45838104187E-04  0.13427579507E-04  0.17124000000E+03  0.17124000000E+03 0.  1.
       22    1    1    2    0    0 -0.47425811732E-03 -0.14557891991E-02  0.96923613460E-01  0.96935705955E-01  0.00000000000E+00 0. -1.
</event>
<event>
 5   1  0.2192208E+09  0.9118800E+02  0.7818608E-02  0.1180000E+00
       11   -1    0    0    0    0  0.00000000000E+00  0.00000000000E+00  0.10559998763E+01  0.10560000000E+01  0.51109989000E-03 0.  1.
     -623   -1    0    0    0    0  0.00000000000E+00  0.00000000000E+00  0.47855275298E-10  0.17124000000E+03  0.17124000000E+03 0. -1.
       11    1    1    2    0    0 -0.12279084094E-02  0.84166276448E-03  0.91847345329E+00  0.91847480193E+00  0.51109989000E-03 0.  1.
     -623    1    1    2    0    0  0.48339734485E-03 -0.25256394442E-02  0.13570147075E-04  0.17124000002E+03  0.17124000000E+03 0. -1.
       22    1    1    2    0    0  0.74451106272E-03  0.16839766894E-02  0.13751285696E+00  0.13752518279E+00  0.00000000000E+00 0. -1.
</event>
<event>
 5   1  0.2192208E+09  0.9118800E+02  0.7818608E-02  0.1180000E+00
       11   -1    0    0    0    0  0.00000000000E+00  0.00000000000E+00  0.10559998763E+01  0.10560000000E+01  0.51109989000E-03 0. -1.
     -623   -1    0    0    0    0  0.00000000000E+00  0.00000000000E+00  0.47855275298E-10  0.17124000000E+03  0.17124000000E+03 0.  1.
       11    1    1    2    0    0  0.39963665397E-02  0.37263836932E-02  0.62801549547E+00  0.62803947380E+00  0.51109989000E-03 0. -1.
     -623    1    1    2    0    0 -0.60546294367E-02 -0.87358340367E-02  0.58454364781E-04  0.17124000033E+03  0.17124000000E+03 0.  1.
       22    1    1    2    0    0  0.20582633897E-02  0.50094510544E-02  0.42792601246E+00  0.42796028226E+00  0.00000000000E+00 0.  1.
</event>
<event>
 5   1  0.2192208E+09  0.9118800E+02  0.7818608E-02  0.1180000E+00
       11   -1    0    0    0    0  0.00000000000E+00  0.00000000000E+00  0.10559998763E+01  0.10560000000E+01  0.51109989000E-03 0.  1.
     -623   -1    0    0    0    0  0.00000000000E+00  0.00000000000E+00  0.47855275298E-10  0.17124000000E+03  0.17124000000E+03 0. -1.
       11    1    1    2    0    0  0.87761024621E-04 -0.91730520849E-03  0.97579044677E+00  0.97579101573E+00  0.51109989000E-03 0.  1.
     -623    1    1    2    0    0  0.50650157578E-04 -0.19462276248E-03  0.82725159194E-05  0.17124000000E+03  0.17124000000E+03 0. -1.
       22    1    1    2    0    0 -0.13841118080E-03  0.11119279656E-02  0.80201127901E-01  0.80208954974E-01  0.00000000000E+00 0.  1.
</event>
<event>
 5   1  0.2192208E+09  0.9118800E+02  0.7818608E-02  0.1180000E+00
       11   -1    0    0    0    0  0.00000000000E+00  0.00000000000E+00  0.10559998763E+01  0.10560000000E+01  0.51109989000E-03 0. -1.
     -623   -1    0    0    0    0  0.00000000000E+00  0.00000000000E+00  0.47855275298E-10  0.17124000000E+03  0.17124000000E+03 0.  1.
       11    1    1    2    0    0 -0.18273447028E-02  0.11409631392E-01  0.79069498770E-01  0.79910986329E-01  0.51109989000E-03 0. -1.
     -623    1    1    2    0    0 -0.23261958396E-02  0.51128504628E-02  0.99014742354E-03  0.17124000009E+03  0.17124000000E+03 0.  1.
       22    1    1    2    0    0  0.41535405425E-02 -0.16522481855E-01  0.97594023020E+00  0.97608891871E+00  0.00000000000E+00 0. -1.
</event>
<event>
 5   1  0.2192208E+09  0.9118800E+02  0.7818608E-02  0.1180000E+00
       11   -1    0    0    0    0  0.00000000000E+00  0.00000000000E+00  0.10559998763E+01  0.10560000000E+01  0.51109989000E-03 0. -1.
     -623   -1    0    0    0    0  0.00000000000E+00  0.00000000000E+00  0.47855275298E-10  0.17124000000E+03  0.17124000000E+03 0.  1.
       11    1    1    2    0    0 -0.12965473515E-02 -0.14482579372E-02  0.94142412751E+00  0.94142627303E+00  0.51109989000E-03 0. -1.
     -623    1    1    2    0    0  0.12533969879E-03  0.12084289885E-03  0.15698523775E-04  0.17124000000E+03  0.17124000000E+03 0.  1.
       22    1    1    2    0    0  0.11712076523E-02  0.13274150379E-02  0.11456005388E+00  0.11457373042E+00  0.00000000000E+00 0. -1.
</event>
<event>
 5   1  0.2192208E+09  0.9118800E+02  0.7818608E-02  0.1180000E+00
       11   -1    0    0    0    0  0.00000000000E+00  0.00000000000E+00  0.10559998763E+01  0.10560000000E+01  0.51109989000E-03 0. -1.
     -623   -1    0    0    0    0  0.00000000000E+00  0.00000000000E+00  0.47855275298E-10  0.17124000000E+03  0.17124000000E+03 0.  1.
       11    1    1    2    0    0 -0.39264181445E-02  0.10912882775E-02  0.98819992836E+00  0.98820846349E+00  0.51109989000E-03 0. -1.
     -623    1    1    2    0    0  0.49144737187E-02 -0.27420069959E-02  0.35807345467E-04  0.17124000009E+03  0.17124000000E+03 0.  1.
       22    1    1    2    0    0 -0.98805563947E-03  0.16507187549E-02  0.67764154679E-01  0.67791458059E-01  0.00000000000E+00 0. -1.
</event>
<event>
 5   1  0.2192208E+09  0.9118800E+02  0.7818608E-02  0.1180000E+00
       11   -1    0    0    0    0  0.00000000000E+00  0.00000000000E+00  0.10559998763E+01  0.10560000000E+01  0.51109989000E-03 0. -1.
     -623   -1    0    0    0    0  0.00000000000E+00  0.00000000000E+00  0.47855275298E-10  0.17124000000E+03  0.17124000000E+03 0.  1.
       11    1    1    2    0    0  0.60804198059E-02 -0.88912677745E-02  0.90475866968E+00  0.90482293170E+00  0.51109989000E-03 0. -1.
     -623    1    1    2    0    0 -0.71595435553E-02  0.10508873775E-01  0.77116811768E-04  0.17124000047E+03  0.17124000000E+03 0.  1.
       22    1    1    2    0    0  0.10791331146E-02 -0.16176197473E-02  0.15116547109E+00  0.15117797747E+00  0.00000000000E+00 0. -1.
</event>
<event>
 5   1  0.2192208E+09  0.9118800E+02  0.7818608E-02  0.1180000E+00
       11   -1    0    0    0    0  0.00000000000E+00  0.00000000000E+00  0.10559998763E+01  0.10560000000E+01  0.51109989000E-03 0.  1.
     -623   -1    0    0    0    0  0.00000000000E+00  0.00000000000E+00  0.47855275298E-10  0.17124000000E+03  0.17124000000E+03 0.  1.
       11    1    1    2    0    0  0.26160332851E-02  0.23632460770E-02  0.98926900775E+00  0.98927542145E+00  0.51109989000E-03 0.  1.
     -623    1    1    2    0    0  0.54380175874E-03 -0.28160473380E-03  0.11366780734E-03  0.17124000000E+03  0.17124000000E+03 0.  1.
       22    1    1    2    0    0 -0.31598350428E-02 -0.20816413437E-02  0.66617198719E-01  0.66724575333E-01  0.00000000000E+00 0.  1.
</event>
<event>
 5   1  0.2192208E+09  0.9118800E+02  0.7818608E-02  0.1180000E+00
       11   -1    0    0    0    0  0.00000000000E+00  0.00000000000E+00  0.10559998763E+01  0.10560000000E+01  0.51109989000E-03 0.  1.
     -623   -1    0    0    0    0  0.00000000000E+00  0.00000000000E+00  0.47855275298E-10  0.17124000000E+03  0.17124000000E+03 0. -1.
       11    1    1    2    0    0  0.81448067249E-03 -0.96898584357E-02  0.31793969890E+00  0.31808877707E+00  0.51109989000E-03 0.  1.
     -623    1    1    2    0    0 -0.12741314429E-03 -0.72998589887E-04  0.21386067124E-03  0.17124000000E+03  0.17124000000E+03 0. -1.
       22    1    1    2    0    0 -0.68706752829E-03  0.97628570256E-02  0.73784631603E+00  0.73791122198E+00  0.00000000000E+00 0.  1.
</event>
<event>
 5   1  0.2192208E+09  0.9118800E+02  0.7818608E-02  0.1180000E+00
       11   -1    0    0    0    0  0.00000000000E+00  0.00000000000E+00  0.10559998763E+01  0.10560000000E+01  0.51109989000E-03 0. -1.
     -623   -1    0    0    0    0  0.00000000000E+00  0.00000000000E+00  0.47855275298E-10  0.17124000000E+03  0.17124000000E+03 0. -1.
       11    1    1    2    0    0  0.31993791815E-03 -0.29016341954E-02  0.88470471729E+00  0.88470968111E+00  0.51109989000E-03 0. -1.
     -623    1    1    2    0    0  0.74267272014E-04  0.97647383254E-03  0.16115566728E-04  0.17124000000E+03  0.17124000000E+03 0. -1.
       22    1    1    2    0    0 -0.39420519160E-03  0.19251603439E-02  0.17127906394E+00  0.17129033651E+00  0.00000000000E+00 0. -1.
</event>
<event>
 5   1  0.2192208E+09  0.9118800E+02  0.7818608E-02  0.1180000E+00
       11   -1    0    0    0    0  0.00000000000E+00  0.00000000000E+00  0.10559998763E+01  0.10560000000E+01  0.51109989000E-03 0. -1.
     -623   -1    0    0    0    0  0.00000000000E+00  0.00000000000E+00  0.47855275298E-10  0.17124000000E+03  0.17124000000E+03 0.  1.
       11    1    1    2    0    0  0.90842092135E-03  0.18096494981E-02  0.93222805711E+00  0.93223039628E+00  0.51109989000E-03 0. -1.
     -623    1    1    2    0    0 -0.35129014457E-03 -0.25342710712E-04  0.16332218992E-04  0.17124000000E+03  0.17124000000E+03 0.  1.
       22    1    1    2    0    0 -0.55713076645E-03 -0.17843067866E-02  0.12375551809E+00  0.12376963442E+00  0.00000000000E+00 0.  1.
</event>
<event>
 5   1  0.2192208E+09  0.9118800E+02  0.7818608E-02  0.1180000E+00
       11   -1    0    0    0    0  0.00000000000E+00  0.00000000000E+00  0.10559998763E+01  0.10560000000E+01  0.51109989000E-03 0. -1.
     -623   -1    0    0    0    0  0.00000000000E+00  0.00000000000E+00  0.47855275298E-10  0.17124000000E+03  0.17124000000E+03 0. -1.
       11    1    1    2    0    0  0.61668460328E-02 -0.99882436632E-02  0.28850598547E+00  0.28874514693E+00  0.51109989000E-03 0. -1.
     -623    1    1    2    0    0 -0.18255825564E-01  0.38831723646E-01  0.88208118291E-03  0.17124000538E+03  0.17124000000E+03 0. -1.
       22    1    1    2    0    0  0.12088978815E-01 -0.28843478459E-01  0.76661176828E+00  0.76724943332E+00  0.00000000000E+00 0. -1.
</event>
<event>
 5   1  0.2192208E+09  0.9118800E+02  0.7818608E-02  0.1180000E+00
       11   -1    0    0    0    0  0.00000000000E+00  0.00000000000E+00  0.10559998763E+01  0.10560000000E+01  0.51109989000E-03 0. -1.
     -623   -1    0    0    0    0  0.00000000000E+00  0.00000000000E+00  0.47855275298E-10  0.17124000000E+03  0.17124000000E+03 0.  1.
       11    1    1    2    0    0  0.18708947329E-01  0.96681409658E-02  0.53515824172E+00  0.53557268654E+00  0.51109989000E-03 0. -1.
     -623    1    1    2    0    0 -0.50427626126E-01 -0.15032765340E-01  0.14176137002E-02  0.17124000809E+03  0.17124000000E+03 0.  1.
       22    1    1    2    0    0  0.31718678739E-01  0.53646243575E-02  0.51942401974E+00  0.52041922145E+00  0.00000000000E+00 0. -1.
</event>
<event>
 5   1  0.2192208E+09  0.9118800E+02  0.7818608E-02  0.1180000E+00
       11   -1    0    0    0    0  0.00000000000E+00  0.00000000000E+00  0.10559998763E+01  0.10560000000E+01  0.51109989000E-03 0.  1.
     -623   -1    0    0    0    0  0.00000000000E+00  0.00000000000E+00  0.47855275298E-10  0.17124000000E+03  0.17124000000E+03 0. -1.
       11    1    1    2    0    0  0.44209009648E-02  0.88210284603E-02  0.89580693322E+00  0.89586141659E+00  0.51109989000E-03 0.  1.
     -623    1    1    2    0    0 -0.44480314299E-02 -0.10735077715E-01  0.66195538219E-04  0.17124000039E+03  0.17124000000E+03 0. -1.
       22    1    1    2    0    0  0.27130468220E-04  0.19140492624E-02  0.16012674836E+00  0.16013818989E+00  0.00000000000E+00 0. -1.
</event>
<event>
 5   1  0.2192208E+09  0.9118800E+02  0.7818608E-02  0.1180000E+00
       11   -1    0    0    0    0  0.00000000000E+00  0.00000000000E+00  0.10559998763E+01  0.10560000000E+01  0.51109989000E-03 0.  1.
     -623   -1    0    0    0    0  0.00000000000E+00  0.00000000000E+00  0.47855275298E-10  0.17124000000E+03  0.17124000000E+03 0.  1.
       11    1    1    2    0    0  0.13164574683E-01 -0.11294920961E-01  0.43514626005E+00  0.43549214703E+00  0.51109989000E-03 0.  1.
     -623    1    1    2    0    0 -0.37202555892E-01 -0.11493831183E-01  0.12349074084E-02  0.17124000443E+03  0.17124000000E+03 0.  1.
       22    1    1    2    0    0  0.24037981210E-01  0.22788752144E-01  0.61961870895E+00  0.62050342162E+00  0.00000000000E+00 0. -1.
</event>
<event>
 5   1  0.2192208E+09  0.9118800E+02  0.7818608E-02  0.1180000E+00
       11   -1    0    0    0    0  0.00000000000E+00  0.00000000000E+00  0.10559998763E+01  0.10560000000E+01  0.51109989000E-03 0. -1.
     -623   -1    0    0    0    0  0.00000000000E+00  0.00000000000E+00  0.47855275298E-10  0.17124000000E+03  0.17124000000E+03 0.  1.
       11    1    1    2    0    0  0.56828423097E-03 -0.19124664284E-01  0.94603474266E+00  0.94622833992E+00  0.51109989000E-03 0. -1.
     -623    1    1    2    0    0 -0.11745473195E-02  0.21835652967E-01  0.23002637309E-03  0.17124000140E+03  0.17124000000E+03 0.  1.
       22    1    1    2    0    0  0.60626325888E-03 -0.27109918500E-02  0.10973526045E+00  0.10977041687E+00  0.00000000000E+00 0. -1.
</event>
<event>
 5   1  0.2192208E+09  0.9118800E+02  0.7818608E-02  0.1180000E+00
       11   -1    0    0    0    0  0.00000000000E+00  0.00000000000E+00  0.10559998763E+01  0.10560000000E+01  0.51109989000E-03 0.  1.
     -623   -1    0    0    0    0  0.00000000000E+00  0.00000000000E+00  0.47855275298E-10  0.17124000000E+03  0.17124000000E+03 0.  1.
       11    1    1    2    0    0  0.31129544420E-02  0.21969560963E-01  0.97603366879E+00  0.97628599085E+00  0.51109989000E-03 0.  1.
     -623    1    1    2    0    0 -0.34184093135E-02 -0.23773406595E-01  0.27488103035E-03  0.17124000168E+03  0.17124000000E+03 0.  1.
       22    1    1    2    0    0  0.30544980616E-03  0.18038104058E-02  0.79689762199E-01  0.79710759819E-01  0.00000000000E+00 0.  1.
</event>
<event>
 5   1  0.2192208E+09  0.9118800E+02  0.7818608E-02  0.1180000E+00
       11   -1    0    0    0    0  0.00000000000E+00  0.00000000000E+00  0.10559998763E+01  0.10560000000E+01  0.51109989000E-03 0.  1.
     -623   -1    0    0    0    0  0.00000000000E+00  0.00000000000E+00  0.47855275298E-10  0.17124000000E+03  0.17124000000E+03 0. -1.
       11    1    1    2    0    0  0.21242231031E-02  0.19532772461E-01  0.98773450895E+00  0.98793003949E+00  0.51109989000E-03 0.  1.
     -623    1    1    2    0    0 -0.25405534053E-02 -0.20528484265E-01  0.20521275758E-03  0.17124000125E+03  0.17124000000E+03 0. -1.
       22    1    1    2    0    0  0.41633036451E-03  0.99571230749E-03  0.68060180549E-01  0.68068736952E-01  0.00000000000E+00 0.  1.
</event>
<event>
 5   1  0.2192208E+09  0.9118800E+02  0.7818608E-02  0.1180000E+00
       11   -1    0    0    0    0  0.00000000000E+00  0.00000000000E+00  0.10559998763E+01  0.10560000000E+01  0.51109989000E-03 0. -1.
     -623   -1    0    0    0    0  0.00000000000E+00  0.00000000000E+00  0.47855275298E-10  0.17124000000E+03  0.17124000000E+03 0. -1.
       11    1    1    2    0    0 -0.10188833587E-02 -0.21304172458E-02  0.86036071810E+00  0.86036411087E+00  0.51109989000E-03 0. -1.
     -623    1    1    2    0    0  0.84970502126E-05  0.27871245691E-04  0.17177049334E-04  0.17124000000E+03  0.17124000000E+03 0. -1.
       22    1    1    2    0    0  0.10103863085E-02  0.21025460002E-02  0.19562197863E+00  0.19563588654E+00  0.00000000000E+00 0. -1.
</event>
<event>
 5   1  0.2192208E+09  0.9118800E+02  0.7818608E-02  0.1180000E+00
       11   -1    0    0    0    0  0.00000000000E+00  0.00000000000E+00  0.10559998763E+01  0.10560000000E+01  0.51109989000E-03 0.  1.
     -623   -1    0    0    0    0  0.00000000000E+00  0.00000000000E+00  0.47855275298E-10  0.17124000000E+03  0.17124000000E+03 0. -1.
       11    1    1    2    0    0 -0.32970448200E-02 -0.16055161787E-01  0.10013171259E+01  0.10014513900E+01  0.51109989000E-03 0.  1.
     -623    1    1    2    0    0  0.34265053971E-02  0.16964561334E-01  0.14274991276E-03  0.17124000087E+03  0.17124000000E+03 0. -1.
       22    1    1    2    0    0 -0.12946556096E-03 -0.90942422108E-03  0.54541536313E-01  0.54549271279E-01  0.00000000000E+00 0. -1.
</event>
<event>
 5   1  0.2192208E+09  0.9118800E+02  0.7818608E-02  0.1180000E+00
       11   -1    0    0    0    0  0.00000000000E+00  0.00000000000E+00  0.10559998763E+01  0.10560000000E+01  0.51109989000E-03 0.  1.
     -623   -1    0    0    0    0  0.00000000000E+00  0.00000000000E+00  0.47855275298E-10  0.17124000000E+03  0.17124000000E+03 0. -1.
       11    1    1    2    0    0 -0.33196539818E-02 -0.98561679910E-02  0.91434615828E+00  0.91440544756E+00  0.51109989000E-03 0.  1.
     -623    1    1    2    0    0  0.36943461037E-02  0.11359296469E-01  0.68056710732E-04  0.17124000042E+03  0.17124000000E+03 0. -1.
       22    1    1    2    0    0 -0.37469566172E-03 -0.15031393624E-02  0.14158667313E+00  0.14159514763E+00  0.00000000000E+00 0. -1.
</event>
<event>
 5   1  0.2192208E+09  0.9118800E+02  0.7818608E-02  0.1180000E+00
       11   -1    0    0    0    0  0.00000000000E+00  0.00000000000E+00  0.10559998763E+01  0.10560000000E+01  0.51109989000E-03 0. -1.
     -623   -1    0    0    0    0  0.00000000000E+00  0.00000000000E+00  0.47855275298E-10  0.17124000000E+03  0.17124000000E+03 0. -1.
       11    1    1    2    0    0 -0.17593389752E-04 -0.27199644703E-02  0.17407980483E+00  0.17410180410E+00  0.51109989000E-03 0.  1.
     -623    1    1    2    0    0  0.22674913385E-02  0.15060807282E-01  0.11177333201E-03  0.17124000068E+03  0.17124000000E+03 0. -1.
       22    1    1    2    0    0 -0.22498981624E-02 -0.12340844231E-01  0.88180839770E+00  0.88189761806E+00  0.00000000000E+00 0. -1.
</event>
<event>
 5   1  0.2192208E+09  0.9118800E+02  0.7818608E-02  0.1180000E+00
       11   -1    0    0    0    0  0.00000000000E+00  0.00000000000E+00  0.10559998763E+01  0.10560000000E+01  0.51109989000E-03 0.  1.
     -623   -1    0    0    0    0  0.00000000000E+00  0.00000000000E+00  0.47855275298E-10  0.17124000000E+03  0.17124000000E+03 0.  1.
       11    1    1    2    0    0  0.14743830822E-02 -0.30889324154E-02  0.88644753553E+00  0.88645429086E+00  0.51109989000E-03 0.  1.
     -623    1    1    2    0    0  0.23625990866E-03  0.10958022236E-02  0.26981739144E-04  0.17124000000E+03  0.17124000000E+03 0.  1.
       22    1    1    2    0    0 -0.17106429888E-02  0.19931302012E-02  0.16952535007E+00  0.16954569645E+00  0.00000000000E+00 0.  1.
</event>
<event>
 5   1  0.2192208E+09  0.9118800E+02  0.7818608E-02  0.1180000E+00
       11   -1    0    0    0    0  0.00000000000E+00  0.00000000000E+00  0.10559998763E+01  0.10560000000E+01  0.51109989000E-03 0.  1.
     -623   -1    0    0    0    0  0.00000000000E+00  0.00000000000E+00  0.47855275298E-10  0.17124000000E+03  0.17124000000E+03 0.  1.
       11    1    1    2    0    0 -0.18375886157E-02 -0.13618045894E-01  0.33776859159E+00  0.33804838498E+00  0.51109989000E-03 0.  1.
     -623    1    1    2    0    0  0.96878533879E-03  0.18412129093E-02  0.37680499401E-03  0.17124000001E+03  0.17124000000E+03 0.  1.
       22    1    1    2    0    0  0.86880327686E-03  0.11776832985E-01  0.71785447985E+00  0.71795160203E+00  0.00000000000E+00 0.  1.
</event>
<event>
 5   1  0.2192208E+09  0.9118800E+02  0.7818608E-02  0.1180000E+00
       11   -1    0    0    0    0  0.00000000000E+00  0.00000000000E+00  0.10559998763E+01  0.10560000000E+01  0.51109989000E-03 0.  1.
     -623   -1    0    0    0    0  0.00000000000E+00  0.00000000000E+00  0.47855275298E-10  0.17124000000E+03  0.17124000000E+03 0.  1.
       11    1    1    2    0    0  0.11711234621E-02 -0.23322458881E-02  0.98019002597E+00  0.98019363349E+00  0.51109989000E-03 0.  1.
     -623    1    1    2    0    0 -0.10864461070E-02  0.33395664470E-02  0.10260163475E-04  0.17124000004E+03  0.17124000000E+03 0.  1.
       22    1    1    2    0    0 -0.84677314287E-04 -0.10073206842E-02  0.75799629865E-01  0.75806370134E-01  0.00000000000E+00 0. -1.
</event>
<event>
 5   1  0.2192208E+09  0.9118800E+02  0.7818608E-02  0.1180000E+00
       11   -1    0    0    0    0  0.00000000000E+00  0.00000000000E+00  0.10559998763E+01  0.10560000000E+01  0.51109989000E-03 0.  1.
     -623   -1    0    0    0    0  0.00000000000E+00  0.00000000000E+00  0.47855275298E-10  0.17124000000E+03  0.17124000000E+03 0.  1.
       11    1    1    2    0    0  0.52123814179E-03 -0.56203498203E-03  0.95760560408E+00  0.95760604727E+00  0.51109989000E-03 0.  1.
     -623    1    1    2    0    0 -0.10743298378E-02 -0.11586427924E-02  0.16928052821E-04  0.17124000001E+03  0.17124000000E+03 0.  1.
       22    1    1    2    0    0  0.55309170915E-03  0.17206777886E-02  0.98377357126E-01  0.98393958339E-01  0.00000000000E+00 0. -1.
</event>
<event>
 5   1  0.2192208E+09  0.9118800E+02  0.7818608E-02  0.1180000E+00
       11   -1    0    0    0    0  0.00000000000E+00  0.00000000000E+00  0.10559998763E+01  0.10560000000E+01  0.51109989000E-03 0.  1.
     -623   -1    0    0    0    0  0.00000000000E+00  0.00000000000E+00  0.47855275298E-10  0.17124000000E+03  0.17124000000E+03 0. -1.
       11    1    1    2    0    0 -0.12593591895E-02  0.64771267689E-02  0.82057839464E-01  0.82324294090E-01  0.51109989000E-03 0.  1.
     -623    1    1    2    0    0  0.28602213438E-02  0.34913629877E-02  0.31873688651E-03  0.17124000006E+03  0.17124000000E+03 0. -1.
       22    1    1    2    0    0 -0.16008621533E-02 -0.99684897554E-02  0.97362329965E+00  0.97367564577E+00  0.00000000000E+00 0.  1.
</event>
<event>
 5   1  0.2192208E+09  0.9118800E+02  0.7818608E-02  0.1180000E+00
       11   -1    0    0    0    0  0.00000000000E+00  0.00000000000E+00  0.10559998763E+01  0.10560000000E+01  0.51109989000E-03 0. -1.
     -623   -1    0    0    0    0  0.00000000000E+00  0.00000000000E+00  0.47855275298E-10  0.17124000000E+03  0.17124000000E+03 0.  1.
       11    1    1    2    0    0 -0.55105941131E-02  0.36626654469E-02  0.15569179457E+00  0.15583317325E+00  0.51109989000E-03 0. -1.
     -623    1    1    2    0    0  0.70531764273E-02 -0.20344217852E-01  0.29851264933E-03  0.17124000135E+03  0.17124000000E+03 0.  1.
       22    1    1    2    0    0 -0.15425823147E-02  0.16681552407E-01  0.90000956922E+00  0.90016547281E+00  0.00000000000E+00 0. -1.
</event>
<event>
 5   1  0.2192208E+09  0.9118800E+02  0.7818608E-02  0.1180000E+00
       11   -1    0    0    0    0  0.00000000000E+00  0.00000000000E+00  0.10559998763E+01  0.10560000000E+01  0.51109989000E-03 0.  1.
     -623   -1    0    0    0    0  0.00000000000E+00  0.00000000000E+00  0.47855275298E-10  0.17124000000E+03  0.17124000000E+03 0. -1.
       11    1    1    2    0    0  0.21397843955E-01 -0.26710317250E-01  0.47324823149E+00  0.47448441344E+00  0.51109989000E-03 0.  1.
     -623    1    1    2    0    0 -0.20568212775E-01 -0.16668863349E-01  0.28589583767E-02  0.17124000207E+03  0.17124000000E+03 0. -1.
       22    1    1    2    0    0 -0.82963117884E-03  0.43379180601E-01  0.57989268658E+00  0.58151351622E+00  0.00000000000E+00 0.  1.
</event>
<event>
 5   1  0.2192208E+09  0.9118800E+02  0.7818608E-02  0.1180000E+00
       11   -1    0    0    0    0  0.00000000000E+00  0.00000000000E+00  0.10559998763E+01  0.10560000000E+01  0.51109989000E-03 0.  1.
     -623   -1    0    0    0    0  0.00000000000E+00  0.00000000000E+00  0.47855275298E-10  0.17124000000E+03  0.17124000000E+03 0.  1.
       11    1    1    2    0    0  0.74422308148E-02 -0.76873145632E-02  0.10050532374E+01  0.10051103187E+01  0.51109989000E-03 0.  1.
     -623    1    1    2    0    0 -0.77807329227E-02  0.83844268654E-02  0.63240628770E-04  0.17124000038E+03  0.17124000000E+03 0.  1.
       22    1    1    2    0    0  0.33850418783E-03 -0.69711454348E-03  0.50883680641E-01  0.50889581540E-01  0.00000000000E+00 0. -1.
</event>
<event>
 5   1  0.2192208E+09  0.9118800E+02  0.7818608E-02  0.1180000E+00
       11   -1    0    0    0    0  0.00000000000E+00  0.00000000000E+00  0.10559998763E+01  0.10560000000E+01  0.51109989000E-03 0. -1.
     -623   -1    0    0    0    0  0.00000000000E+00  0.00000000000E+00  0.47855275298E-10  0.17124000000E+03  0.17124000000E+03 0. -1.
       11    1    1    2    0    0 -0.61770646727E-02  0.34356408194E-03  0.65176379923E+00  0.65179336094E+00  0.51109989000E-03 0. -1.
     -623    1    1    2    0    0  0.13633169790E-01 -0.53570072950E-02  0.12993707277E-03  0.17124000063E+03  0.17124000000E+03 0. -1.
       22    1    1    2    0    0 -0.74561050274E-02  0.50134431776E-02  0.40410613307E+00  0.40420600552E+00  0.00000000000E+00 0.  1.
</event>
<event>
 5   1  0.2192208E+09  0.9118800E+02  0.7818608E-02  0.1180000E+00
       11   -1    0    0    0    0  0.00000000000E+00  0.00000000000E+00  0.10559998763E+01  0.10560000000E+01  0.51109989000E-03 0. -1.
     -623   -1    0    0    0    0  0.00000000000E+00  0.00000000000E+00  0.47855275298E-10  0.17124000000E+03  0.17124000000E+03 0.  1.
       11    1    1    2    0    0  0.37709331552E-02 -0.26571684062E-02  0.92635229339E+00  0.92636392048E+00  0.51109989000E-03 0. -1.
     -623    1    1    2    0    0 -0.28393769002E-03 -0.36417768517E-03  0.93635619512E-04  0.17124000000E+03  0.17124000000E+03 0.  1.
       22    1    1    2    0    0 -0.34869954652E-02  0.30213460915E-02  0.12955394758E+00  0.12963607910E+00  0.00000000000E+00 0.  1.
</event>
<event>
 5   1  0.2192208E+09  0.9118800E+02  0.7818608E-02  0.1180000E+00
       11   -1    0    0    0    0  0.00000000000E+00  0.00000000000E+00  0.10559998763E+01  0.10560000000E+01  0.51109989000E-03 0.  1.
     -623   -1    0    0    0    0  0.00000000000E+00  0.00000000000E+00  0.47855275298E-10  0.17124000000E+03  0.17124000000E+03 0. -1.
       11    1    1    2    0    0 -0.10961052686E-03  0.63544592606E-03  0.10015739758E+01  0.10015743138E+01  0.51109989000E-03 0.  1.
     -623    1    1    2    0    0  0.31679413372E-04 -0.66745040504E-04  0.32414493680E-05  0.17124000000E+03  0.17124000000E+03 0. -1.
       22    1    1    2    0    0  0.77931111345E-04 -0.56870088104E-03  0.54422730512E-01  0.54425757600E-01  0.00000000000E+00 0.  1.
</event>
<event>
 5   1  0.2192208E+09  0.9118800E+02  0.7818608E-02  0.1180000E+00
       11   -1    0    0    0    0  0.00000000000E+00  0.00000000000E+00  0.10559998763E+01  0.10560000000E+01  0.51109989000E-03 0.  1.
     -623   -1    0    0    0    0  0.00000000000E+00  0.00000000000E+00  0.47855275298E-10  0.17124000000E+03  0.17124000000E+03 0. -1.
       11    1    1    2    0    0  0.43232287717E-03 -0.36594105135E-02  0.64956461257E+00  0.64957526532E+00  0.51109989000E-03 0.  1.
     -623    1    1    2    0    0  0.62206193700E-04 -0.49675469680E-03  0.32082093756E-04  0.17124000000E+03  0.17124000000E+03 0. -1.
       22    1    1    2    0    0 -0.49452907151E-03  0.41561652153E-02  0.40640319248E+00  0.40642474472E+00  0.00000000000E+00 0.  1.
</event>
<event>
 5   1  0.2192208E+09  0.9118800E+02  0.7818608E-02  0.1180000E+00
       11   -1    0    0    0    0  0.00000000000E+00  0.00000000000E+00  0.10559998763E+01  0.10560000000E+01  0.51109989000E-03 0. -1.
     -623   -1    0    0    0    0  0.00000000000E+00  0.00000000000E+00  0.47855275298E-10  0.17124000000E+03  0.17124000000E+03 0.  1.
       11    1    1    2    0    0  0.78138847581E-03 -0.46428377693E-02  0.62679984004E+00  0.62681773045E+00  0.51109989000E-03 0. -1.
     -623    1    1    2    0    0 -0.18084528711E-03  0.10890505995E-01  0.64009944059E-04  0.17124000035E+03  0.17124000000E+03 0.  1.
       22    1    1    2    0    0 -0.60054317600E-03 -0.62476689900E-02  0.42913610046E+00  0.42918199722E+00  0.00000000000E+00 0.  1.
</event>
<event>
 5   1  0.2192208E+09  0.9118800E+02  0.7818608E-02  0.1180000E+00
       11   -1    0    0    0    0  0.00000000000E+00  0.00000000000E+00  0.10559998763E+01  0.10560000000E+01  0.51109989000E-03 0.  1.
     -623   -1    0    0    0    0  0.00000000000E+00  0.00000000000E+00  0.47855275298E-10  0.17124000000E+03  0.17124000000E+03 0. -1.
       11    1    1    2    0    0 -0.51463825775E-02 -0.13875823120E-01  0.98985944429E+00  0.98997020379E+00  0.51109989000E-03 0.  1.
     -623    1    1    2    0    0  0.54841774878E-02  0.14831852093E-01  0.11915169333E-03  0.17124000073E+03  0.17124000000E+03 0. -1.
       22    1    1    2    0    0 -0.33779078796E-03 -0.95601782430E-03  0.66020486695E-01  0.66028272248E-01  0.00000000000E+00 0.  1.
</event>
<event>
 5   1  0.2192208E+09  0.9118800E+02  0.7818608E-02  0.1180000E+00
       11   -1    0    0    0    0  0.00000000000E+00  0.00000000000E+00  0.10559998763E+01  0.10560000000E+01  0.51109989000E-03 0. -1.
     -623   -1    0    0    0    0  0.00000000000E+00  0.00000000000E+00  0.47855275298E-10  0.17124000000E+03  0.17124000000E+03 0.  1.
       11    1    1    2    0    0 -0.34544850968E-02 -0.45115191820E-02  0.75170592405E+00  0.75172757349E+00  0.51109989000E-03 0. -1.
     -623    1    1    2    0    0  0.77052398908E-04 -0.68733259578E-04  0.74748874450E-04  0.17124000000E+03  0.17124000000E+03 0.  1.
       22    1    1    2    0    0  0.33774326976E-02  0.45802524418E-02  0.30421920670E+00  0.30427242972E+00  0.00000000000E+00 0. -1.
</event>
<event>
 5   1  0.2192208E+09  0.9118800E+02  0.7818608E-02  0.1180000E+00
       11   -1    0    0    0    0  0.00000000000E+00  0.00000000000E+00  0.10559998763E+01  0.10560000000E+01  0.51109989000E-03 0. -1.
     -623   -1    0    0    0    0  0.00000000000E+00  0.00000000000E+00  0.47855275298E-10  0.17124000000E+03  0.17124000000E+03 0. -1.
       11    1    1    2    0    0 -0.54921592846E-02  0.96231974762E-02  0.78926732461E+00  0.78934526075E+00  0.51109989000E-03 0. -1.
     -623    1    1    2    0    0  0.65005547570E-02 -0.13246037020E-01  0.10496672674E-03  0.17124000064E+03  0.17124000000E+03 0. -1.
       22    1    1    2    0    0 -0.10083965789E-02  0.36228417980E-02  0.26662776475E+00  0.26665428326E+00  0.00000000000E+00 0.  1.
</event>
<event>
 5   1  0.2192208E+09  0.9118800E+02  0.7818608E-02  0.1180000E+00
       11   -1    0    0    0    0  0.00000000000E+00  0.00000000000E+00  0.10559998763E+01  0.10560000000E+01  0.51109989000E-03 0. -1.
     -623   -1    0    0    0    0  0.00000000000E+00  0.00000000000E+00  0.47855275298E-10  0.17124000000E+03  0.17124000000E+03 0. -1.
       11    1    1    2    0    0 -0.27110817853E-02  0.80041423931E-02  0.65542625702E+00  0.65548093479E+00  0.51109989000E-03 0. -1.
     -623    1    1    2    0    0  0.44371186190E-02 -0.12169686269E-01  0.80425674636E-04  0.17124000049E+03  0.17124000000E+03 0. -1.
       22    1    1    2    0    0 -0.17260396222E-02  0.41655515245E-02  0.40049385727E+00  0.40051923892E+00  0.00000000000E+00 0. -1.
</event>
<event>
 5   1  0.2192208E+09  0.9118800E+02  0.7818608E-02  0.1180000E+00
       11   -1    0    0    0    0  0.00000000000E+00  0.00000000000E+00  0.10559998763E+01  0.10560000000E+01  0.51109989000E-03 0. -1.
     -623   -1    0    0    0    0  0.00000000000E+00  0.00000000000E+00  0.47855275298E-10  0.17124000000E+03  0.17124000000E+03 0. -1.
       11    1    1    2    0    0  0.19509858973E-02 -0.99002943328E-02  0.95408287451E+00  0.95413637119E+00  0.51109989000E-03 0. -1.
     -623    1    1    2    0    0 -0.19679168510E-02  0.10969278849E-01  0.59346384187E-04  0.17124000036E+03  0.17124000000E+03 0. -1.
       22    1    1    2    0    0  0.16932151370E-04 -0.10689911919E-02  0.10185829813E+00  0.10186390885E+00  0.00000000000E+00 0. -1.
</event>
<event>
 5   1  0.2192208E+09  0.9118800E+02  0.7818608E-02  0.1180000E+00
       11   -1    0    0    0    0  0.00000000000E+00  0.00000000000E+00  0.10559998763E+01  0.10560000000E+01  0.51109989000E-03 0.  1.
     -623   -1    0    0    0    0  0.00000000000E+00  0.00000000000E+00  0.47855275298E-10  0.17124000000E+03  0.17124000000E+03 0. -1.
       11    1    1    2    0    0 -0.24109254809E-02  0.63259944547E-02  0.42386829876E+00  0.42392266592E+00  0.51109989000E-03 0.  1.
     -623    1    1    2    0    0  0.33323721030E-02 -0.18780990396E-01  0.17870184022E-03  0.17124000106E+03  0.17124000000E+03 0. -1.
       22    1    1    2    0    0 -0.92144651880E-03  0.12454995359E-01  0.63195284303E+00  0.63207623891E+00  0.00000000000E+00 0.  1.
</event>
<event>
 5   1  0.2192208E+09  0.9118800E+02  0.7818608E-02  0.1180000E+00
       11   -1    0    0    0    0  0.00000000000E+00  0.00000000000E+00  0.10559998763E+01  0.10560000000E+01  0.51109989000E-03 0.  1.
     -623   -1    0    0    0    0  0.00000000000E+00  0.00000000000E+00  0.47855275298E-10  0.17124000000E+03  0.17124000000E+03 0.  1.
       11    1    1    2    0    0 -0.48203463758E-03  0.21450771095E-02  0.97410981975E+00  0.97411243492E+00  0.51109989000E-03 0.  1.
     -623    1    1    2    0    0  0.74830705152E-03 -0.47925302996E-03  0.19872381811E-04  0.17124000000E+03  0.17124000000E+03 0.  1.
       22    1    1    2    0    0 -0.26627241994E-03 -0.16658240757E-02  0.81870192685E-01  0.81887571225E-01  0.00000000000E+00 0.  1.
</event>
<event>
 5   1  0.2192208E+09  0.9118800E+02  0.7818608E-02  0.1180000E+00
       11   -1    0    0    0    0  0.00000000000E+00  0.00000000000E+00  0.10559998763E+01  0.10560000000E+01  0.51109989000E-03 0. -1.
     -623   -1    0    0    0    0  0.00000000000E+00  0.00000000000E+00  0.47855275298E-10  0.17124000000E+03  0.17124000000E+03 0.  1.
       11    1    1    2    0    0 -0.69810470271E-03 -0.62646191921E-03  0.99697571299E+00  0.99697628524E+00  0.51109989000E-03 0. -1.
     -623    1    1    2    0    0  0.11102570590E-03 -0.43981155979E-04  0.71764531109E-05  0.17124000000E+03  0.17124000000E+03 0.  1.
       22    1    1    2    0    0  0.58707898960E-03  0.67044307805E-03  0.59017055452E-01  0.59023783257E-01  0.00000000000E+00 0. -1.
</event>
<event>
 5   1  0.2192208E+09  0.9118800E+02  0.7818608E-02  0.1180000E+00
       11   -1    0    0    0    0  0.00000000000E+00  0.00000000000E+00  0.10559998763E+01  0.10560000000E+01  0.51109989000E-03 0. -1.
     -623   -1    0    0    0    0  0.00000000000E+00  0.00000000000E+00  0.47855275298E-10  0.17124000000E+03  0.17124000000E+03 0.  1.
       11    1    1    2    0    0 -0.24961966025E-02 -0.25449963952E-01  0.99789756863E+00  0.99822530040E+00  0.51109989000E-03 0. -1.
     -623    1    1    2    0    0  0.27435891329E-02  0.27014021860E-01  0.35146666407E-03  0.17124000215E+03  0.17124000000E+03 0.  1.
       22    1    1    2    0    0 -0.24739618335E-03 -0.15640938758E-02  0.57752246621E-01  0.57773952472E-01  0.00000000000E+00 0. -1.
</event>
<event>
 5   1  0.2192208E+09  0.9118800E+02  0.7818608E-02  0.1180000E+00
       11   -1    0    0    0    0  0.00000000000E+00  0.00000000000E+00  0.10559998763E+01  0.10560000000E+01  0.51109989000E-03 0.  1.
     -623   -1    0    0    0    0  0.00000000000E+00  0.00000000000E+00  0.47855275298E-10  0.17124000000E+03  0.17124000000E+03 0. -1.
       11    1    1    2    0    0 -0.40402822092E-01 -0.19640871293E-01  0.99085179110E+00  0.99186979237E+00  0.51109989000E-03 0.  1.
     -623    1    1    2    0    0  0.42877051615E-01  0.20853058442E-01  0.10837381818E-02  0.17124000664E+03  0.17124000000E+03 0. -1.
       22    1    1    2    0    0 -0.24741777333E-02 -0.12121619611E-02  0.64063072875E-01  0.64122290962E-01  0.00000000000E+00 0. -1.
</event>
<event>
 5   1  0.2192208E+09  0.9118800E+02  0.7818608E-02  0.1180000E+00
       11   -1    0    0    0    0  0.00000000000E+00  0.00000000000E+00  0.10559998763E+01  0.10560000000E+01  0.51109989000E-03 0. -1.
     -623   -1    0    0    0    0  0.00000000000E+00  0.00000000000E+00  0.47855275298E-10  0.17124000000E+03  0.17124000000E+03 0.  1.
       11    1    1    2    0    0  0.28923137779E-02 -0.37377056773E-02  0.93266776718E+00  0.93267988136E+00  0.51109989000E-03 0. -1.
     -623    1    1    2    0    0 -0.28476124850E-02  0.54514442344E-02  0.24017303084E-04  0.17124000011E+03  0.17124000000E+03 0.  1.
       22    1    1    2    0    0 -0.44701239385E-04 -0.17137386596E-02  0.12330811175E+00  0.12332002807E+00  0.00000000000E+00 0.  1.
</event>
<event>
 5   1  0.2192208E+09  0.9118800E+02  0.7818608E-02  0.1180000E+00
       11   -1    0    0    0    0  0.00000000000E+00  0.00000000000E+00  0.10559998763E+01  0.10560000000E+01  0.51109989000E-03 0.  1.
     -623   -1    0    0    0    0  0.00000000000E+00  0.00000000000E+00  0.47855275298E-10  0.17124000000E+03  0.17124000000E+03 0. -1.
       11    1    1    2    0    0  0.15414159878E-02 -0.33563449816E-03  0.33563865122E+00  0.33564274762E+00  0.51109989000E-03 0.  1.
     -623    1    1    2    0    0  0.24798890374E-02  0.90028164951E-02  0.67595244159E-04  0.17124000025E+03  0.17124000000E+03 0. -1.
       22    1    1    2    0    0 -0.40213050523E-02 -0.86671820954E-02  0.72029364144E+00  0.72035700929E+00  0.00000000000E+00 0. -1.
</event>
<event>
 5   1  0.2192208E+09  0.9118800E+02  0.7818608E-02  0.1180000E+00
       11   -1    0    0    0    0  0.00000000000E+00  0.00000000000E+00  0.10559998763E+01  0.10560000000E+01  0.51109989000E-03 0. -1.
     -623   -1    0    0    0    0  0.00000000000E+00  0.00000000000E+00  0.47855275298E-10  0.17124000000E+03  0.17124000000E+03 0.  1.
       11    1    1    2    0    0  0.31055156754E-01  0.36990853894E-01  0.95154761945E+00  0.95277273226E+00  0.51109989000E-03 0. -1.
     -623    1    1    2    0    0 -0.35862549059E-01 -0.43027464080E-01  0.15230362728E-02  0.17124000917E+03  0.17124000000E+03 0.  1.
       22    1    1    2    0    0  0.48073920029E-02  0.60366098241E-02  0.10292921177E+00  0.10321809101E+00  0.00000000000E+00 0.  1.
</event>
<event>
 5   1  0.2192208E+09  0.9118800E+02  0.7818608E-02  0.1180000E+00
       11   -1    0    0    0    0  0.00000000000E+00  0.00000000000E+00  0.10559998763E+01  0.10560000000E+01  0.51109989000E-03 0.  1.
     -623   -1    0    0    0    0  0.00000000000E+00  0.00000000000E+00  0.47855275298E-10  0.17124000000E+03  0.17124000000E+03 0. -1.
       11    1    1    2    0    0  0.20709230886E-02 -0.17895998654E-01  0.99749541929E+00  0.99765822215E+00  0.51109989000E-03 0.  1.
     -623    1    1    2    0    0 -0.24643997962E-02  0.19506766787E-01  0.18737618418E-03  0.17124000113E+03  0.17124000000E+03 0. -1.
       22    1    1    2    0    0  0.39347668201E-03 -0.16107679300E-02  0.58317069920E-01  0.58340637991E-01  0.00000000000E+00 0. -1.
</event>
<event>
 5   1  0.2192208E+09  0.9118800E+02  0.7818608E-02  0.1180000E+00
       11   -1    0    0    0    0  0.00000000000E+00  0.00000000000E+00  0.10559998763E+01  0.10560000000E+01  0.51109989000E-03 0. -1.
     -623   -1    0    0    0    0  0.00000000000E+00  0.00000000000E+00  0.47855275298E-10  0.17124000000E+03  0.17124000000E+03 0.  1.
       11    1    1    2    0    0  0.29346087691E-01 -0.13514335777E-01  0.99659057561E+00  0.99711426966E+00  0.51109989000E-03 0. -1.
     -623    1    1    2    0    0 -0.29465702281E-01  0.15221246170E-01  0.55164996206E-03  0.17124000321E+03  0.17124000000E+03 0.  1.
       22    1    1    2    0    0  0.11961468551E-03 -0.17069104415E-02  0.58857654180E-01  0.58882521230E-01  0.00000000000E+00 0. -1.
</event>
<event>
 5   1  0.2192208E+09  0.9118800E+02  0.7818608E-02  0.1180000E+00
       11   -1    0    0    0    0  0.00000000000E+00  0.00000000000E+00  0.10559998763E+01  0.10560000000E+01  0.51109989000E-03 0.  1.
     -623   -1    0    0    0    0  0.00000000000E+00  0.00000000000E+00  0.47855275298E-10  0.17124000000E+03  0.17124000000E+03 0. -1.
       11    1    1    2    0    0  0.32814040721E-03 -0.52709266169E-03  0.99707837859E+00  0.99707870290E+00  0.51109989000E-03 0.  1.
     -623    1    1    2    0    0  0.62371467754E-04 -0.15983479910E-03  0.54993233138E-05  0.17124000000E+03  0.17124000000E+03 0. -1.
       22    1    1    2    0    0 -0.39051187734E-03  0.68692746686E-03  0.58916038603E-01  0.58921337167E-01  0.00000000000E+00 0.  1.
</event>
<event>
 5   1  0.2192208E+09  0.9118800E+02  0.7818608E-02  0.1180000E+00
       11   -1    0    0    0    0  0.00000000000E+00  0.00000000000E+00  0.10559998763E+01  0.10560000000E+01  0.51109989000E-03 0.  1.
     -623   -1    0    0    0    0  0.00000000000E+00  0.00000000000E+00  0.47855275298E-10  0.17124000000E+03  0.17124000000E+03 0. -1.
       11    1    1    2    0    0 -0.24447800344E-02  0.52498006749E-03  0.99014177164E+00  0.99014506095E+00  0.51109989000E-03 0.  1.
     -623    1    1    2    0    0  0.39649052303E-03  0.13420148803E-03  0.38328676975E-04  0.17124000000E+03  0.17124000000E+03 0. -1.
       22    1    1    2    0    0  0.20482895131E-02 -0.65918155492E-03  0.65819771268E-01  0.65854933756E-01  0.00000000000E+00 0.  1.
</event>
<event>
 5   1  0.2192208E+09  0.9118800E+02  0.7818608E-02  0.1180000E+00
       11   -1    0    0    0    0  0.00000000000E+00  0.00000000000E+00  0.10559998763E+01  0.10560000000E+01  0.51109989000E-03 0. -1.
     -623   -1    0    0    0    0  0.00000000000E+00  0.00000000000E+00  0.47855275298E-10  0.17124000000E+03  0.17124000000E+03 0. -1.
       11    1    1    2    0    0  0.15544852622E-03  0.16959156496E-02  0.89267907277E+00  0.89268084357E+00  0.51109989000E-03 0. -1.
     -623    1    1    2    0    0  0.14549928013E-02  0.68993381954E-04  0.19130584254E-04  0.17124000001E+03  0.17124000000E+03 0. -1.
       22    1    1    2    0    0 -0.16104413262E-02 -0.17649090315E-02  0.16330167203E+00  0.16331914925E+00  0.00000000000E+00 0.  1.
</event>
<event>
 5   1  0.2192208E+09  0.9118800E+02  0.7818608E-02  0.1180000E+00
       11   -1    0    0    0    0  0.00000000000E+00  0.00000000000E+00  0.10559998763E+01  0.10560000000E+01  0.51109989000E-03 0. -1.
     -623   -1    0    0    0    0  0.00000000000E+00  0.00000000000E+00  0.47855275298E-10  0.17124000000E+03  0.17124000000E+03 0. -1.
       11    1    1    2    0    0 -0.26911411106E-04  0.50959547267E-02  0.98887486809E+00  0.98888813091E+00  0.51109989000E-03 0. -1.
     -623    1    1    2    0    0  0.22895654428E-03 -0.61122151659E-02  0.21247545607E-04  0.17124000011E+03  0.17124000000E+03 0. -1.
       22    1    1    2    0    0 -0.20204513567E-03  0.10162605058E-02  0.67103772248E-01  0.67111771379E-01  0.00000000000E+00 0. -1.
</event>
<event>
 5   1  0.2192208E+09  0.9118800E+02  0.7818608E-02  0.1180000E+00
       11   -1    0    0    0    0  0.00000000000E+00  0.00000000000E+00  0.10559998763E+01  0.10560000000E+01  0.51109989000E-03 0. -1.
     -623   -1    0    0    0    0  0.00000000000E+00  0.00000000000E+00  0.47855275298E-10  0.17124000000E+03  0.17124000000E+03 0.  1.
       11    1    1    2    0    0 -0.14540961103E-02 -0.47877998533E-02  0.60110118515E+00  0.60112222837E+00  0.51109989000E-03 0. -1.
     -623    1    1    2    0    0 -0.22024002074E-03 -0.32385136423E-03  0.52723512561E-04  0.17124000000E+03  0.17124000000E+03 0.  1.
       22    1    1    2    0    0  0.16743361321E-02  0.51116512191E-02  0.45484597271E+00  0.45487777619E+00  0.00000000000E+00 0. -1.
</event>
<event>
 5   1  0.2192208E+09  0.9118800E+02  0.7818608E-02  0.1180000E+00
       11   -1    0    0    0    0  0.00000000000E+00  0.00000000000E+00  0.10559998763E+01  0.10560000000E+01  0.51109989000E-03 0. -1.
     -623   -1    0    0    0    0  0.00000000000E+00  0.00000000000E+00  0.47855275298E-10  0.17124000000E+03  0.17124000000E+03 0. -1.
       11    1    1    2    0    0  0.64377501664E-05  0.66784974411E-02  0.91719776221E+00  0.91722221877E+00  0.51109989000E-03 0. -1.
     -623    1    1    2    0    0 -0.90577033314E-03 -0.82353841205E-02  0.36180872055E-04  0.17124000020E+03  0.17124000000E+03 0. -1.
       22    1    1    2    0    0  0.89933263679E-03  0.15568871687E-02  0.13876599602E+00  0.13877764355E+00  0.00000000000E+00 0.  1.
</event>
<event>
 5   1  0.2192208E+09  0.9118800E+02  0.7818608E-02  0.1180000E+00
       11   -1    0    0    0    0  0.00000000000E+00  0.00000000000E+00  0.10559998763E+01  0.10560000000E+01  0.51109989000E-03 0.  1.
     -623   -1    0    0    0    0  0.00000000000E+00  0.00000000000E+00  0.47855275298E-10  0.17124000000E+03  0.17124000000E+03 0.  1.
       11    1    1    2    0    0 -0.13540291531E-01  0.24043430058E-01  0.46590417551E+00  0.46672088875E+00  0.51109989000E-03 0.  1.
     -623    1    1    2    0    0  0.43790955850E-02  0.40777759726E-02  0.15593726421E-02  0.17124000011E+03  0.17124000000E+03 0.  1.
       22    1    1    2    0    0  0.91611959458E-02 -0.28121206031E-01  0.58853632832E+00  0.58927899971E+00  0.00000000000E+00 0.  1.
</event>
<event>
 5   1  0.2192208E+09  0.9118800E+02  0.7818608E-02  0.1180000E+00
       11   -1    0    0    0    0  0.00000000000E+00  0.00000000000E+00  0.10559998763E+01  0.10560000000E+01  0.51109989000E-03 0.  1.
     -623   -1    0    0    0    0  0.00000000000E+00  0.00000000000E+00  0.47855275298E-10  0.17124000000E+03  0.17124000000E+03 0. -1.
       11    1    1    2    0    0 -0.39246988721E-03  0.24784004580E-01  0.97481592629E+00  0.97513114620E+00  0.51109989000E-03 0.  1.
     -623    1    1    2    0    0  0.72067109397E-03 -0.27004900450E-01  0.34839648087E-03  0.17124000213E+03  0.17124000000E+03 0. -1.
       22    1    1    2    0    0 -0.32820146949E-03  0.22209057158E-02  0.80835938455E-01  0.80867107555E-01  0.00000000000E+00 0. -1.
</event>
<event>
 5   1  0.2192208E+09  0.9118800E+02  0.7818608E-02  0.1180000E+00
       11   -1    0    0    0    0  0.00000000000E+00  0.00000000000E+00  0.10559998763E+01  0.10560000000E+01  0.51109989000E-03 0. -1.
     -623   -1    0    0    0    0  0.00000000000E+00  0.00000000000E+00  0.47855275298E-10  0.17124000000E+03  0.17124000000E+03 0.  1.
       11    1    1    2    0    0 -0.10711874866E-02  0.15315065783E-02  0.97938305211E+00  0.97938496871E+00  0.51109989000E-03 0. -1.
     -623    1    1    2    0    0  0.10243193785E-02 -0.56071553349E-03  0.79619861857E-05  0.17124000000E+03  0.17124000000E+03 0.  1.
       22    1    1    2    0    0  0.46868072541E-04 -0.97079102529E-03  0.76608898948E-01  0.76615063988E-01  0.00000000000E+00 0.  1.
</event>
<event>
 5   1  0.2192208E+09  0.9118800E+02  0.7818608E-02  0.1180000E+00
       11   -1    0    0    0    0  0.00000000000E+00  0.00000000000E+00  0.10559998763E+01  0.10560000000E+01  0.51109989000E-03 0. -1.
     -623   -1    0    0    0    0  0.00000000000E+00  0.00000000000E+00  0.47855275298E-10  0.17124000000E+03  0.17124000000E+03 0.  1.
       11    1    1    2    0    0  0.10279478471E-02  0.15822753374E-02  0.90834964718E+00  0.90835175071E+00  0.51109989000E-03 0. -1.
     -623    1    1    2    0    0  0.13056456453E-03  0.38332904101E-03  0.19610327089E-04  0.17124000000E+03  0.17124000000E+03 0.  1.
       22    1    1    2    0    0 -0.11585124123E-02 -0.19656043804E-02  0.14763062455E+00  0.14764825449E+00  0.00000000000E+00 0.  1.
</event>
<event>
 5   1  0.2192208E+09  0.9118800E+02  0.7818608E-02  0.1180000E+00
       11   -1    0    0    0    0  0.00000000000E+00  0.00000000000E+00  0.10559998763E+01  0.10560000000E+01  0.51109989000E-03 0.  1.
     -623   -1    0    0    0    0  0.00000000000E+00  0.00000000000E+00  0.47855275298E-10  0.17124000000E+03  0.17124000000E+03 0.  1.
       11    1    1    2    0    0  0.29112967751E-01  0.10467930000E-01  0.93087103926E+00  0.93138514880E+00  0.51109989000E-03 0.  1.
     -623    1    1    2    0    0 -0.33027060158E-01 -0.12217632248E-01  0.59138528130E-03  0.17124000362E+03  0.17124000000E+03 0.  1.
       22    1    1    2    0    0  0.39141095335E-02  0.17497085837E-02  0.12453799914E+00  0.12461177699E+00  0.00000000000E+00 0.  1.
</event>
<event>
 5   1  0.2192208E+09  0.9118800E+02  0.7818608E-02  0.1180000E+00
       11   -1    0    0    0    0  0.00000000000E+00  0.00000000000E+00  0.10559998763E+01  0.10560000000E+01  0.51109989000E-03 0.  1.
     -623   -1    0    0    0    0  0.00000000000E+00  0.00000000000E+00  0.47855275298E-10  0.17124000000E+03  0.17124000000E+03 0. -1.
       11    1    1    2    0    0 -0.94145185741E-02 -0.60654755235E-01  0.98811265210E+00  0.99001742760E+00  0.51109989000E-03 0.  1.
     -623    1    1    2    0    0  0.10096842970E-01  0.64542498237E-01  0.20353155869E-02  0.17124001247E+03  0.17124000000E+03 0. -1.
       22    1    1    2    0    0 -0.68234333115E-03 -0.38878640416E-02  0.65853885218E-01  0.65972079531E-01  0.00000000000E+00 0. -1.
</event>
<event>
 5   1  0.2192208E+09  0.9118800E+02  0.7818608E-02  0.1180000E+00
       11   -1    0    0    0    0  0.00000000000E+00  0.00000000000E+00  0.10559998763E+01  0.10560000000E+01  0.51109989000E-03 0.  1.
     -623   -1    0    0    0    0  0.00000000000E+00  0.00000000000E+00  0.47855275298E-10  0.17124000000E+03  0.17124000000E+03 0.  1.
       11    1    1    2    0    0 -0.85114593983E-04  0.13129791831E-02  0.97092265006E+00  0.97092367609E+00  0.51109989000E-03 0.  1.
     -623    1    1    2    0    0 -0.67181126925E-05 -0.74975492578E-04  0.99599642738E-05  0.17124000000E+03  0.17124000000E+03 0.  1.
       22    1    1    2    0    0  0.91832706880E-04 -0.12380036883E-02  0.85067298514E-01  0.85076356074E-01  0.00000000000E+00 0. -1.
</event>
<event>
 5   1  0.2192208E+09  0.9118800E+02  0.7818608E-02  0.1180000E+00
       11   -1    0    0    0    0  0.00000000000E+00  0.00000000000E+00  0.10559998763E+01  0.10560000000E+01  0.51109989000E-03 0. -1.
     -623   -1    0    0    0    0  0.00000000000E+00  0.00000000000E+00  0.47855275298E-10  0.17124000000E+03  0.17124000000E+03 0.  1.
       11    1    1    2    0    0 -0.50356197724E-03  0.11355613420E-01  0.93724621904E+00  0.93731528306E+00  0.51109989000E-03 0. -1.
     -623    1    1    2    0    0  0.68389003975E-03 -0.13167670474E-01  0.83418996343E-04  0.17124000051E+03  0.17124000000E+03 0.  1.
       22    1    1    2    0    0 -0.18032827007E-03  0.18120610509E-02  0.11867055880E+00  0.11868452978E+00  0.00000000000E+00 0. -1.
</event>
<event>
 5   1  0.2192208E+09  0.9118800E+02  0.7818608E-02  0.1180000E+00
       11   -1    0    0    0    0  0.00000000000E+00  0.00000000000E+00  0.10559998763E+01  0.10560000000E+01  0.51109989000E-03 0.  1.
     -623   -1    0    0    0    0  0.00000000000E+00  0.00000000000E+00  0.47855275298E-10  0.17124000000E+03  0.17124000000E+03 0. -1.
       11    1    1    2    0    0 -0.18960994841E-03 -0.22061817137E-02  0.94426256831E+00  0.94426530293E+00  0.51109989000E-03 0.  1.
     -623    1    1    2    0    0 -0.11306528826E-04  0.58090994688E-04  0.23442012397E-04  0.17124000000E+03  0.17124000000E+03 0. -1.
       22    1    1    2    0    0  0.20091647748E-03  0.21480907178E-02  0.11171388839E+00  0.11173471941E+00  0.00000000000E+00 0. -1.
</event>
<event>
 5   1  0.2192208E+09  0.9118800E+02  0.7818608E-02  0.1180000E+00
       11   -1    0    0    0    0  0.00000000000E+00  0.00000000000E+00  0.10559998763E+01  0.10560000000E+01  0.51109989000E-03 0.  1.
     -623   -1    0    0    0    0  0.00000000000E+00  0.00000000000E+00  0.47855275298E-10  0.17124000000E+03  0.17124000000E+03 0. -1.
       11    1    1    2    0    0 -0.68723674832E-03  0.27347456426E-02  0.89187244793E+00  0.89187705191E+00  0.51109989000E-03 0.  1.
     -623    1    1    2    0    0 -0.33292802648E-04  0.31975364137E-04  0.29384025687E-04  0.17124000000E+03  0.17124000000E+03 0. -1.
       22    1    1    2    0    0  0.72052955107E-03 -0.27667210069E-02  0.16409804770E+00  0.16412295137E+00  0.00000000000E+00 0.  1.
</event>
<event>
 5   1  0.2192208E+09  0.9118800E+02  0.7818608E-02  0.1180000E+00
       11   -1    0    0    0    0  0.00000000000E+00  0.00000000000E+00  0.10559998763E+01  0.10560000000E+01  0.51109989000E-03 0.  1.
     -623   -1    0    0    0    0  0.00000000000E+00  0.00000000000E+00  0.47855275298E-10  0.17124000000E+03  0.17124000000E+03 0.  1.
       11    1    1    2    0    0  0.18386604228E-02  0.10498167254E-02  0.95966269603E+00  0.95966516774E+00  0.51109989000E-03 0.  1.
     -623    1    1    2    0    0 -0.51707028557E-04 -0.17302273143E-05  0.24625499394E-04  0.17124000000E+03  0.17124000000E+03 0.  1.
       22    1    1    2    0    0 -0.17869533938E-02 -0.10480864980E-02  0.96312564488E-01  0.96334841911E-01  0.00000000000E+00 0.  1.
</event>
<event>
 5   1  0.2192208E+09  0.9118800E+02  0.7818608E-02  0.1180000E+00
       11   -1    0    0    0    0  0.00000000000E+00  0.00000000000E+00  0.10559998763E+01  0.10560000000E+01  0.51109989000E-03 0. -1.
     -623   -1    0    0    0    0  0.00000000000E+00  0.00000000000E+00  0.47855275298E-10  0.17124000000E+03  0.17124000000E+03 0.  1.
       11    1    1    2    0    0  0.67370969116E-03 -0.48045512091E-02  0.79724258550E+00  0.79725751107E+00  0.51109989000E-03 0. -1.
     -623    1    1    2    0    0  0.62025010200E-03 -0.11863786576E-02  0.87409959551E-04  0.17124000001E+03  0.17124000000E+03 0.  1.
       22    1    1    2    0    0 -0.12939597942E-02  0.59909298687E-02  0.25866988260E+00  0.25874248537E+00  0.00000000000E+00 0.  1.
</event>
<event>
 5   1  0.2192208E+09  0.9118800E+02  0.7818608E-02  0.1180000E+00
       11   -1    0    0    0    0  0.00000000000E+00  0.00000000000E+00  0.10559998763E+01  0.10560000000E+01  0.51109989000E-03 0. -1.
     -623   -1    0    0    0    0  0.00000000000E+00  0.00000000000E+00  0.47855275298E-10  0.17124000000E+03  0.17124000000E+03 0. -1.
       11    1    1    2    0    0  0.52074853907E-02 -0.11175522968E-01  0.97914953301E+00  0.97922728691E+00  0.51109989000E-03 0. -1.
     -623    1    1    2    0    0 -0.59284131384E-02  0.12999547312E-01  0.10328380646E-03  0.17124000060E+03  0.17124000000E+03 0. -1.
       22    1    1    2    0    0  0.72092806707E-03 -0.18240250437E-02  0.76747116429E-01  0.76772173896E-01  0.00000000000E+00 0.  1.
</event>
<event>
 5   1  0.2192208E+09  0.9118800E+02  0.7818608E-02  0.1180000E+00
       11   -1    0    0    0    0  0.00000000000E+00  0.00000000000E+00  0.10559998763E+01  0.10560000000E+01  0.51109989000E-03 0.  1.
     -623   -1    0    0    0    0  0.00000000000E+00  0.00000000000E+00  0.47855275298E-10  0.17124000000E+03  0.17124000000E+03 0. -1.
       11    1    1    2    0    0 -0.66682263767E-03  0.11174850762E-02  0.98492923580E+00  0.98493022808E+00  0.51109989000E-03 0.  1.
     -623    1    1    2    0    0  0.14574315175E-04 -0.19434721554E-04  0.12345210487E-04  0.17124000000E+03  0.17124000000E+03 0. -1.
       22    1    1    2    0    0  0.65224832241E-03 -0.10980503545E-02  0.71058301727E-01  0.71069778294E-01  0.00000000000E+00 0. -1.
</event>
<event>
 5   1  0.2192208E+09  0.9118800E+02  0.7818608E-02  0.1180000E+00
       11   -1    0    0    0    0  0.00000000000E+00  0.00000000000E+00  0.10559998763E+01  0.10560000000E+01  0.51109989000E-03 0. -1.
     -623   -1    0    0    0    0  0.00000000000E+00  0.00000000000E+00  0.47855275298E-10  0.17124000000E+03  0.17124000000E+03 0. -1.
       11    1    1    2    0    0 -0.32152288617E-02  0.37857196135E-02  0.78494390494E+00  0.78495978527E+00  0.51109989000E-03 0. -1.
     -623    1    1    2    0    0  0.49058023871E-04 -0.31662850226E-04  0.60251145774E-04  0.17124000000E+03  0.17124000000E+03 0. -1.
       22    1    1    2    0    0  0.31661708377E-02 -0.37540567632E-02  0.27099572244E+00  0.27104021687E+00  0.00000000000E+00 0. -1.
</event>
<event>
 5   1  0.2192208E+09  0.9118800E+02  0.7818608E-02  0.1180000E+00
       11   -1    0    0    0    0  0.00000000000E+00  0.00000000000E+00  0.10559998763E+01  0.10560000000E+01  0.51109989000E-03 0. -1.
     -623   -1    0    0    0    0  0.00000000000E+00  0.00000000000E+00  0.47855275298E-10  0.17124000000E+03  0.17124000000E+03 0.  1.
       11    1    1    2    0    0 -0.46325520004E-02 -0.35147449458E-01  0.95969135257E+00  0.96034606115E+00  0.51109989000E-03 0. -1.
     -623    1    1    2    0    0  0.47260293937E-02  0.37545561565E-01  0.68888052294E-03  0.17124000418E+03  0.17124000000E+03 0.  1.
       22    1    1    2    0    0 -0.93477443539E-04 -0.23981125056E-02  0.95619654474E-01  0.95649767399E-01  0.00000000000E+00 0. -1.
</event>
<event>
 5   1  0.2192208E+09  0.9118800E+02  0.7818608E-02  0.1180000E+00
       11   -1    0    0    0    0  0.00000000000E+00  0.00000000000E+00  0.10559998763E+01  0.10560000000E+01  0.51109989000E-03 0. -1.
     -623   -1    0    0    0    0  0.00000000000E+00  0.00000000000E+00  0.47855275298E-10  0.17124000000E+03  0.17124000000E+03 0.  1.
       11    1    1    2    0    0 -0.45864922757E-02  0.99404491374E-02  0.34707631556E+00  0.34724930308E+00  0.51109989000E-03 0. -1.
     -623    1    1    2    0    0  0.81508503865E-03 -0.10785895289E-02  0.23830871764E-03  0.17124000001E+03  0.17124000000E+03 0.  1.
       22    1    1    2    0    0  0.37714072366E-02 -0.88618596079E-02  0.70868525270E+00  0.70875069204E+00  0.00000000000E+00 0. -1.
</event>
<event>
 5   1  0.2192208E+09  0.9118800E+02  0.7818608E-02  0.1180000E+00
       11   -1    0    0    0    0  0.00000000000E+00  0.00000000000E+00  0.10559998763E+01  0.10560000000E+01  0.51109989000E-03 0.  1.
     -623   -1    0    0    0    0  0.00000000000E+00  0.00000000000E+00  0.47855275298E-10  0.17124000000E+03  0.17124000000E+03 0.  1.
       11    1    1    2    0    0 -0.35348217629E-03  0.44060662992E-03  0.99846106457E+00  0.99846135517E+00  0.51109989000E-03 0.  1.
     -623    1    1    2    0    0 -0.19332607171E-03  0.31600222663E-03  0.77406572159E-05  0.17124000000E+03  0.17124000000E+03 0.  1.
       22    1    1    2    0    0  0.54680824324E-03 -0.75660884877E-03  0.57531045133E-01  0.57538618425E-01  0.00000000000E+00 0. -1.
</event>
<event>
 5   1  0.2192208E+09  0.9118800E+02  0.7818608E-02  0.1180000E+00
       11   -1    0    0    0    0  0.00000000000E+00  0.00000000000E+00  0.10559998763E+01  0.10560000000E+01  0.51109989000E-03 0. -1.
     -623   -1    0    0    0    0  0.00000000000E+00  0.00000000000E+00  0.47855275298E-10  0.17124000000E+03  0.17124000000E+03 0.  1.
       11    1    1    2    0    0 -0.77827538720E-02 -0.31216247478E-01  0.79067637471E+00  0.79133078805E+00  0.51109989000E-03 0. -1.
     -623    1    1    2    0    0  0.20271638926E-01  0.38243413889E-01  0.10479994120E-02  0.17124000547E+03  0.17124000000E+03 0.  1.
       22    1    1    2    0    0 -0.12488885077E-01 -0.70271664548E-02  0.26427550346E+00  0.26466373958E+00  0.00000000000E+00 0. -1.
</event>
<event>
 5   1  0.2192208E+09  0.9118800E+02  0.7818608E-02  0.1180000E+00
       11   -1    0    0    0    0  0.00000000000E+00  0.00000000000E+00  0.10559998763E+01  0.10560000000E+01  0.51109989000E-03 0.  1.
     -623   -1    0    0    0    0  0.00000000000E+00  0.00000000000E+00  0.47855275298E-10  0.17124000000E+03  0.17124000000E+03 0. -1.
       11    1    1    2    0    0 -0.33548018892E-02 -0.20228656313E-01  0.92534213112E+00  0.92556943234E+00  0.51109989000E-03 0.  1.
     -623    1    1    2    0    0  0.48734275293E-02  0.23786424408E-01  0.28627621150E-03  0.17124000172E+03  0.17124000000E+03 0. -1.
       22    1    1    2    0    0 -0.15186256481E-02 -0.35577681335E-02  0.13037147075E+00  0.13042884775E+00  0.00000000000E+00 0.  1.
</event>
<event>
 5   1  0.2192208E+09  0.9118800E+02  0.7818608E-02  0.1180000E+00
       11   -1    0    0    0    0  0.00000000000E+00  0.00000000000E+00  0.10559998763E+01  0.10560000000E+01  0.51109989000E-03 0. -1.
     -623   -1    0    0    0    0  0.00000000000E+00  0.00000000000E+00  0.47855275298E-10  0.17124000000E+03  0.17124000000E+03 0.  1.
       11    1    1    2    0    0 -0.11271376703E-01 -0.19825839359E-01  0.99108872555E+00  0.99135121474E+00  0.51109989000E-03 0. -1.
     -623    1    1    2    0    0  0.11868318143E-01  0.20802805114E-01  0.27417958617E-03  0.17124000168E+03  0.17124000000E+03 0.  1.
       22    1    1    2    0    0 -0.59693675113E-03 -0.97695753672E-03  0.64636554199E-01  0.64646693019E-01  0.00000000000E+00 0. -1.
</event>
<event>
 5   1  0.2192208E+09  0.9118800E+02  0.7818608E-02  0.1180000E+00
       11   -1    0    0    0    0  0.00000000000E+00  0.00000000000E+00  0.10559998763E+01  0.10560000000E+01  0.51109989000E-03 0.  1.
     -623   -1    0    0    0    0  0.00000000000E+00  0.00000000000E+00  0.47855275298E-10  0.17124000000E+03  0.17124000000E+03 0. -1.
       11    1    1    2    0    0 -0.13676753666E-01  0.17932330595E-01  0.86871011299E+00  0.86900295955E+00  0.51109989000E-03 0.  1.
     -623    1    1    2    0    0  0.18975870517E-01 -0.23340714693E-01  0.44872524029E-03  0.17124000264E+03  0.17124000000E+03 0. -1.
       22    1    1    2    0    0 -0.52991171894E-02  0.54083845139E-02  0.18684105695E+00  0.18699441657E+00  0.00000000000E+00 0. -1.
</event>
<event>
 5   1  0.2192208E+09  0.9118800E+02  0.7818608E-02  0.1180000E+00
       11   -1    0    0    0    0  0.00000000000E+00  0.00000000000E+00  0.10559998763E+01  0.10560000000E+01  0.51109989000E-03 0. -1.
     -623   -1    0    0    0    0  0.00000000000E+00  0.00000000000E+00  0.47855275298E-10  0.17124000000E+03  0.17124000000E+03 0.  1.
       11    1    1    2    0    0  0.61244661499E-02  0.12930663975E-01  0.99523468135E+00  0.99533765293E+00  0.51109989000E-03 0. -1.
     -623    1    1    2    0    0 -0.61045086770E-02 -0.11559656482E-01  0.11884517061E-03  0.17124000050E+03  0.17124000000E+03 0.  1.
       22    1    1    2    0    0 -0.19957437717E-04 -0.13710074268E-02  0.60646355943E-01  0.60661854149E-01  0.00000000000E+00 0. -1.
</event>
<event>
 5   1  0.2192208E+09  0.9118800E+02  0.7818608E-02  0.1180000E+00
       11   -1    0    0    0    0  0.00000000000E+00  0.00000000000E+00  0.10559998763E+01  0.10560000000E+01  0.51109989000E-03 0. -1.
     -623   -1    0    0    0    0  0.00000000000E+00  0.00000000000E+00  0.47855275298E-10  0.17124000000E+03  0.17124000000E+03 0. -1.
       11    1    1    2    0    0  0.52183057162E-03 -0.12916735484E-02  0.93654739567E+00  0.93654857124E+00  0.51109989000E-03 0. -1.
     -623    1    1    2    0    0 -0.47709529526E-03 -0.12717836913E-03  0.94879238153E-05  0.17124000000E+03  0.17124000000E+03 0. -1.
       22    1    1    2    0    0 -0.44735265960E-04  0.14188519203E-02  0.11944301577E+00  0.11945145105E+00  0.00000000000E+00 0.  1.
</event>
<event>
 5   1  0.2192208E+09  0.9118800E+02  0.7818608E-02  0.1180000E+00
       11   -1    0    0    0    0  0.00000000000E+00  0.00000000000E+00  0.10559998763E+01  0.10560000000E+01  0.51109989000E-03 0. -1.
     -623   -1    0    0    0    0  0.00000000000E+00  0.00000000000E+00  0.47855275298E-10  0.17124000000E+03  0.17124000000E+03 0.  1.
       11    1    1    2    0    0 -0.16397977136E-01 -0.17413440567E-01  0.99194797533E+00  0.99223644791E+00  0.51109989000E-03 0. -1.
     -623    1    1    2    0    0  0.17153469977E-01  0.18261158057E-01  0.30029388253E-03  0.17124000183E+03  0.17124000000E+03 0.  1.
       22    1    1    2    0    0 -0.75549291754E-03 -0.84771757065E-03  0.63751611830E-01  0.63761723672E-01  0.00000000000E+00 0.  1.
</event>
<event>
 5   1  0.2192208E+09  0.9118800E+02  0.7818608E-02  0.1180000E+00
       11   -1    0    0    0    0  0.00000000000E+00  0.00000000000E+00  0.10559998763E+01  0.10560000000E+01  0.51109989000E-03 0.  1.
     -623   -1    0    0    0    0  0.00000000000E+00  0.00000000000E+00  0.47855275298E-10  0.17124000000E+03  0.17124000000E+03 0. -1.
       11    1    1    2    0    0  0.10825763168E-02  0.44890679231E-02  0.74552190880E+00  0.74553638504E+00  0.51109989000E-03 0.  1.
     -623    1    1    2    0    0 -0.78114828953E-04  0.18370095863E-03  0.51144588697E-04  0.17124000000E+03  0.17124000000E+03 0. -1.
       22    1    1    2    0    0 -0.10044614878E-02 -0.46727688819E-02  0.31042682358E+00  0.31046361543E+00  0.00000000000E+00 0.  1.
</event>
<event>
 5   1  0.2192208E+09  0.9118800E+02  0.7818608E-02  0.1180000E+00
       11   -1    0    0    0    0  0.00000000000E+00  0.00000000000E+00  0.10559998763E+01  0.10560000000E+01  0.51109989000E-03 0. -1.
     -623   -1    0    0    0    0  0.00000000000E+00  0.00000000000E+00  0.47855275298E-10  0.17124000000E+03  0.17124000000E+03 0.  1.
       11    1    1    2    0    0  0.18746590615E-01  0.22294844966E-01  0.81852918256E+00  0.81904748257E+00  0.51109989000E-03 0. -1.
     -623    1    1    2    0    0 -0.23128663571E-01 -0.29117001950E-01  0.66098710176E-03  0.17124000404E+03  0.17124000000E+03 0.  1.
       22    1    1    2    0    0  0.43820715347E-02  0.68221551955E-02  0.23680964186E+00  0.23694841386E+00  0.00000000000E+00 0. -1.
</event>
<event>
 5   1  0.2192208E+09  0.9118800E+02  0.7818608E-02  0.1180000E+00
       11   -1    0    0    0    0  0.00000000000E+00  0.00000000000E+00  0.10559998763E+01  0.10560000000E+01  0.51109989000E-03 0.  1.
     -623   -1    0    0    0    0  0.00000000000E+00  0.00000000000E+00  0.47855275298E-10  0.17124000000E+03  0.17124000000E+03 0. -1.
       11    1    1    2    0    0  0.44028092855E-02  0.69867502825E-02  0.94185318849E+00  0.94188953137E+00  0.51109989000E-03 0.  1.
     -623    1    1    2    0    0 -0.49055311272E-02 -0.85722693088E-02  0.48627210877E-04  0.17124000028E+03  0.17124000000E+03 0. -1.
       22    1    1    2    0    0  0.50272254533E-03  0.15855202558E-02  0.11409821211E+00  0.11411033525E+00  0.00000000000E+00 0.  1.
</event>
<event>
 5   1  0.2192208E+09  0.9118800E+02  0.7818608E-02  0.1180000E+00
       11   -1    0    0    0    0  0.00000000000E+00  0.00000000000E+00  0.10559998763E+01  0.10560000000E+01  0.51109989000E-03 0. -1.
     -623   -1    0    0    0    0  0.00000000000E+00  0.00000000000E+00  0.47855275298E-10  0.17124000000E+03  0.17124000000E+03 0. -1.
       11    1    1    2    0    0 -0.78294100583E-03  0.26020402874E-02  0.92083065366E+00  0.92083480470E+00  0.51109989000E-03 0. -1.
     -623    1    1    2    0    0 -0.12495018354E-03 -0.42112473718E-02  0.16708134530E-04  0.17124000005E+03  0.17124000000E+03 0. -1.
       22    1    1    2    0    0  0.90789118613E-03  0.16092069751E-02  0.13515248716E+00  0.13516511606E+00  0.00000000000E+00 0. -1.
</event>
<event>
 5   1  0.2192208E+09  0.9118800E+02  0.7818608E-02  0.1180000E+00
       11   -1    0    0    0    0  0.00000000000E+00  0.00000000000E+00  0.10559998763E+01  0.10560000000E+01  0.51109989000E-03 0.  1.
     -623   -1    0    0    0    0  0.00000000000E+00  0.00000000000E+00  0.47855275298E-10  0.17124000000E+03  0.17124000000E+03 0.  1.
       11    1    1    2    0    0  0.29253982882E-03  0.14946507172E-02  0.90771917121E+00  0.90772059278E+00  0.51109989000E-03 0.  1.
     -623    1    1    2    0    0 -0.27605085792E-04  0.71137636335E-05  0.91397212765E-05  0.17124000000E+03  0.17124000000E+03 0.  1.
       22    1    1    2    0    0 -0.26493474407E-03 -0.15017644806E-02  0.14827152551E+00  0.14827936729E+00  0.00000000000E+00 0.  1.
</event>
<event>
 5   1  0.2192208E+09  0.9118800E+02  0.7818608E-02  0.1180000E+00
       11   -1    0    0    0    0  0.00000000000E+00  0.00000000000E+00  0.10559998763E+01  0.10560000000E+01  0.51109989000E-03 0. -1.
     -623   -1    0    0    0    0  0.00000000000E+00  0.00000000000E+00  0.47855275298E-10  0.17124000000E+03  0.17124000000E+03 0. -1.
       11    1    1    2    0    0  0.17431685686E-03 -0.42947491274E-02  0.85279951634E+00  0.85281050155E+00  0.51109989000E-03 0. -1.
     -623    1    1    2    0    0  0.11416619429E-02 -0.15958204434E-02  0.10053951378E-03  0.17124000001E+03  0.17124000000E+03 0. -1.
       22    1    1    2    0    0 -0.13159787991E-02  0.58905695699E-02  0.20309981990E+00  0.20318948657E+00  0.00000000000E+00 0. -1.
</event>
<event>
 5   1  0.2192208E+09  0.9118800E+02  0.7818608E-02  0.1180000E+00
       11   -1    0    0    0    0  0.00000000000E+00  0.00000000000E+00  0.10559998763E+01  0.10560000000E+01  0.51109989000E-03 0. -1.
     -623   -1    0    0    0    0  0.00000000000E+00  0.00000000000E+00  0.47855275298E-10  0.17124000000E+03  0.17124000000E+03 0. -1.
       11    1    1    2    0    0 -0.83199774742E-03 -0.15054122236E-02  0.97649017663E+00  0.97649182524E+00  0.51109989000E-03 0. -1.
     -623    1    1    2    0    0  0.35524143477E-04 -0.69477602161E-05  0.19900071884E-04  0.17124000000E+03  0.17124000000E+03 0. -1.
       22    1    1    2    0    0  0.79647360349E-03  0.15123599839E-02  0.79489813016E-01  0.79508188108E-01  0.00000000000E+00 0. -1.
</event>
<event>
 5   1  0.2192208E+09  0.9118800E+02  0.7818608E-02  0.1180000E+00
       11   -1    0    0    0    0  0.00000000000E+00  0.00000000000E+00  0.10559998763E+01  0.10560000000E+01  0.51109989000E-03 0.  1.
     -623   -1    0    0    0    0  0.00000000000E+00  0.00000000000E+00  0.47855275298E-10  0.17124000000E+03  0.17124000000E+03 0.  1.
       11    1    1    2    0    0 -0.11208897880E-01 -0.16639793965E-01  0.54460420431E+00  0.54497387342E+00  0.51109989000E-03 0.  1.
     -623    1    1    2    0    0  0.85378202737E-03  0.25233079876E-01  0.54860503436E-03  0.17124000186E+03  0.17124000000E+03 0.  1.
       22    1    1    2    0    0  0.10355115853E-01 -0.85932858976E-02  0.51084706646E+00  0.51102426391E+00  0.00000000000E+00 0.  1.
</event>
<event>
 5   1  0.2192208E+09  0.9118800E+02  0.7818608E-02  0.1180000E+00
       11   -1    0    0    0    0  0.00000000000E+00  0.00000000000E+00  0.10559998763E+01  0.10560000000E+01  0.51109989000E-03 0.  1.
     -623   -1    0    0    0    0  0.00000000000E+00  0.00000000000E+00  0.47855275298E-10  0.17124000000E+03  0.17124000000E+03 0.  1.
       11    1    1    2    0    0 -0.10041490806E-01  0.17785105202E-01  0.89846290237E+00  0.89869515947E+00  0.51109989000E-03 0.  1.
     -623    1    1    2    0    0  0.11580158630E-01 -0.21488514333E-01  0.28500206176E-03  0.17124000174E+03  0.17124000000E+03 0.  1.
       22    1    1    2    0    0 -0.15386665916E-02  0.37034068443E-02  0.15725185960E+00  0.15730298810E+00  0.00000000000E+00 0.  1.
</event>
<event>
 5   1  0.2192208E+09  0.9118800E+02  0.7818608E-02  0.1180000E+00
       11   -1    0    0    0    0  0.00000000000E+00  0.00000000000E+00  0.10559998763E+01  0.10560000000E+01  0.51109989000E-03 0.  1.
     -623   -1    0    0    0    0  0.00000000000E+00  0.00000000000E+00  0.47855275298E-10  0.17124000000E+03  0.17124000000E+03 0.  1.
       11    1    1    2    0    0  0.20983721062E-01 -0.25760214726E-01  0.99803560399E+00  0.99858862064E+00  0.51109989000E-03 0.  1.
     -623    1    1    2    0    0 -0.22562060431E-01  0.26907109847E-01  0.58965730793E-03  0.17124000360E+03  0.17124000000E+03 0.  1.
       22    1    1    2    0    0  0.15783392063E-02 -0.11468949276E-02  0.57374607468E-01  0.57407770422E-01  0.00000000000E+00 0.  1.
</event>
<event>
 5   1  0.2192208E+09  0.9118800E+02  0.7818608E-02  0.1180000E+00
       11   -1    0    0    0    0  0.00000000000E+00  0.00000000000E+00  0.10559998763E+01  0.10560000000E+01  0.51109989000E-03 0. -1.
     -623   -1    0    0    0    0  0.00000000000E+00  0.00000000000E+00  0.47855275298E-10  0.17124000000E+03  0.17124000000E+03 0. -1.
       11    1    1    2    0    0 -0.12600220575E-02 -0.13576026411E-02  0.97609234423E+00  0.97609423543E+00  0.51109989000E-03 0. -1.
     -623    1    1    2    0    0  0.39883051028E-03  0.14226776184E-04  0.17702815638E-04  0.17124000000E+03  0.17124000000E+03 0. -1.
       22    1    1    2    0    0  0.86119154758E-03  0.13433758649E-02  0.79889828454E-01  0.79905763246E-01  0.00000000000E+00 0. -1.
</event>
<event>
 5   1  0.2192208E+09  0.9118800E+02  0.7818608E-02  0.1180000E+00
       11   -1    0    0    0    0  0.00000000000E+00  0.00000000000E+00  0.10559998763E+01  0.10560000000E+01  0.51109989000E-03 0. -1.
     -623   -1    0    0    0    0  0.00000000000E+00  0.00000000000E+00  0.47855275298E-10  0.17124000000E+03  0.17124000000E+03 0.  1.
       11    1    1    2    0    0  0.23556302611E-02 -0.26407754000E-02  0.97676380680E+00  0.97677035079E+00  0.51109989000E-03 0. -1.
     -623    1    1    2    0    0 -0.41968665424E-02  0.35658879922E-02  0.33308902970E-04  0.17124000009E+03  0.17124000000E+03 0.  1.
       22    1    1    2    0    0  0.18412363029E-02 -0.92511261052E-03  0.79202766103E-01  0.79229566090E-01  0.00000000000E+00 0.  1.
</event>
<event>
 5   1  0.2192208E+09  0.9118800E+02  0.7818608E-02  0.1180000E+00
       11   -1    0    0    0    0  0.00000000000E+00  0.00000000000E+00  0.10559998763E+01  0.10560000000E+01  0.51109989000E-03 0. -1.
     -623   -1    0    0    0    0  0.00000000000E+00  0.00000000000E+00  0.47855275298E-10  0.17124000000E+03  0.17124000000E+03 0.  1.
       11    1    1    2    0    0  0.23003913174E-02 -0.58748562053E-03  0.79206785803E+00  0.79207158129E+00  0.51109989000E-03 0. -1.
     -623    1    1    2    0    0 -0.17712175546E-02 -0.23188742322E-02  0.20157806562E-04  0.17124000002E+03  0.17124000000E+03 0.  1.
       22    1    1    2    0    0 -0.52917377074E-03  0.29063598423E-02  0.26391185578E+00  0.26392838910E+00  0.00000000000E+00 0. -1.
</event>
<event>
 5   1  0.2192208E+09  0.9118800E+02  0.7818608E-02  0.1180000E+00
       11   -1    0    0    0    0  0.00000000000E+00  0.00000000000E+00  0.10559998763E+01  0.10560000000E+01  0.51109989000E-03 0. -1.
     -623   -1    0    0    0    0  0.00000000000E+00  0.00000000000E+00  0.47855275298E-10  0.17124000000E+03  0.17124000000E+03 0.  1.
       11    1    1    2    0    0 -0.23141380937E-02 -0.30358815618E-02  0.80607163805E+00  0.80608083882E+00  0.51109989000E-03 0. -1.
     -623    1    1    2    0    0  0.54008552730E-04  0.29081666026E-04  0.37385962073E-04  0.17124000000E+03  0.17124000000E+03 0.  1.
       22    1    1    2    0    0  0.22601295412E-02  0.30067998959E-02  0.24989084830E+00  0.24991915712E+00  0.00000000000E+00 0.  1.
</event>
<event>
 5   1  0.2192208E+09  0.9118800E+02  0.7818608E-02  0.1180000E+00
       11   -1    0    0    0    0  0.00000000000E+00  0.00000000000E+00  0.10559998763E+01  0.10560000000E+01  0.51109989000E-03 0. -1.
     -623   -1    0    0    0    0  0.00000000000E+00  0.00000000000E+00  0.47855275298E-10  0.17124000000E+03  0.17124000000E+03 0. -1.
       11    1    1    2    0    0  0.13149225234E-02 -0.31484575034E-02  0.84661245903E+00  0.84661948880E+00  0.51109989000E-03 0. -1.
     -623    1    1    2    0    0 -0.11799309747E-03  0.24106344618E-03  0.30514407949E-04  0.17124000000E+03  0.17124000000E+03 0. -1.
       22    1    1    2    0    0 -0.11969294241E-02  0.29073940535E-02  0.20935691913E+00  0.20938052720E+00  0.00000000000E+00 0. -1.
</event>
<event>
 5   1  0.2192208E+09  0.9118800E+02  0.7818608E-02  0.1180000E+00
       11   -1    0    0    0    0  0.00000000000E+00  0.00000000000E+00  0.10559998763E+01  0.10560000000E+01  0.51109989000E-03 0. -1.
     -623   -1    0    0    0    0  0.00000000000E+00  0.00000000000E+00  0.47855275298E-10  0.17124000000E+03  0.17124000000E+03 0.  1.
       11    1    1    2    0    0 -0.14947905537E-01  0.63210908921E-02  0.80910115402E+00  0.80926406984E+00  0.51109989000E-03 0. -1.
     -623    1    1    2    0    0  0.18925567506E-01 -0.94979818582E-02  0.21662193368E-03  0.17124000131E+03  0.17124000000E+03 0.  1.
       22    1    1    2    0    0 -0.39776603616E-02  0.31768901594E-02  0.24668201074E+00  0.24673453110E+00  0.00000000000E+00 0. -1.
</event>
<event>
 5   1  0.2192208E+09  0.9118800E+02  0.7818608E-02  0.1180000E+00
       11   -1    0    0    0    0  0.00000000000E+00  0.00000000000E+00  0.10559998763E+01  0.10560000000E+01  0.51109989000E-03 0. -1.
     -623   -1    0    0    0    0  0.00000000000E+00  0.00000000000E+00  0.47855275298E-10  0.17124000000E+03  0.17124000000E+03 0.  1.
       11    1    1    2    0    0  0.16180065535E-02 -0.17458372467E-02  0.99524992918E+00  0.99525290687E+00  0.51109989000E-03 0. -1.
     -623    1    1    2    0    0 -0.17139620266E-02  0.24049366208E-02  0.65310061876E-05  0.17124000003E+03  0.17124000000E+03 0.  1.
       22    1    1    2    0    0  0.95955268631E-04 -0.65909908714E-03  0.60743290190E-01  0.60746941669E-01  0.00000000000E+00 0. -1.
</event>
<event>
 5   1  0.2192208E+09  0.9118800E+02  0.7818608E-02  0.1180000E+00
       11   -1    0    0    0    0  0.00000000000E+00  0.00000000000E+00  0.10559998763E+01  0.10560000000E+01  0.51109989000E-03 0.  1.
     -623   -1    0    0    0    0  0.00000000000E+00  0.00000000000E+00  0.47855275298E-10  0.17124000000E+03  0.17124000000E+03 0. -1.
       11    1    1    2    0    0  0.12109088601E-01 -0.13470136585E-01  0.96001234575E+00  0.96018333657E+00  0.51109989000E-03 0.  1.
     -623    1    1    2    0    0 -0.13396504182E-01  0.14745931973E-01  0.18917054772E-03  0.17124000116E+03  0.17124000000E+03 0. -1.
       22    1    1    2    0    0  0.12874233888E-02 -0.12758039829E-02  0.95798975440E-01  0.95816119887E-01  0.00000000000E+00 0.  1.
</event>
<event>
 5   1  0.2192208E+09  0.9118800E+02  0.7818608E-02  0.1180000E+00
       11   -1    0    0    0    0  0.00000000000E+00  0.00000000000E+00  0.10559998763E+01  0.10560000000E+01  0.51109989000E-03 0. -1.
     -623   -1    0    0    0    0  0.00000000000E+00  0.00000000000E+00  0.47855275298E-10  0.17124000000E+03  0.17124000000E+03 0.  1.
       11    1    1    2    0    0  0.19077672122E-01 -0.15584733401E-01  0.98958199973E+00  0.98988869925E+00  0.51109989000E-03 0. -1.
     -623    1    1    2    0    0 -0.20013023108E-01  0.16921138857E-01  0.32870948446E-03  0.17124000201E+03  0.17124000000E+03 0.  1.
       22    1    1    2    0    0  0.93534775047E-03 -0.13364027203E-02  0.66088996462E-01  0.66109124189E-01  0.00000000000E+00 0. -1.
</event>
<event>
 5   1  0.2192208E+09  0.9118800E+02  0.7818608E-02  0.1180000E+00
       11   -1    0    0    0    0  0.00000000000E+00  0.00000000000E+00  0.10559998763E+01  0.10560000000E+01  0.51109989000E-03 0. -1.
     -623   -1    0    0    0    0  0.00000000000E+00  0.00000000000E+00  0.47855275298E-10  0.17124000000E+03  0.17124000000E+03 0.  1.
       11    1    1    2    0    0  0.29106701179E-03  0.12430313219E-01  0.97603129921E+00  0.97611062676E+00  0.51109989000E-03 0. -1.
     -623    1    1    2    0    0 -0.74717818578E-03 -0.13393683922E-01  0.86840307249E-04  0.17124000053E+03  0.17124000000E+03 0.  1.
       22    1    1    2    0    0  0.45611133632E-03  0.96337361185E-03  0.79881966241E-01  0.79889077206E-01  0.00000000000E+00 0.  1.
</event>
<event>
 5   1  0.2192208E+09  0.9118800E+02  0.7818608E-02  0.1180000E+00
       11   -1    0    0    0    0  0.00000000000E+00  0.00000000000E+00  0.10559998763E+01  0.10560000000E+01  0.51109989000E-03 0.  1.
     -623   -1    0    0    0    0  0.00000000000E+00  0.00000000000E+00  0.47855275298E-10  0.17124000000E+03  0.17124000000E+03 0.  1.
       11    1    1    2    0    0 -0.10178558569E-01 -0.10238223266E-01  0.63686819831E+00  0.63703201451E+00  0.51109989000E-03 0.  1.
     -623    1    1    2    0    0  0.21953208369E-01  0.14694104865E-01  0.35492622921E-03  0.17124000204E+03  0.17124000000E+03 0.  1.
       22    1    1    2    0    0 -0.11774650008E-01 -0.44558817384E-02  0.41877676181E+00  0.41896595744E+00  0.00000000000E+00 0. -1.
</event>
<event>
 5   1  0.2192208E+09  0.9118800E+02  0.7818608E-02  0.1180000E+00
       11   -1    0    0    0    0  0.00000000000E+00  0.00000000000E+00  0.10559998763E+01  0.10560000000E+01  0.51109989000E-03 0. -1.
     -623   -1    0    0    0    0  0.00000000000E+00  0.00000000000E+00  0.47855275298E-10  0.17124000000E+03  0.17124000000E+03 0. -1.
       11    1    1    2    0    0  0.56773425944E-02 -0.85387692599E-03  0.80816025442E+00  0.80818080859E+00  0.51109989000E-03 0. -1.
     -623    1    1    2    0    0 -0.30112147033E-02  0.34490318476E-02  0.48423101819E-04  0.17124000006E+03  0.17124000000E+03 0. -1.
       22    1    1    2    0    0 -0.26661278829E-02 -0.25951549309E-02  0.24779120170E+00  0.24781913305E+00  0.00000000000E+00 0.  1.
</event>
<event>
 5   1  0.2192208E+09  0.9118800E+02  0.7818608E-02  0.1180000E+00
       11   -1    0    0    0    0  0.00000000000E+00  0.00000000000E+00  0.10559998763E+01  0.10560000000E+01  0.51109989000E-03 0. -1.
     -623   -1    0    0    0    0  0.00000000000E+00  0.00000000000E+00  0.47855275298E-10  0.17124000000E+03  0.17124000000E+03 0.  1.
       11    1    1    2    0    0 -0.52217130480E-02 -0.46217999341E-02  0.71430506537E+00  0.71433928560E+00  0.51109989000E-03 0. -1.
     -623    1    1    2    0    0 -0.56317123733E-03  0.52921467729E-03  0.10759166870E-03  0.17124000000E+03  0.17124000000E+03 0.  1.
       22    1    1    2    0    0  0.57848842844E-02  0.40925852578E-02  0.34158721752E+00  0.34166071081E+00  0.00000000000E+00 0. -1.
</event>
<event>
 5   1  0.2192208E+09  0.9118800E+02  0.7818608E-02  0.1180000E+00
       11   -1    0    0    0    0  0.00000000000E+00  0.00000000000E+00  0.10559998763E+01  0.10560000000E+01  0.51109989000E-03 0. -1.
     -623   -1    0    0    0    0  0.00000000000E+00  0.00000000000E+00  0.47855275298E-10  0.17124000000E+03  0.17124000000E+03 0.  1.
       11    1    1    2    0    0 -0.98445151495E-02 -0.10280936302E-01  0.99117268658E+00  0.99127502136E+00  0.51109989000E-03 0. -1.
     -623    1    1    2    0    0  0.10123829496E-01  0.11189549833E-01  0.10985674769E-03  0.17124000066E+03  0.17124000000E+03 0.  1.
       22    1    1    2    0    0 -0.27931252434E-03 -0.90861151769E-03  0.64717143024E-01  0.64724123722E-01  0.00000000000E+00 0. -1.
</event>
<event>
 5   1  0.2192208E+09  0.9118800E+02  0.7818608E-02  0.1180000E+00
       11   -1    0    0    0    0  0.00000000000E+00  0.00000000000E+00  0.10559998763E+01  0.10560000000E+01  0.51109989000E-03 0. -1.
     -623   -1    0    0    0    0  0.00000000000E+00  0.00000000000E+00  0.47855275298E-10  0.17124000000E+03  0.17124000000E+03 0.  1.
       11    1    1    2    0    0  0.11478198793E-01  0.26191923468E-01  0.58130591944E+00  0.58200910569E+00  0.51109989000E-03 0. -1.
     -623    1    1    2    0    0 -0.29419563114E-02 -0.74863720599E-04  0.15001600010E-02  0.17124000003E+03  0.17124000000E+03 0.  1.
       22    1    1    2    0    0 -0.85362424807E-02 -0.26117059748E-01  0.47319379718E+00  0.47399086271E+00  0.00000000000E+00 0. -1.
</event>
<event>
 5   1  0.2192208E+09  0.9118800E+02  0.7818608E-02  0.1180000E+00
       11   -1    0    0    0    0  0.00000000000E+00  0.00000000000E+00  0.10559998763E+01  0.10560000000E+01  0.51109989000E-03 0.  1.
     -623   -1    0    0    0    0  0.00000000000E+00  0.00000000000E+00  0.47855275298E-10  0.17124000000E+03  0.17124000000E+03 0.  1.
       11    1    1    2    0    0  0.67548658203E-03  0.94002442769E-03  0.98464338775E+00  0.98464420081E+00  0.51109989000E-03 0.  1.
     -623    1    1    2    0    0  0.10116152461E-04  0.24142268853E-04  0.10497765337E-04  0.17124000000E+03  0.17124000000E+03 0.  1.
       22    1    1    2    0    0 -0.68560273496E-03 -0.96416669766E-03  0.71346039797E-01  0.71355848136E-01  0.00000000000E+00 0.  1.
</event>
<event>
 5   1  0.2192208E+09  0.9118800E+02  0.7818608E-02  0.1180000E+00
       11   -1    0    0    0    0  0.00000000000E+00  0.00000000000E+00  0.10559998763E+01  0.10560000000E+01  0.51109989000E-03 0. -1.
     -623   -1    0    0    0    0  0.00000000000E+00  0.00000000000E+00  0.47855275298E-10  0.17124000000E+03  0.17124000000E+03 0.  1.
       11    1    1    2    0    0 -0.81741708550E-02  0.89954870126E-02  0.67774879956E+00  0.67785797360E+00  0.51109989000E-03 0. -1.
     -623    1    1    2    0    0  0.16190065301E-01 -0.42769634243E-02  0.22428705738E-03  0.17124000082E+03  0.17124000000E+03 0.  1.
       22    1    1    2    0    0 -0.80158944057E-02 -0.47185235989E-02  0.37802678713E+00  0.37814120486E+00  0.00000000000E+00 0. -1.
</event>
<event>
 5   1  0.2192208E+09  0.9118800E+02  0.7818608E-02  0.1180000E+00
       11   -1    0    0    0    0  0.00000000000E+00  0.00000000000E+00  0.10559998763E+01  0.10560000000E+01  0.51109989000E-03 0.  1.
     -623   -1    0    0    0    0  0.00000000000E+00  0.00000000000E+00  0.47855275298E-10  0.17124000000E+03  0.17124000000E+03 0. -1.
       11    1    1    2    0    0 -0.22041945025E-02 -0.45930338833E-02  0.82100956381E+00  0.82102552916E+00  0.51109989000E-03 0.  1.
     -623    1    1    2    0    0 -0.47509181200E-03  0.85024739392E-03  0.60932491491E-04  0.17124000000E+03  0.17124000000E+03 0. -1.
       22    1    1    2    0    0  0.26792863142E-02  0.37427864899E-02  0.23492937940E+00  0.23497446740E+00  0.00000000000E+00 0.  1.
</event>
<event>
 5   1  0.2192208E+09  0.9118800E+02  0.7818608E-02  0.1180000E+00
       11   -1    0    0    0    0  0.00000000000E+00  0.00000000000E+00  0.10559998763E+01  0.10560000000E+01  0.51109989000E-03 0. -1.
     -623   -1    0    0    0    0  0.00000000000E+00  0.00000000000E+00  0.47855275298E-10  0.17124000000E+03  0.17124000000E+03 0. -1.
       11    1    1    2    0    0 -0.83741406991E-02 -0.11558449742E-01  0.82914218855E+00  0.82926518922E+00  0.51109989000E-03 0. -1.
     -623    1    1    2    0    0  0.96850205206E-02  0.14832827518E-01  0.15122799324E-03  0.17124000092E+03  0.17124000000E+03 0. -1.
       22    1    1    2    0    0 -0.13108814365E-02 -0.32743802493E-02  0.22670663588E+00  0.22673407051E+00  0.00000000000E+00 0.  1.
</event>
<event>
 5   1  0.2192208E+09  0.9118800E+02  0.7818608E-02  0.1180000E+00
       11   -1    0    0    0    0  0.00000000000E+00  0.00000000000E+00  0.10559998763E+01  0.10560000000E+01  0.51109989000E-03 0.  1.
     -623   -1    0    0    0    0  0.00000000000E+00  0.00000000000E+00  0.47855275298E-10  0.17124000000E+03  0.17124000000E+03 0. -1.
       11    1    1    2    0    0  0.46227016362E-02  0.18703319242E-01  0.99362772890E+00  0.99381462476E+00  0.51109989000E-03 0.  1.
     -623    1    1    2    0    0 -0.49186362185E-02 -0.19836227653E-01  0.19901703721E-03  0.17124000122E+03  0.17124000000E+03 0. -1.
       22    1    1    2    0    0  0.29593973568E-03  0.11329291935E-02  0.62174236615E-01  0.62185261980E-01  0.00000000000E+00 0.  1.
</event>
<event>
 5   1  0.2192208E+09  0.9118800E+02  0.7818608E-02  0.1180000E+00
       11   -1    0    0    0    0  0.00000000000E+00  0.00000000000E+00  0.10559998763E+01  0.10560000000E+01  0.51109989000E-03 0. -1.
     -623   -1    0    0    0    0  0.00000000000E+00  0.00000000000E+00  0.47855275298E-10  0.17124000000E+03  0.17124000000E+03 0. -1.
       11    1    1    2    0    0 -0.92465283606E-03  0.74979063855E-03  0.97789064527E+00  0.97789150344E+00  0.51109989000E-03 0. -1.
     -623    1    1    2    0    0  0.23226266051E-04  0.46476608753E-04  0.99953562551E-05  0.17124000000E+03  0.17124000000E+03 0. -1.
       22    1    1    2    0    0  0.90142656962E-03 -0.79626724810E-03  0.78099253714E-01  0.78108514530E-01  0.00000000000E+00 0. -1.
</event>
<event>
 5   1  0.2192208E+09  0.9118800E+02  0.7818608E-02  0.1180000E+00
       11   -1    0    0    0    0  0.00000000000E+00  0.00000000000E+00  0.10559998763E+01  0.10560000000E+01  0.51109989000E-03 0. -1.
     -623   -1    0    0    0    0  0.00000000000E+00  0.00000000000E+00  0.47855275298E-10  0.17124000000E+03  0.17124000000E+03 0.  1.
       11    1    1    2    0    0  0.24515783665E-03 -0.25222719642E-03  0.34368109980E-01  0.34373709832E-01  0.51109989000E-03 0.  1.
     -623    1    1    2    0    0  0.26804665815E-02  0.16953043414E-01  0.14704180207E-03  0.17124000086E+03  0.17124000000E+03 0.  1.
       22    1    1    2    0    0 -0.29256245881E-02 -0.16700817292E-01  0.10214847915E+01  0.10216254969E+01  0.00000000000E+00 0. -1.
</event>
<event>
 5   1  0.2192208E+09  0.9118800E+02  0.7818608E-02  0.1180000E+00
       11   -1    0    0    0    0  0.00000000000E+00  0.00000000000E+00  0.10559998763E+01  0.10560000000E+01  0.51109989000E-03 0.  1.
     -623   -1    0    0    0    0  0.00000000000E+00  0.00000000000E+00  0.47855275298E-10  0.17124000000E+03  0.17124000000E+03 0.  1.
       11    1    1    2    0    0 -0.32615887941E-02  0.45552386886E-02  0.44394507680E+00  0.44398072098E+00  0.51109989000E-03 0.  1.
     -623    1    1    2    0    0  0.20140483026E-02  0.33406234537E-02  0.87772273858E-04  0.17124000004E+03  0.17124000000E+03 0.  1.
       22    1    1    2    0    0  0.12475404903E-02 -0.78958621443E-02  0.61196702792E+00  0.61201923520E+00  0.00000000000E+00 0.  1.
</event>
<event>
 5   1  0.2192208E+09  0.9118800E+02  0.7818608E-02  0.1180000E+00
       11   -1    0    0    0    0  0.00000000000E+00  0.00000000000E+00  0.10559998763E+01  0.10560000000E+01  0.51109989000E-03 0.  1.
     -623   -1    0    0    0    0  0.00000000000E+00  0.00000000000E+00  0.47855275298E-10  0.17124000000E+03  0.17124000000E+03 0.  1.
       11    1    1    2    0    0 -0.10855223364E-02 -0.16809525428E-02  0.99374804816E+00  0.99375019417E+00  0.51109989000E-03 0.  1.
     -623    1    1    2    0    0  0.17544229439E-03  0.11388492158E-03  0.28405251856E-04  0.17124000000E+03  0.17124000000E+03 0.  1.
       22    1    1    2    0    0  0.91008004138E-03  0.15670676208E-02  0.62223426845E-01  0.62249809597E-01  0.00000000000E+00 0. -1.
</event>
<event>
 5   1  0.2192208E+09  0.9118800E+02  0.7818608E-02  0.1180000E+00
       11   -1    0    0    0    0  0.00000000000E+00  0.00000000000E+00  0.10559998763E+01  0.10560000000E+01  0.51109989000E-03 0.  1.
     -623   -1    0    0    0    0  0.00000000000E+00  0.00000000000E+00  0.47855275298E-10  0.17124000000E+03  0.17124000000E+03 0. -1.
       11    1    1    2    0    0 -0.60494267400E-03  0.38763323449E-02  0.76394719496E+00  0.76395743979E+00  0.51109989000E-03 0.  1.
     -623    1    1    2    0    0  0.15721322742E-03 -0.29519108839E-04  0.35800911138E-04  0.17124000000E+03  0.17124000000E+03 0. -1.
       22    1    1    2    0    0  0.44772944480E-03 -0.38468132357E-02  0.29201689249E+00  0.29204257212E+00  0.00000000000E+00 0.  1.
</event>
<event>
 5   1  0.2192208E+09  0.9118800E+02  0.7818608E-02  0.1180000E+00
       11   -1    0    0    0    0  0.00000000000E+00  0.00000000000E+00  0.10559998763E+01  0.10560000000E+01  0.51109989000E-03 0. -1.
     -623   -1    0    0    0    0  0.00000000000E+00  0.00000000000E+00  0.47855275298E-10  0.17124000000E+03  0.17124000000E+03 0. -1.
       11    1    1    2    0    0  0.62323578409E-02 -0.21481607064E-01  0.98604657538E+00  0.98630036589E+00  0.51109989000E-03 0. -1.
     -623    1    1    2    0    0 -0.65586183799E-02  0.22927087002E-01  0.27108198482E-03  0.17124000166E+03  0.17124000000E+03 0. -1.
       22    1    1    2    0    0  0.32625059001E-03 -0.14454451601E-02  0.69680617546E-01  0.69696371589E-01  0.00000000000E+00 0. -1.
</event>
<event>
 5   1  0.2192208E+09  0.9118800E+02  0.7818608E-02  0.1180000E+00
       11   -1    0    0    0    0  0.00000000000E+00  0.00000000000E+00  0.10559998763E+01  0.10560000000E+01  0.51109989000E-03 0. -1.
     -623   -1    0    0    0    0  0.00000000000E+00  0.00000000000E+00  0.47855275298E-10  0.17124000000E+03  0.17124000000E+03 0. -1.
       11    1    1    2    0    0 -0.98019412014E-03  0.13943703918E-02  0.93619939928E+00  0.93620109030E+00  0.51109989000E-03 0. -1.
     -623    1    1    2    0    0  0.40010437116E-04 -0.87413321723E-04  0.12386372235E-04  0.17124000000E+03  0.17124000000E+03 0. -1.
       22    1    1    2    0    0  0.94018368257E-03 -0.13069570691E-02  0.11978810280E+00  0.11979892176E+00  0.00000000000E+00 0.  1.
</event>
<event>
 5   1  0.2192208E+09  0.9118800E+02  0.7818608E-02  0.1180000E+00
       11   -1    0    0    0    0  0.00000000000E+00  0.00000000000E+00  0.10559998763E+01  0.10560000000E+01  0.51109989000E-03 0.  1.
     -623   -1    0    0    0    0  0.00000000000E+00  0.00000000000E+00  0.47855275298E-10  0.17124000000E+03  0.17124000000E+03 0. -1.
       11    1    1    2    0    0 -0.24429349030E-02 -0.49325019065E-02  0.92585003969E+00  0.92586654261E+00  0.51109989000E-03 0.  1.
     -623    1    1    2    0    0  0.35340534959E-02  0.62427148961E-02  0.27700098139E-04  0.17124000015E+03  0.17124000000E+03 0. -1.
       22    1    1    2    0    0 -0.10911188370E-02 -0.13102134207E-02  0.13012220952E+00  0.13013338007E+00  0.00000000000E+00 0.  1.
</event>
<event>
 5   1  0.2192208E+09  0.9118800E+02  0.7818608E-02  0.1180000E+00
       11   -1    0    0    0    0  0.00000000000E+00  0.00000000000E+00  0.10559998763E+01  0.10560000000E+01  0.51109989000E-03 0. -1.
     -623   -1    0    0    0    0  0.00000000000E+00  0.00000000000E+00  0.47855275298E-10  0.17124000000E+03  0.17124000000E+03 0.  1.
       11    1    1    2    0    0  0.18137392847E-02 -0.17138690000E-01  0.95560190517E+00  0.95575744137E+00  0.51109989000E-03 0. -1.
     -623    1    1    2    0    0 -0.16118285682E-02  0.19052892127E-01  0.17496195410E-03  0.17124000107E+03  0.17124000000E+03 0.  1.
       22    1    1    2    0    0 -0.20191048503E-03 -0.19142048644E-02  0.10022316090E+00  0.10024164269E+00  0.00000000000E+00 0. -1.
</event>
<event>
 5   1  0.2192208E+09  0.9118800E+02  0.7818608E-02  0.1180000E+00
       11   -1    0    0    0    0  0.00000000000E+00  0.00000000000E+00  0.10559998763E+01  0.10560000000E+01  0.51109989000E-03 0.  1.
     -623   -1    0    0    0    0  0.00000000000E+00  0.00000000000E+00  0.47855275298E-10  0.17124000000E+03  0.17124000000E+03 0.  1.
       11    1    1    2    0    0 -0.11039111990E-01 -0.14012125563E-01  0.97096839575E+00  0.97113237430E+00  0.51109989000E-03 0.  1.
     -623    1    1    2    0    0  0.43915327418E-02  0.33916020762E-02  0.10939311515E-02  0.17124000009E+03  0.17124000000E+03 0.  1.
       22    1    1    2    0    0  0.66475792483E-02  0.10620523488E-01  0.83937549322E-01  0.84867532162E-01  0.00000000000E+00 0.  1.
</event>
<event>
 5   1  0.2192208E+09  0.9118800E+02  0.7818608E-02  0.1180000E+00
       11   -1    0    0    0    0  0.00000000000E+00  0.00000000000E+00  0.10559998763E+01  0.10560000000E+01  0.51109989000E-03 0. -1.
     -623   -1    0    0    0    0  0.00000000000E+00  0.00000000000E+00  0.47855275298E-10  0.17124000000E+03  0.17124000000E+03 0. -1.
       11    1    1    2    0    0  0.52311272032E-02 -0.68026144111E-02  0.55753649121E+00  0.55760276228E+00  0.51109989000E-03 0. -1.
     -623    1    1    2    0    0 -0.10685794869E-02 -0.70930309797E-03  0.14015068719E-03  0.17124000000E+03  0.17124000000E+03 0. -1.
       22    1    1    2    0    0 -0.41625477152E-02  0.75119175097E-02  0.49832323543E+00  0.49839723382E+00  0.00000000000E+00 0. -1.
</event>
<event>
 5   1  0.2192208E+09  0.9118800E+02  0.7818608E-02  0.1180000E+00
       11   -1    0    0    0    0  0.00000000000E+00  0.00000000000E+00  0.10559998763E+01  0.10560000000E+01  0.51109989000E-03 0.  1.
     -623   -1    0    0    0    0  0.00000000000E+00  0.00000000000E+00  0.47855275298E-10  0.17124000000E+03  0.17124000000E+03 0.  1.
       11    1    1    2    0    0  0.20436171674E-02  0.55514358789E-02  0.84224695856E+00  0.84226788805E+00  0.51109989000E-03 0.  1.
     -623    1    1    2    0    0 -0.24507244533E-02 -0.10381796962E-02  0.68871571690E-04  0.17124000002E+03  0.17124000000E+03 0.  1.
       22    1    1    2    0    0  0.40710728623E-03 -0.45132561825E-02  0.21368404636E+00  0.21373209139E+00  0.00000000000E+00 0. -1.
</event>
<event>
 5   1  0.2192208E+09  0.9118800E+02  0.7818608E-02  0.1180000E+00
       11   -1    0    0    0    0  0.00000000000E+00  0.00000000000E+00  0.10559998763E+01  0.10560000000E+01  0.51109989000E-03 0. -1.
     -623   -1    0    0    0    0  0.00000000000E+00  0.00000000000E+00  0.47855275298E-10  0.17124000000E+03  0.17124000000E+03 0.  1.
       11    1    1    2    0    0  0.96601941730E-03 -0.72626845491E-02  0.10033411116E+01  0.10033679919E+01  0.51109989000E-03 0. -1.
     -623    1    1    2    0    0 -0.85850440654E-03  0.82831083676E-02  0.36961927912E-04  0.17124000020E+03  0.17124000000E+03 0.  1.
       22    1    1    2    0    0 -0.10751509974E-03 -0.10204229599E-02  0.52621693386E-01  0.52631696128E-01  0.00000000000E+00 0. -1.
</event>
<event>
 5   1  0.2192208E+09  0.9118800E+02  0.7818608E-02  0.1180000E+00
       11   -1    0    0    0    0  0.00000000000E+00  0.00000000000E+00  0.10559998763E+01  0.10560000000E+01  0.51109989000E-03 0.  1.
     -623   -1    0    0    0    0  0.00000000000E+00  0.00000000000E+00  0.47855275298E-10  0.17124000000E+03  0.17124000000E+03 0.  1.
       11    1    1    2    0    0 -0.12787117713E-01  0.25731837689E-02  0.90216964802E+00  0.90226407814E+00  0.51109989000E-03 0.  1.
     -623    1    1    2    0    0  0.12730067125E-01 -0.17461302288E-03  0.11350268133E-03  0.17124000047E+03  0.17124000000E+03 0.  1.
       22    1    1    2    0    0  0.57050610308E-04 -0.23985707463E-02  0.15371672381E+00  0.15373544671E+00  0.00000000000E+00 0. -1.
</event>
<event>
 5   1  0.2192208E+09  0.9118800E+02  0.7818608E-02  0.1180000E+00
       11   -1    0    0    0    0  0.00000000000E+00  0.00000000000E+00  0.10559998763E+01  0.10560000000E+01  0.51109989000E-03 0. -1.
     -623   -1    0    0    0    0  0.00000000000E+00  0.00000000000E+00  0.47855275298E-10  0.17124000000E+03  0.17124000000E+03 0. -1.
       11    1    1    2    0    0  0.42065579486E-03  0.20023484597E-02  0.99449073467E+00  0.99449297077E+00  0.51109989000E-03 0. -1.
     -623    1    1    2    0    0  0.44175380311E-03 -0.27773644173E-02  0.13065360293E-04  0.17124000002E+03  0.17124000000E+03 0. -1.
       22    1    1    2    0    0 -0.86240961961E-03  0.77501609373E-03  0.61496128069E-01  0.61507057870E-01  0.00000000000E+00 0.  1.
</event>
<event>
 5   1  0.2192208E+09  0.9118800E+02  0.7818608E-02  0.1180000E+00
       11   -1    0    0    0    0  0.00000000000E+00  0.00000000000E+00  0.10559998763E+01  0.10560000000E+01  0.51109989000E-03 0.  1.
     -623   -1    0    0    0    0  0.00000000000E+00  0.00000000000E+00  0.47855275298E-10  0.17124000000E+03  0.17124000000E+03 0. -1.
       11    1    1    2    0    0 -0.94723404753E-03 -0.33959743725E-02  0.74073014639E+00  0.74073871296E+00  0.51109989000E-03 0.  1.
     -623    1    1    2    0    0  0.11235026798E-04  0.18046512373E-03  0.26231315832E-04  0.17124000000E+03  0.17124000000E+03 0. -1.
       22    1    1    2    0    0  0.93599902083E-03  0.32155092505E-02  0.31524348870E+00  0.31526127698E+00  0.00000000000E+00 0.  1.
</event>
<event>
 5   1  0.2192208E+09  0.9118800E+02  0.7818608E-02  0.1180000E+00
       11   -1    0    0    0    0  0.00000000000E+00  0.00000000000E+00  0.10559998763E+01  0.10560000000E+01  0.51109989000E-03 0. -1.
     -623   -1    0    0    0    0  0.00000000000E+00  0.00000000000E+00  0.47855275298E-10  0.17124000000E+03  0.17124000000E+03 0.  1.
       11    1    1    2    0    0  0.63320870820E-02  0.27233349839E-01  0.95515788872E+00  0.95556716366E+00  0.51109989000E-03 0. -1.
     -623    1    1    2    0    0 -0.68942076329E-02 -0.29964807423E-01  0.45063756330E-03  0.17124000276E+03  0.17124000000E+03 0.  1.
       22    1    1    2    0    0  0.56212625215E-03  0.27314823642E-02  0.10039222298E+00  0.10043094851E+00  0.00000000000E+00 0.  1.
</event>
<event>
 5   1  0.2192208E+09  0.9118800E+02  0.7818608E-02  0.1180000E+00
       11   -1    0    0    0    0  0.00000000000E+00  0.00000000000E+00  0.10559998763E+01  0.10560000000E+01  0.51109989000E-03 0. -1.
     -623   -1    0    0    0    0  0.00000000000E+00  0.00000000000E+00  0.47855275298E-10  0.17124000000E+03  0.17124000000E+03 0.  1.
       11    1    1    2    0    0  0.31164707056E-02  0.75542674215E-02  0.74373251831E+00  0.74377758729E+00  0.51109989000E-03 0. -1.
     -623    1    1    2    0    0 -0.48220350940E-02 -0.10820934706E-01  0.67103357017E-04  0.17124000041E+03  0.17124000000E+03 0.  1.
       22    1    1    2    0    0  0.17055663863E-02  0.32666717677E-02  0.31220069220E+00  0.31222244043E+00  0.00000000000E+00 0. -1.
</event>
<event>
 5   1  0.2192208E+09  0.9118800E+02  0.7818608E-02  0.1180000E+00
       11   -1    0    0    0    0  0.00000000000E+00  0.00000000000E+00  0.10559998763E+01  0.10560000000E+01  0.51109989000E-03 0.  1.
     -623   -1    0    0    0    0  0.00000000000E+00  0.00000000000E+00  0.47855275298E-10  0.17124000000E+03  0.17124000000E+03 0. -1.
       11    1    1    2    0    0 -0.18958159334E-02  0.10115450475E-02  0.97325369699E+00  0.97325620330E+00  0.51109989000E-03 0.  1.
     -623    1    1    2    0    0  0.15611031298E-02  0.12289725589E-03  0.10844025331E-04  0.17124000001E+03  0.17124000000E+03 0. -1.
       22    1    1    2    0    0  0.33471277717E-03 -0.11344423055E-02  0.82735353234E-01  0.82743807422E-01  0.00000000000E+00 0. -1.
</event>
<event>
 5   1  0.2192208E+09  0.9118800E+02  0.7818608E-02  0.1180000E+00
       11   -1    0    0    0    0  0.00000000000E+00  0.00000000000E+00  0.10559998763E+01  0.10560000000E+01  0.51109989000E-03 0. -1.
     -623   -1    0    0    0    0  0.00000000000E+00  0.00000000000E+00  0.47855275298E-10  0.17124000000E+03  0.17124000000E+03 0.  1.
       11    1    1    2    0    0 -0.92258434890E-02 -0.61514533716E-02  0.69266673026E+00  0.69275566905E+00  0.51109989000E-03 0. -1.
     -623    1    1    2    0    0  0.35266231493E-02  0.19755447118E-02  0.15758259629E-03  0.17124000005E+03  0.17124000000E+03 0.  1.
       22    1    1    2    0    0  0.56992203458E-02  0.41759086632E-02  0.36317556166E+00  0.36324428132E+00  0.00000000000E+00 0. -1.
</event>
<event>
 5   1  0.2192208E+09  0.9118800E+02  0.7818608E-02  0.1180000E+00
       11   -1    0    0    0    0  0.00000000000E+00  0.00000000000E+00  0.10559998763E+01  0.10560000000E+01  0.51109989000E-03 0.  1.
     -623   -1    0    0    0    0  0.00000000000E+00  0.00000000000E+00  0.47855275298E-10  0.17124000000E+03  0.17124000000E+03 0. -1.
       11    1    1    2    0    0  0.55933975462E-02 -0.14911662852E-01  0.97167807334E+00  0.97180871740E+00  0.51109989000E-03 0.  1.
     -623    1    1    2    0    0 -0.60219965693E-02  0.15861312713E-01  0.13780808474E-03  0.17124000084E+03  0.17124000000E+03 0. -1.
       22    1    1    2    0    0  0.42859942046E-03 -0.94965090827E-03  0.84184064612E-01  0.84190511751E-01  0.00000000000E+00 0. -1.
</event>
<event>
 5   1  0.2192208E+09  0.9118800E+02  0.7818608E-02  0.1180000E+00
       11   -1    0    0    0    0  0.00000000000E+00  0.00000000000E+00  0.10559998763E+01  0.10560000000E+01  0.51109989000E-03 0. -1.
     -623   -1    0    0    0    0  0.00000000000E+00  0.00000000000E+00  0.47855275298E-10  0.17124000000E+03  0.17124000000E+03 0.  1.
       11    1    1    2    0    0  0.74320163399E-02 -0.35714439706E-02  0.61549458591E+00  0.61555002768E+00  0.51109989000E-03 0. -1.
     -623    1    1    2    0    0 -0.95978557260E-02 -0.96639692348E-03  0.84291989302E-04  0.17124000027E+03  0.17124000000E+03 0.  1.
       22    1    1    2    0    0  0.21658393267E-02  0.45378408881E-02  0.44042099193E+00  0.44044969405E+00  0.00000000000E+00 0. -1.
</event>
<event>
 5   1  0.2192208E+09  0.9118800E+02  0.7818608E-02  0.1180000E+00
       11   -1    0    0    0    0  0.00000000000E+00  0.00000000000E+00  0.10559998763E+01  0.10560000000E+01  0.51109989000E-03 0.  1.
     -623   -1    0    0    0    0  0.00000000000E+00  0.00000000000E+00  0.47855275298E-10  0.17124000000E+03  0.17124000000E+03 0.  1.
       11    1    1    2    0    0 -0.12430530110E-02 -0.27624337860E-02  0.10045963634E+01  0.10046010606E+01  0.51109989000E-03 0.  1.
     -623    1    1    2    0    0  0.10932642927E-02  0.26735947372E-03  0.65391003006E-04  0.17124000000E+03  0.17124000000E+03 0.  1.
       22    1    1    2    0    0  0.14978871143E-03  0.24950743106E-02  0.51338128530E-01  0.51398942337E-01  0.00000000000E+00 0.  1.
</event>
<event>
 5   1  0.2192208E+09  0.9118800E+02  0.7818608E-02  0.1180000E+00
       11   -1    0    0    0    0  0.00000000000E+00  0.00000000000E+00  0.10559998763E+01  0.10560000000E+01  0.51109989000E-03 0. -1.
     -623   -1    0    0    0    0  0.00000000000E+00  0.00000000000E+00  0.47855275298E-10  0.17124000000E+03  0.17124000000E+03 0. -1.
       11    1    1    2    0    0 -0.17770598705E-01  0.17041188950E-01  0.88380907728E+00  0.88415210378E+00  0.51109989000E-03 0. -1.
     -623    1    1    2    0    0  0.21185654968E-01 -0.20715241894E-01  0.41869155482E-03  0.17124000256E+03  0.17124000000E+03 0. -1.
       22    1    1    2    0    0 -0.34150672762E-02  0.36740637127E-02  0.17177265626E+00  0.17184588114E+00  0.00000000000E+00 0.  1.
</event>
<event>
 5   1  0.2192208E+09  0.9118800E+02  0.7818608E-02  0.1180000E+00
       11   -1    0    0    0    0  0.00000000000E+00  0.00000000000E+00  0.10559998763E+01  0.10560000000E+01  0.51109989000E-03 0.  1.
     -623   -1    0    0    0    0  0.00000000000E+00  0.00000000000E+00  0.47855275298E-10  0.17124000000E+03  0.17124000000E+03 0.  1.
       11    1    1    2    0    0 -0.24878919726E-02  0.92938470621E-02  0.44104709899E+00  0.44115232057E+00  0.51109989000E-03 0.  1.
     -623    1    1    2    0    0  0.80942817051E-02 -0.16524621052E-01  0.17416893553E-03  0.17124000099E+03  0.17124000000E+03 0.  1.
       22    1    1    2    0    0 -0.56063899003E-02  0.72307743322E-02  0.61477863033E+00  0.61484671261E+00  0.00000000000E+00 0.  1.
</event>
<event>
 5   1  0.2192208E+09  0.9118800E+02  0.7818608E-02  0.1180000E+00
       11   -1    0    0    0    0  0.00000000000E+00  0.00000000000E+00  0.10559998763E+01  0.10560000000E+01  0.51109989000E-03 0.  1.
     -623   -1    0    0    0    0  0.00000000000E+00  0.00000000000E+00  0.47855275298E-10  0.17124000000E+03  0.17124000000E+03 0. -1.
       11    1    1    2    0    0 -0.45591562425E-03 -0.11012579866E-01  0.95560104558E+00  0.95566474472E+00  0.51109989000E-03 0.  1.
     -623    1    1    2    0    0 -0.50966818568E-03  0.12300503964E-01  0.76931165876E-04  0.17124000044E+03  0.17124000000E+03 0. -1.
       22    1    1    2    0    0  0.96558386058E-03 -0.12879253211E-02  0.10032200455E+00  0.10033491766E+00  0.00000000000E+00 0.  1.
</event>
<event>
 5   1  0.2192208E+09  0.9118800E+02  0.7818608E-02  0.1180000E+00
       11   -1    0    0    0    0  0.00000000000E+00  0.00000000000E+00  0.10559998763E+01  0.10560000000E+01  0.51109989000E-03 0. -1.
     -623   -1    0    0    0    0  0.00000000000E+00  0.00000000000E+00  0.47855275298E-10  0.17124000000E+03  0.17124000000E+03 0. -1.
       11    1    1    2    0    0  0.45805659454E-02 -0.38797830979E-02  0.68975870065E+00  0.68978501045E+00  0.51109989000E-03 0. -1.
     -623    1    1    2    0    0  0.97774504875E-04 -0.35792955117E-04  0.77004982497E-04  0.17124000000E+03  0.17124000000E+03 0. -1.
       22    1    1    2    0    0 -0.46783404500E-02  0.39155760530E-02  0.36616416803E+00  0.36621498679E+00  0.00000000000E+00 0.  1.
</event>
<event>
 5   1  0.2192208E+09  0.9118800E+02  0.7818608E-02  0.1180000E+00
       11   -1    0    0    0    0  0.00000000000E+00  0.00000000000E+00  0.10559998763E+01  0.10560000000E+01  0.51109989000E-03 0.  1.
     -623   -1    0    0    0    0  0.00000000000E+00  0.00000000000E+00  0.47855275298E-10  0.17124000000E+03  0.17124000000E+03 0.  1.
       11    1    1    2    0    0  0.16255160464E-02 -0.87155257163E-02  0.68453795506E+00  0.68459555639E+00  0.51109989000E-03 0.  1.
     -623    1    1    2    0    0  0.11479034665E-03 -0.25410046895E-03  0.16988308899E-03  0.17124000000E+03  0.17124000000E+03 0.  1.
       22    1    1    2    0    0 -0.17403063934E-02  0.89696261860E-02  0.37129204099E+00  0.37140444608E+00  0.00000000000E+00 0.  1.
</event>
<event>
 5   1  0.2192208E+09  0.9118800E+02  0.7818608E-02  0.1180000E+00
       11   -1    0    0    0    0  0.00000000000E+00  0.00000000000E+00  0.10559998763E+01  0.10560000000E+01  0.51109989000E-03 0. -1.
     -623   -1    0    0    0    0  0.00000000000E+00  0.00000000000E+00  0.47855275298E-10  0.17124000000E+03  0.17124000000E+03 0.  1.
       11    1    1    2    0    0 -0.85423728766E-02  0.17078948730E-01  0.63119532986E+00  0.63148433732E+00  0.51109989000E-03 0. -1.
     -623    1    1    2    0    0  0.14349773047E-01 -0.29535425228E-01  0.51456967759E-03  0.17124000315E+03  0.17124000000E+03 0.  1.
       22    1    1    2    0    0 -0.58074008083E-02  0.12456477811E-01  0.42429002376E+00  0.42451256048E+00  0.00000000000E+00 0. -1.
</event>
<event>
 5   1  0.2192208E+09  0.9118800E+02  0.7818608E-02  0.1180000E+00
       11   -1    0    0    0    0  0.00000000000E+00  0.00000000000E+00  0.10559998763E+01  0.10560000000E+01  0.51109989000E-03 0. -1.
     -623   -1    0    0    0    0  0.00000000000E+00  0.00000000000E+00  0.47855275298E-10  0.17124000000E+03  0.17124000000E+03 0. -1.
       11    1    1    2    0    0  0.13970812138E-03  0.47783836593E-03  0.10019081917E+01  0.10019084457E+01  0.51109989000E-03 0. -1.
     -623    1    1    2    0    0 -0.48090535302E-04  0.15966444443E-03  0.39649100039E-05  0.17124000000E+03  0.17124000000E+03 0. -1.
       22    1    1    2    0    0 -0.91617589610E-04 -0.63750279864E-03  0.54087642327E-01  0.54091476741E-01  0.00000000000E+00 0. -1.
</event>
<event>
 5   1  0.2192208E+09  0.9118800E+02  0.7818608E-02  0.1180000E+00
       11   -1    0    0    0    0  0.00000000000E+00  0.00000000000E+00  0.10559998763E+01  0.10560000000E+01  0.51109989000E-03 0. -1.
     -623   -1    0    0    0    0  0.00000000000E+00  0.00000000000E+00  0.47855275298E-10  0.17124000000E+03  0.17124000000E+03 0.  1.
       11    1    1    2    0    0  0.41643790514E-03  0.23293072951E-02  0.94459997449E+00  0.94460307649E+00  0.51109989000E-03 0. -1.
     -623    1    1    2    0    0  0.10517736055E-04 -0.58683946148E-04  0.26940420324E-04  0.17124000000E+03  0.17124000000E+03 0.  1.
       22    1    1    2    0    0 -0.42695564129E-03 -0.22706233484E-02  0.11137297155E+00  0.11139693359E+00  0.00000000000E+00 0. -1.
</event>
<event>
 5   1  0.2192208E+09  0.9118800E+02  0.7818608E-02  0.1180000E+00
       11   -1    0    0    0    0  0.00000000000E+00  0.00000000000E+00  0.10559998763E+01  0.10560000000E+01  0.51109989000E-03 0. -1.
     -623   -1    0    0    0    0  0.00000000000E+00  0.00000000000E+00  0.47855275298E-10  0.17124000000E+03  0.17124000000E+03 0.  1.
       11    1    1    2    0    0 -0.66832621387E-03 -0.12707153075E-02  0.96709810680E+00  0.96709930761E+00  0.51109989000E-03 0. -1.
     -623    1    1    2    0    0 -0.99897113875E-04  0.18794813150E-03  0.10990892399E-04  0.17124000000E+03  0.17124000000E+03 0.  1.
       22    1    1    2    0    0  0.76822332946E-03  0.10827671728E-02  0.88890796805E-01  0.88900710393E-01  0.00000000000E+00 0. -1.
</event>
<event>
 5   1  0.2192208E+09  0.9118800E+02  0.7818608E-02  0.1180000E+00
       11   -1    0    0    0    0  0.00000000000E+00  0.00000000000E+00  0.10559998763E+01  0.10560000000E+01  0.51109989000E-03 0.  1.
     -623   -1    0    0    0    0  0.00000000000E+00  0.00000000000E+00  0.47855275298E-10  0.17124000000E+03  0.17124000000E+03 0.  1.
       11    1    1    2    0    0  0.21252563958E-03  0.10486601158E-02  0.99567583642E+00  0.99567654251E+00  0.51109989000E-03 0.  1.
     -623    1    1    2    0    0 -0.35662619696E-04 -0.28195120035E-03  0.57146096684E-05  0.17124000000E+03  0.17124000000E+03 0.  1.
       22    1    1    2    0    0 -0.17686302198E-03 -0.76670893200E-03  0.60318263442E-01  0.60323395360E-01  0.00000000000E+00 0. -1.
</event>
<event>
 5   1  0.2192208E+09  0.9118800E+02  0.7818608E-02  0.1180000E+00
       11   -1    0    0    0    0  0.00000000000E+00  0.00000000000E+00  0.10559998763E+01  0.10560000000E+01  0.51109989000E-03 0.  1.
     -623   -1    0    0    0    0  0.00000000000E+00  0.00000000000E+00  0.47855275298E-10  0.17124000000E+03  0.17124000000E+03 0. -1.
       11    1    1    2    0    0  0.86039825005E-02 -0.75155418056E-02  0.55506329603E+00  0.55518108370E+00  0.51109989000E-03 0.  1.
     -623    1    1    2    0    0 -0.13086771709E-01  0.13888119264E-01  0.17933706501E-03  0.17124000106E+03  0.17124000000E+03 0. -1.
       22    1    1    2    0    0  0.44827895656E-02 -0.63725778374E-02  0.50075727207E+00  0.50081788175E+00  0.00000000000E+00 0.  1.
</event>
<event>
 5   1  0.2192208E+09  0.9118800E+02  0.7818608E-02  0.1180000E+00
       11   -1    0    0    0    0  0.00000000000E+00  0.00000000000E+00  0.10559998763E+01  0.10560000000E+01  0.51109989000E-03 0.  1.
     -623   -1    0    0    0    0  0.00000000000E+00  0.00000000000E+00  0.47855275298E-10  0.17124000000E+03  0.17124000000E+03 0.  1.
       11    1    1    2    0    0 -0.14081019839E-01 -0.24213566446E-01  0.94381524296E+00  0.94423092831E+00  0.51109989000E-03 0.  1.
     -623    1    1    2    0    0  0.14371374297E-01  0.26426696302E-01  0.44049539167E-03  0.17124000264E+03  0.17124000000E+03 0.  1.
       22    1    1    2    0    0 -0.29035454807E-03 -0.22131300226E-02  0.11174414466E+00  0.11176643556E+00  0.00000000000E+00 0. -1.
</event>
<event>
 5   1  0.2192208E+09  0.9118800E+02  0.7818608E-02  0.1180000E+00
       11   -1    0    0    0    0  0.00000000000E+00  0.00000000000E+00  0.10559998763E+01  0.10560000000E+01  0.51109989000E-03 0.  1.
     -623   -1    0    0    0    0  0.00000000000E+00  0.00000000000E+00  0.47855275298E-10  0.17124000000E+03  0.17124000000E+03 0.  1.
       11    1    1    2    0    0  0.78381611453E-02  0.36906136066E-02  0.89946056436E+00  0.89950243216E+00  0.51109989000E-03 0.  1.
     -623    1    1    2    0    0 -0.10908194186E-03  0.70979372518E-03  0.29467708669E-03  0.17124000000E+03  0.17124000000E+03 0.  1.
       22    1    1    2    0    0 -0.77290792033E-02 -0.44004073328E-02  0.15624463639E+00  0.15649756755E+00  0.00000000000E+00 0. -1.
</event>
<event>
 5   1  0.2192208E+09  0.9118800E+02  0.7818608E-02  0.1180000E+00
       11   -1    0    0    0    0  0.00000000000E+00  0.00000000000E+00  0.10559998763E+01  0.10560000000E+01  0.51109989000E-03 0.  1.
     -623   -1    0    0    0    0  0.00000000000E+00  0.00000000000E+00  0.47855275298E-10  0.17124000000E+03  0.17124000000E+03 0. -1.
       11    1    1    2    0    0 -0.16033378939E-02  0.44864024707E-02  0.19769732437E+00  0.19775538371E+00  0.51109989000E-03 0.  1.
     -623    1    1    2    0    0 -0.37571202081E-02 -0.20053847069E-01  0.21709297270E-03  0.17124000122E+03  0.17124000000E+03 0. -1.
       22    1    1    2    0    0  0.53604581033E-02  0.15567444605E-01  0.85808545939E+00  0.85824340106E+00  0.00000000000E+00 0.  1.
</event>
<event>
 5   1  0.2192208E+09  0.9118800E+02  0.7818608E-02  0.1180000E+00
       11   -1    0    0    0    0  0.00000000000E+00  0.00000000000E+00  0.10559998763E+01  0.10560000000E+01  0.51109989000E-03 0.  1.
     -623   -1    0    0    0    0  0.00000000000E+00  0.00000000000E+00  0.47855275298E-10  0.17124000000E+03  0.17124000000E+03 0. -1.
       11    1    1    2    0    0 -0.37756451636E-02 -0.84074666547E-02  0.98858051751E+00  0.98862360978E+00  0.51109989000E-03 0.  1.
     -623    1    1    2    0    0  0.40059269743E-02  0.91133701766E-02  0.47349557388E-04  0.17124000029E+03  0.17124000000E+03 0. -1.
       22    1    1    2    0    0 -0.23028550817E-03 -0.70591193353E-03  0.67372983940E-01  0.67377075538E-01  0.00000000000E+00 0. -1.
</event>
<event>
 5   1  0.2192208E+09  0.9118800E+02  0.7818608E-02  0.1180000E+00
       11   -1    0    0    0    0  0.00000000000E+00  0.00000000000E+00  0.10559998763E+01  0.10560000000E+01  0.51109989000E-03 0. -1.
     -623   -1    0    0    0    0  0.00000000000E+00  0.00000000000E+00  0.47855275298E-10  0.17124000000E+03  0.17124000000E+03 0. -1.
       11    1    1    2    0    0  0.14962589291E-02  0.39165808619E-02  0.10028646890E+01  0.10028735832E+01  0.51109989000E-03 0. -1.
     -623    1    1    2    0    0 -0.22394984549E-02 -0.46921264239E-02  0.19710425654E-04  0.17124000008E+03  0.17124000000E+03 0. -1.
       22    1    1    2    0    0  0.74323957745E-03  0.77554567025E-03  0.53115501341E-01  0.53126362184E-01  0.00000000000E+00 0. -1.
</event>
<event>
 5   1  0.2192208E+09  0.9118800E+02  0.7818608E-02  0.1180000E+00
       11   -1    0    0    0    0  0.00000000000E+00  0.00000000000E+00  0.10559998763E+01  0.10560000000E+01  0.51109989000E-03 0.  1.
     -623   -1    0    0    0    0  0.00000000000E+00  0.00000000000E+00  0.47855275298E-10  0.17124000000E+03  0.17124000000E+03 0. -1.
       11    1    1    2    0    0 -0.40573628483E-02  0.14599929487E-01  0.87189845985E+00  0.87203027794E+00  0.51109989000E-03 0.  1.
     -623    1    1    2    0    0  0.48754967464E-02 -0.17581239047E-01  0.15864431665E-03  0.17124000097E+03  0.17124000000E+03 0. -1.
       22    1    1    2    0    0 -0.81814824226E-03  0.29813612857E-02  0.18394587858E+00  0.18397185689E+00  0.00000000000E+00 0.  1.
</event>
<event>
 5   1  0.2192208E+09  0.9118800E+02  0.7818608E-02  0.1180000E+00
       11   -1    0    0    0    0  0.00000000000E+00  0.00000000000E+00  0.10559998763E+01  0.10560000000E+01  0.51109989000E-03 0.  1.
     -623   -1    0    0    0    0  0.00000000000E+00  0.00000000000E+00  0.47855275298E-10  0.17124000000E+03  0.17124000000E+03 0.  1.
       11    1    1    2    0    0 -0.49337367001E-04  0.96318318293E-03  0.99260564742E+00  0.99260624754E+00  0.51109989000E-03 0.  1.
     -623    1    1    2    0    0 -0.53180093750E-03 -0.18760835860E-04  0.10176602661E-04  0.17124000000E+03  0.17124000000E+03 0.  1.
       22    1    1    2    0    0  0.58113833419E-03 -0.94442234602E-03  0.63384111314E-01  0.63393810600E-01  0.00000000000E+00 0.  1.
</event>
<event>
 5   1  0.2192208E+09  0.9118800E+02  0.7818608E-02  0.1180000E+00
       11   -1    0    0    0    0  0.00000000000E+00  0.00000000000E+00  0.10559998763E+01  0.10560000000E+01  0.51109989000E-03 0.  1.
     -623   -1    0    0    0    0  0.00000000000E+00  0.00000000000E+00  0.47855275298E-10  0.17124000000E+03  0.17124000000E+03 0.  1.
       11    1    1    2    0    0  0.16174235420E-02  0.41362336162E-02  0.81762702099E+00  0.81763924268E+00  0.51109989000E-03 0.  1.
     -623    1    1    2    0    0 -0.37487491618E-03 -0.20043814999E-03  0.47833681657E-04  0.17124000000E+03  0.17124000000E+03 0.  1.
       22    1    1    2    0    0 -0.12425486264E-02 -0.39357954665E-02  0.23832502021E+00  0.23836075531E+00  0.00000000000E+00 0. -1.
</event>
<event>
 5   1  0.2192208E+09  0.9118800E+02  0.7818608E-02  0.1180000E+00
       11   -1    0    0    0    0  0.00000000000E+00  0.00000000000E+00  0.10559998763E+01  0.10560000000E+01  0.51109989000E-03 0. -1.
     -623   -1    0    0    0    0  0.00000000000E+00  0.00000000000E+00  0.47855275298E-10  0.17124000000E+03  0.17124000000E+03 0.  1.
       11    1    1    2    0    0  0.81194806387E-02 -0.58512221956E-02  0.75825854681E+00  0.75832476407E+00  0.51109989000E-03 0. -1.
     -623    1    1    2    0    0 -0.80637514107E-03 -0.40481951008E-03  0.22170832446E-03  0.17124000000E+03  0.17124000000E+03 0.  1.
       22    1    1    2    0    0 -0.73131054975E-02  0.62560417058E-02  0.29751962141E+00  0.29767523359E+00  0.00000000000E+00 0. -1.
</event>
<event>
 5   1  0.2192208E+09  0.9118800E+02  0.7818608E-02  0.1180000E+00
       11   -1    0    0    0    0  0.00000000000E+00  0.00000000000E+00  0.10559998763E+01  0.10560000000E+01  0.51109989000E-03 0.  1.
     -623   -1    0    0    0    0  0.00000000000E+00  0.00000000000E+00  0.47855275298E-10  0.17124000000E+03  0.17124000000E+03 0.  1.
       11    1    1    2    0    0 -0.59631177619E-04  0.13628686852E-02  0.76529915191E+00  0.76530053842E+00  0.51109989000E-03 0.  1.
     -623    1    1    2    0    0 -0.55236520613E-03  0.16328491987E-02  0.17351941891E-04  0.17124000001E+03  0.17124000000E+03 0.  1.
       22    1    1    2    0    0  0.61199639678E-03 -0.29957179224E-02  0.29068339743E+00  0.29069947782E+00  0.00000000000E+00 0.  1.
</event>
<event>
 5   1  0.2192208E+09  0.9118800E+02  0.7818608E-02  0.1180000E+00
       11   -1    0    0    0    0  0.00000000000E+00  0.00000000000E+00  0.10559998763E+01  0.10560000000E+01  0.51109989000E-03 0. -1.
     -623   -1    0    0    0    0  0.00000000000E+00  0.00000000000E+00  0.47855275298E-10  0.17124000000E+03  0.17124000000E+03 0.  1.
       11    1    1    2    0    0 -0.25466042854E-03 -0.43104696154E-02  0.76369712252E+00  0.76370950051E+00  0.51109989000E-03 0. -1.
     -623    1    1    2    0    0  0.13666013983E-02  0.11741165729E-02  0.31206430935E-04  0.17124000001E+03  0.17124000000E+03 0.  1.
       22    1    1    2    0    0 -0.11119409708E-02  0.31363530416E-02  0.29227154819E+00  0.29229049079E+00  0.00000000000E+00 0. -1.
</event>
<event>
 5   1  0.2192208E+09  0.9118800E+02  0.7818608E-02  0.1180000E+00
       11   -1    0    0    0    0  0.00000000000E+00  0.00000000000E+00  0.10559998763E+01  0.10560000000E+01  0.51109989000E-03 0.  1.
     -623   -1    0    0    0    0  0.00000000000E+00  0.00000000000E+00  0.47855275298E-10  0.17124000000E+03  0.17124000000E+03 0. -1.
       11    1    1    2    0    0 -0.31058134147E-03 -0.27936066626E-02  0.96939669879E+00  0.96940090858E+00  0.51109989000E-03 0.  1.
     -623    1    1    2    0    0  0.86651887285E-03  0.12669430754E-02  0.19335687584E-04  0.17124000001E+03  0.17124000000E+03 0. -1.
       22    1    1    2    0    0 -0.55593753180E-03  0.15266635866E-02  0.86583842396E-01  0.86599085054E-01  0.00000000000E+00 0. -1.
</event>
<event>
 5   1  0.2192208E+09  0.9118800E+02  0.7818608E-02  0.1180000E+00
       11   -1    0    0    0    0  0.00000000000E+00  0.00000000000E+00  0.10559998763E+01  0.10560000000E+01  0.51109989000E-03 0.  1.
     -623   -1    0    0    0    0  0.00000000000E+00  0.00000000000E+00  0.47855275298E-10  0.17124000000E+03  0.17124000000E+03 0. -1.
       11    1    1    2    0    0 -0.82948773733E-02 -0.36884910836E-03  0.75374870289E+00  0.75379460689E+00  0.51109989000E-03 0.  1.
     -623    1    1    2    0    0  0.44634279356E-02  0.55873415068E-02  0.11528238579E-03  0.17124000015E+03  0.17124000000E+03 0. -1.
       22    1    1    2    0    0  0.38314494185E-02 -0.52184924224E-02  0.30213589562E+00  0.30220524828E+00  0.00000000000E+00 0.  1.
</event>
<event>
 5   1  0.2192208E+09  0.9118800E+02  0.7818608E-02  0.1180000E+00
       11   -1    0    0    0    0  0.00000000000E+00  0.00000000000E+00  0.10559998763E+01  0.10560000000E+01  0.51109989000E-03 0.  1.
     -623   -1    0    0    0    0  0.00000000000E+00  0.00000000000E+00  0.47855275298E-10  0.17124000000E+03  0.17124000000E+03 0. -1.
       11    1    1    2    0    0  0.16108407043E-01  0.17327795794E-02  0.96271287855E+00  0.96284932936E+00  0.51109989000E-03 0.  1.
     -623    1    1    2    0    0 -0.17148525869E-01 -0.33296743837E-02  0.15671536788E-03  0.17124000089E+03  0.17124000000E+03 0. -1.
       22    1    1    2    0    0  0.10401188585E-02  0.15968948107E-02  0.93130284456E-01  0.93149781552E-01  0.00000000000E+00 0. -1.
</event>
<event>
 5   1  0.2192208E+09  0.9118800E+02  0.7818608E-02  0.1180000E+00
       11   -1    0    0    0    0  0.00000000000E+00  0.00000000000E+00  0.10559998763E+01  0.10560000000E+01  0.51109989000E-03 0. -1.
     -623   -1    0    0    0    0  0.00000000000E+00  0.00000000000E+00  0.47855275298E-10  0.17124000000E+03  0.17124000000E+03 0.  1.
       11    1    1    2    0    0  0.19143420434E-02 -0.36857541686E-02  0.49274097375E+00  0.49275874211E+00  0.51109989000E-03 0. -1.
     -623    1    1    2    0    0  0.72941507654E-02  0.10946154660E-01  0.14023335561E-03  0.17124000051E+03  0.17124000000E+03 0.  1.
       22    1    1    2    0    0 -0.92084928379E-02 -0.72604005351E-02  0.56311867348E+00  0.56324075685E+00  0.00000000000E+00 0. -1.
</event>
<event>
 5   1  0.2192208E+09  0.9118800E+02  0.7818608E-02  0.1180000E+00
       11   -1    0    0    0    0  0.00000000000E+00  0.00000000000E+00  0.10559998763E+01  0.10560000000E+01  0.51109989000E-03 0. -1.
     -623   -1    0    0    0    0  0.00000000000E+00  0.00000000000E+00  0.47855275298E-10  0.17124000000E+03  0.17124000000E+03 0. -1.
       11    1    1    2    0    0 -0.44328774544E-02  0.39210230701E-02  0.64101271559E+00  0.64104023867E+00  0.51109989000E-03 0. -1.
     -623    1    1    2    0    0  0.60028607981E-02 -0.91849869425E-02  0.64110566981E-04  0.17124000035E+03  0.17124000000E+03 0. -1.
       22    1    1    2    0    0 -0.15699835283E-02  0.52639641548E-02  0.41492308269E+00  0.41495944225E+00  0.00000000000E+00 0. -1.
</event>
<event>
 5   1  0.2192208E+09  0.9118800E+02  0.7818608E-02  0.1180000E+00
       11   -1    0    0    0    0  0.00000000000E+00  0.00000000000E+00  0.10559998763E+01  0.10560000000E+01  0.51109989000E-03 0.  1.
     -623   -1    0    0    0    0  0.00000000000E+00  0.00000000000E+00  0.47855275298E-10  0.17124000000E+03  0.17124000000E+03 0. -1.
       11    1    1    2    0    0  0.17280675636E-01  0.22109452350E-01  0.64507604796E+00  0.64568631587E+00  0.51109989000E-03 0.  1.
     -623    1    1    2    0    0 -0.27423399006E-01 -0.34492519905E-01  0.92815843237E-03  0.17124000567E+03  0.17124000000E+03 0. -1.
       22    1    1    2    0    0  0.10142722917E-01  0.12383066986E-01  0.40999565256E+00  0.41030799443E+00  0.00000000000E+00 0.  1.
</event>
<event>
 5   1  0.2192208E+09  0.9118800E+02  0.7818608E-02  0.1180000E+00
       11   -1    0    0    0    0  0.00000000000E+00  0.00000000000E+00  0.10559998763E+01  0.10560000000E+01  0.51109989000E-03 0.  1.
     -623   -1    0    0    0    0  0.00000000000E+00  0.00000000000E+00  0.47855275298E-10  0.17124000000E+03  0.17124000000E+03 0. -1.
       11    1    1    2    0    0  0.15817470565E-02 -0.42653328642E-02  0.92767332207E+00  0.92768461704E+00  0.51109989000E-03 0.  1.
     -623    1    1    2    0    0  0.73517839118E-03 -0.67880109617E-03  0.12739619347E-03  0.17124000000E+03  0.17124000000E+03 0. -1.
       22    1    1    2    0    0 -0.23169254470E-02  0.49441339597E-02  0.12819915707E+00  0.12831537896E+00  0.00000000000E+00 0. -1.
</event>
<event>
 5   1  0.2192208E+09  0.9118800E+02  0.7818608E-02  0.1180000E+00
       11   -1    0    0    0    0  0.00000000000E+00  0.00000000000E+00  0.10559998763E+01  0.10560000000E+01  0.51109989000E-03 0. -1.
     -623   -1    0    0    0    0  0.00000000000E+00  0.00000000000E+00  0.47855275298E-10  0.17124000000E+03  0.17124000000E+03 0.  1.
       11    1    1    2    0    0  0.20618693447E-02  0.72273860115E-03  0.95400299103E+00  0.95400562984E+00  0.51109989000E-03 0. -1.
     -623    1    1    2    0    0  0.43061953737E-03 -0.18107855163E-02  0.38790353820E-04  0.17124000001E+03  0.17124000000E+03 0.  1.
       22    1    1    2    0    0 -0.24924888794E-02  0.10880469038E-02  0.10195808841E+00  0.10199435347E+00  0.00000000000E+00 0. -1.
</event>
<event>
 5   1  0.2192208E+09  0.9118800E+02  0.7818608E-02  0.1180000E+00
       11   -1    0    0    0    0  0.00000000000E+00  0.00000000000E+00  0.10559998763E+01  0.10560000000E+01  0.51109989000E-03 0. -1.
     -623   -1    0    0    0    0  0.00000000000E+00  0.00000000000E+00  0.47855275298E-10  0.17124000000E+03  0.17124000000E+03 0. -1.
       11    1    1    2    0    0  0.19875824311E-03  0.80976699562E-02  0.67159094218E+00  0.67163998288E+00  0.51109989000E-03 0. -1.
     -623    1    1    2    0    0 -0.35402819547E-03 -0.12410615462E-01  0.73597345082E-04  0.17124000045E+03  0.17124000000E+03 0. -1.
       22    1    1    2    0    0  0.15527002642E-03  0.43129481025E-02  0.38433555774E+00  0.38435978793E+00  0.00000000000E+00 0. -1.
</event>
<event>
 5   1  0.2192208E+09  0.9118800E+02  0.7818608E-02  0.1180000E+00
       11   -1    0    0    0    0  0.00000000000E+00  0.00000000000E+00  0.10559998763E+01  0.10560000000E+01  0.51109989000E-03 0.  1.
     -623   -1    0    0    0    0  0.00000000000E+00  0.00000000000E+00  0.47855275298E-10  0.17124000000E+03  0.17124000000E+03 0. -1.
       11    1    1    2    0    0  0.13039261060E-03 -0.15792730907E-02  0.90188945228E+00  0.90189098924E+00  0.51109989000E-03 0.  1.
     -623    1    1    2    0    0  0.23498638881E-04 -0.47689695012E-04  0.10078507714E-04  0.17124000000E+03  0.17124000000E+03 0. -1.
       22    1    1    2    0    0 -0.15389124999E-03  0.16269627867E-02  0.15410036852E+00  0.15410903371E+00  0.00000000000E+00 0. -1.
</event>
<event>
 5   1  0.2192208E+09  0.9118800E+02  0.7818608E-02  0.1180000E+00
       11   -1    0    0    0    0  0.00000000000E+00  0.00000000000E+00  0.10559998763E+01  0.10560000000E+01  0.51109989000E-03 0.  1.
     -623   -1    0    0    0    0  0.00000000000E+00  0.00000000000E+00  0.47855275298E-10  0.17124000000E+03  0.17124000000E+03 0. -1.
       11    1    1    2    0    0  0.46457742508E-02 -0.58076362646E-02  0.75984899758E+00  0.75988556521E+00  0.51109989000E-03 0.  1.
     -623    1    1    2    0    0 -0.22124973300E-02  0.15067183762E-02  0.77699714342E-04  0.17124000002E+03  0.17124000000E+03 0. -1.
       22    1    1    2    0    0 -0.24332769069E-02  0.43009178788E-02  0.29607318572E+00  0.29611442051E+00  0.00000000000E+00 0.  1.
</event>
<event>
 5   1  0.2192208E+09  0.9118800E+02  0.7818608E-02  0.1180000E+00
       11   -1    0    0    0    0  0.00000000000E+00  0.00000000000E+00  0.10559998763E+01  0.10560000000E+01  0.51109989000E-03 0.  1.
     -623   -1    0    0    0    0  0.00000000000E+00  0.00000000000E+00  0.47855275298E-10  0.17124000000E+03  0.17124000000E+03 0.  1.
       11    1    1    2    0    0 -0.18251403821E-03 -0.23024462797E-02  0.82750906768E+00  0.82751244878E+00  0.51109989000E-03 0.  1.
     -623    1    1    2    0    0 -0.14872570267E-03 -0.21338227573E-04  0.15314727309E-04  0.17124000000E+03  0.17124000000E+03 0.  1.
       22    1    1    2    0    0  0.33123974321E-03  0.23237845076E-02  0.22847551054E+00  0.22848756774E+00  0.00000000000E+00 0.  1.
</event>
<event>
 5   1  0.2192208E+09  0.9118800E+02  0.7818608E-02  0.1180000E+00
       11   -1    0    0    0    0  0.00000000000E+00  0.00000000000E+00  0.10559998763E+01  0.10560000000E+01  0.51109989000E-03 0. -1.
     -623   -1    0    0    0    0  0.00000000000E+00  0.00000000000E+00  0.47855275298E-10  0.17124000000E+03  0.17124000000E+03 0.  1.
       11    1    1    2    0    0 -0.24546756318E-01  0.10104690998E-01  0.88299821122E+00  0.88339727771E+00  0.51109989000E-03 0. -1.
     -623    1    1    2    0    0  0.29523286233E-01 -0.12551494247E-01  0.49105834868E-03  0.17124000301E+03  0.17124000000E+03 0.  1.
       22    1    1    2    0    0 -0.49765204276E-02  0.24467992160E-02  0.17251026761E+00  0.17259937721E+00  0.00000000000E+00 0. -1.
</event>
<event>
 5   1  0.2192208E+09  0.9118800E+02  0.7818608E-02  0.1180000E+00
       11   -1    0    0    0    0  0.00000000000E+00  0.00000000000E+00  0.10559998763E+01  0.10560000000E+01  0.51109989000E-03 0.  1.
     -623   -1    0    0    0    0  0.00000000000E+00  0.00000000000E+00  0.47855275298E-10  0.17124000000E+03  0.17124000000E+03 0.  1.
       11    1    1    2    0    0  0.13202021259E-02 -0.18437942289E-02  0.95074796558E+00  0.95075080741E+00  0.51109989000E-03 0.  1.
     -623    1    1    2    0    0 -0.83792551088E-04 -0.88587780583E-04  0.27722864182E-04  0.17124000000E+03  0.17124000000E+03 0.  1.
       22    1    1    2    0    0 -0.12364095740E-02  0.19323820104E-02  0.10522419829E+00  0.10524920292E+00  0.00000000000E+00 0. -1.
</event>
<event>
 5   1  0.2192208E+09  0.9118800E+02  0.7818608E-02  0.1180000E+00
       11   -1    0    0    0    0  0.00000000000E+00  0.00000000000E+00  0.10559998763E+01  0.10560000000E+01  0.51109989000E-03 0. -1.
     -623   -1    0    0    0    0  0.00000000000E+00  0.00000000000E+00  0.47855275298E-10  0.17124000000E+03  0.17124000000E+03 0.  1.
       11    1    1    2    0    0  0.36149604314E-02  0.11594209068E-01  0.94475067026E+00  0.94482886482E+00  0.51109989000E-03 0. -1.
     -623    1    1    2    0    0 -0.38956748612E-02 -0.12868930525E-01  0.86261699449E-04  0.17124000053E+03  0.17124000000E+03 0.  1.
       22    1    1    2    0    0  0.28071689271E-03  0.12747295927E-02  0.11116361198E+00  0.11117127492E+00  0.00000000000E+00 0. -1.
</event>
<event>
 5   1  0.2192208E+09  0.9118800E+02  0.7818608E-02  0.1180000E+00
       11   -1    0    0    0    0  0.00000000000E+00  0.00000000000E+00  0.10559998763E+01  0.10560000000E+01  0.51109989000E-03 0. -1.
     -623   -1    0    0    0    0  0.00000000000E+00  0.00000000000E+00  0.47855275298E-10  0.17124000000E+03  0.17124000000E+03 0.  1.
       11    1    1    2    0    0 -0.77637616286E-03 -0.14156738546E-02  0.90314428848E+00  0.90314587633E+00  0.51109989000E-03 0. -1.
     -623    1    1    2    0    0  0.10468918452E-03 -0.12600990345E-03  0.10715064708E-04  0.17124000000E+03  0.17124000000E+03 0.  1.
       22    1    1    2    0    0  0.67168697915E-03  0.15416837571E-02  0.15284486477E+00  0.15285411554E+00  0.00000000000E+00 0.  1.
</event>
<event>
 5   1  0.2192208E+09  0.9118800E+02  0.7818608E-02  0.1180000E+00
       11   -1    0    0    0    0  0.00000000000E+00  0.00000000000E+00  0.10559998763E+01  0.10560000000E+01  0.51109989000E-03 0.  1.
     -623   -1    0    0    0    0  0.00000000000E+00  0.00000000000E+00  0.47855275298E-10  0.17124000000E+03  0.17124000000E+03 0.  1.
       11    1    1    2    0    0 -0.60311647546E-03 -0.16172257710E-01  0.97122549151E+00  0.97136044919E+00  0.51109989000E-03 0.  1.
     -623    1    1    2    0    0  0.83236986875E-03  0.17229799283E-01  0.14262057590E-03  0.17124000087E+03  0.17124000000E+03 0.  1.
       22    1    1    2    0    0 -0.22925324935E-03 -0.10575385937E-02  0.84631581692E-01  0.84638499305E-01  0.00000000000E+00 0. -1.
</event>
<event>
 5   1  0.2192208E+09  0.9118800E+02  0.7818608E-02  0.1180000E+00
       11   -1    0    0    0    0  0.00000000000E+00  0.00000000000E+00  0.10559998763E+01  0.10560000000E+01  0.51109989000E-03 0. -1.
     -623   -1    0    0    0    0  0.00000000000E+00  0.00000000000E+00  0.47855275298E-10  0.17124000000E+03  0.17124000000E+03 0. -1.
       11    1    1    2    0    0 -0.18572271325E-02 -0.48551960747E-02  0.98176720732E+00  0.98178110229E+00  0.51109989000E-03 0. -1.
     -623    1    1    2    0    0  0.97612005515E-03  0.37160191859E-02  0.27788439866E-04  0.17124000004E+03  0.17124000000E+03 0. -1.
       22    1    1    2    0    0  0.88110707688E-03  0.11391768870E-02  0.74204881133E-01  0.74218855136E-01  0.00000000000E+00 0. -1.
</event>
<event>
 5   1  0.2192208E+09  0.9118800E+02  0.7818608E-02  0.1180000E+00
       11   -1    0    0    0    0  0.00000000000E+00  0.00000000000E+00  0.10559998763E+01  0.10560000000E+01  0.51109989000E-03 0.  1.
     -623   -1    0    0    0    0  0.00000000000E+00  0.00000000000E+00  0.47855275298E-10  0.17124000000E+03  0.17124000000E+03 0. -1.
       11    1    1    2    0    0  0.78507548168E-02 -0.32336148750E-01  0.90493197428E+00  0.90554370418E+00  0.51109989000E-03 0.  1.
     -623    1    1    2    0    0  0.46859176095E-02  0.29702999130E-01  0.11605985042E-02  0.17124000264E+03  0.17124000000E+03 0. -1.
       22    1    1    2    0    0 -0.12536672424E-01  0.26331496338E-02  0.14990730308E+00  0.15045365117E+00  0.00000000000E+00 0. -1.
</event>
<event>
 5   1  0.2192208E+09  0.9118800E+02  0.7818608E-02  0.1180000E+00
       11   -1    0    0    0    0  0.00000000000E+00  0.00000000000E+00  0.10559998763E+01  0.10560000000E+01  0.51109989000E-03 0.  1.
     -623   -1    0    0    0    0  0.00000000000E+00  0.00000000000E+00  0.47855275298E-10  0.17124000000E+03  0.17124000000E+03 0.  1.
       11    1    1    2    0    0 -0.21998172993E-02  0.21841862282E-01  0.67784692036E+00  0.67820248806E+00  0.51109989000E-03 0.  1.
     -623    1    1    2    0    0  0.10525334517E-02 -0.26691131511E-01  0.39039325366E-03  0.17124000208E+03  0.17124000000E+03 0.  1.
       22    1    1    2    0    0  0.11472838476E-02  0.48492692282E-02  0.37776256269E+00  0.37779542803E+00  0.00000000000E+00 0. -1.
</event>
<event>
 5   1  0.2192208E+09  0.9118800E+02  0.7818608E-02  0.1180000E+00
       11   -1    0    0    0    0  0.00000000000E+00  0.00000000000E+00  0.10559998763E+01  0.10560000000E+01  0.51109989000E-03 0. -1.
     -623   -1    0    0    0    0  0.00000000000E+00  0.00000000000E+00  0.47855275298E-10  0.17124000000E+03  0.17124000000E+03 0. -1.
       11    1    1    2    0    0 -0.75863422506E-03  0.10203035230E-01  0.88573356553E+00  0.88579280183E+00  0.51109989000E-03 0. -1.
     -623    1    1    2    0    0  0.84951142502E-03 -0.12003251539E-01  0.69080129723E-04  0.17124000042E+03  0.17124000000E+03 0. -1.
       22    1    1    2    0    0 -0.90879053775E-04  0.18002425027E-02  0.17019953497E+00  0.17020907977E+00  0.00000000000E+00 0. -1.
</event>
<event>
 5   1  0.2192208E+09  0.9118800E+02  0.7818608E-02  0.1180000E+00
       11   -1    0    0    0    0  0.00000000000E+00  0.00000000000E+00  0.10559998763E+01  0.10560000000E+01  0.51109989000E-03 0.  1.
     -623   -1    0    0    0    0  0.00000000000E+00  0.00000000000E+00  0.47855275298E-10  0.17124000000E+03  0.17124000000E+03 0. -1.
       11    1    1    2    0    0 -0.35220428680E-02 -0.59335507331E-02  0.76912044114E+00  0.76915156245E+00  0.51109989000E-03 0.  1.
     -623    1    1    2    0    0  0.30808603583E-02  0.88716725769E-02  0.46642156517E-04  0.17124000026E+03  0.17124000000E+03 0. -1.
       22    1    1    2    0    0  0.44118257545E-03 -0.29381216544E-02  0.28683277053E+00  0.28684815748E+00  0.00000000000E+00 0.  1.
</event>
<event>
 5   1  0.2192208E+09  0.9118800E+02  0.7818608E-02  0.1180000E+00
       11   -1    0    0    0    0  0.00000000000E+00  0.00000000000E+00  0.10559998763E+01  0.10560000000E+01  0.51109989000E-03 0.  1.
     -623   -1    0    0    0    0  0.00000000000E+00  0.00000000000E+00  0.47855275298E-10  0.17124000000E+03  0.17124000000E+03 0.  1.
       11    1    1    2    0    0  0.27689510244E-02  0.36360128801E-02  0.90873573253E+00  0.90874736890E+00  0.51109989000E-03 0.  1.
     -623    1    1    2    0    0  0.25302358314E-02 -0.16777289511E-02  0.11995206522E-03  0.17124000003E+03  0.17124000000E+03 0.  1.
       22    1    1    2    0    0 -0.52991868562E-02 -0.19582839287E-02  0.14714419194E+00  0.14725260432E+00  0.00000000000E+00 0.  1.
</event>
<event>
 5   1  0.2192208E+09  0.9118800E+02  0.7818608E-02  0.1180000E+00
       11   -1    0    0    0    0  0.00000000000E+00  0.00000000000E+00  0.10559998763E+01  0.10560000000E+01  0.51109989000E-03 0. -1.
     -623   -1    0    0    0    0  0.00000000000E+00  0.00000000000E+00  0.47855275298E-10  0.17124000000E+03  0.17124000000E+03 0. -1.
       11    1    1    2    0    0 -0.64934443790E-02 -0.37831653052E-02  0.99794106590E+00  0.99796949322E+00  0.51109989000E-03 0. -1.
     -623    1    1    2    0    0  0.65140423362E-02  0.44189762449E-02  0.31971499922E-04  0.17124000018E+03  0.17124000000E+03 0. -1.
       22    1    1    2    0    0 -0.20597998713E-04 -0.63581096782E-03  0.58026845686E-01  0.58030332587E-01  0.00000000000E+00 0.  1.
</event>
<event>
 5   1  0.2192208E+09  0.9118800E+02  0.7818608E-02  0.1180000E+00
       11   -1    0    0    0    0  0.00000000000E+00  0.00000000000E+00  0.10559998763E+01  0.10560000000E+01  0.51109989000E-03 0.  1.
     -623   -1    0    0    0    0  0.00000000000E+00  0.00000000000E+00  0.47855275298E-10  0.17124000000E+03  0.17124000000E+03 0.  1.
       11    1    1    2    0    0  0.79867005590E-02 -0.10836192293E-01  0.48835104585E+00  0.48853681096E+00  0.51109989000E-03 0.  1.
     -623    1    1    2    0    0 -0.18486271535E-01  0.23185086806E-01  0.41975833264E-03  0.17124000257E+03  0.17124000000E+03 0.  1.
       22    1    1    2    0    0  0.10499572089E-01 -0.12348895909E-01  0.56722913574E+00  0.56746068470E+00  0.00000000000E+00 0.  1.
</event>
<event>
 5   1  0.2192208E+09  0.9118800E+02  0.7818608E-02  0.1180000E+00
       11   -1    0    0    0    0  0.00000000000E+00  0.00000000000E+00  0.10559998763E+01  0.10560000000E+01  0.51109989000E-03 0.  1.
     -623   -1    0    0    0    0  0.00000000000E+00  0.00000000000E+00  0.47855275298E-10  0.17124000000E+03  0.17124000000E+03 0.  1.
       11    1    1    2    0    0  0.18826070077E-01 -0.18385625684E-01  0.78689756927E+00  0.78733760097E+00  0.51109989000E-03 0.  1.
     -623    1    1    2    0    0 -0.25232227089E-01  0.25235408806E-01  0.60737659129E-03  0.17124000372E+03  0.17124000000E+03 0.  1.
       22    1    1    2    0    0  0.64061758777E-02 -0.68498019912E-02  0.26849571961E+00  0.26865946908E+00  0.00000000000E+00 0.  1.
</event>
<event>
 5   1  0.2192208E+09  0.9118800E+02  0.7818608E-02  0.1180000E+00
       11   -1    0    0    0    0  0.00000000000E+00  0.00000000000E+00  0.10559998763E+01  0.10560000000E+01  0.51109989000E-03 0. -1.
     -623   -1    0    0    0    0  0.00000000000E+00  0.00000000000E+00  0.47855275298E-10  0.17124000000E+03  0.17124000000E+03 0. -1.
       11    1    1    2    0    0 -0.34226969155E-03 -0.16950991718E-02  0.94737196300E+00  0.94737367918E+00  0.51109989000E-03 0. -1.
     -623    1    1    2    0    0 -0.24386221019E-05  0.11757206236E-03  0.13595023138E-04  0.17124000000E+03  0.17124000000E+03 0. -1.
       22    1    1    2    0    0  0.34470831357E-03  0.15775271135E-02  0.10861428195E+00  0.10862628438E+00  0.00000000000E+00 0.  1.
</event>
<event>
 5   1  0.2192208E+09  0.9118800E+02  0.7818608E-02  0.1180000E+00
       11   -1    0    0    0    0  0.00000000000E+00  0.00000000000E+00  0.10559998763E+01  0.10560000000E+01  0.51109989000E-03 0.  1.
     -623   -1    0    0    0    0  0.00000000000E+00  0.00000000000E+00  0.47855275298E-10  0.17124000000E+03  0.17124000000E+03 0.  1.
       11    1    1    2    0    0  0.41272181177E-02 -0.21415664111E-01  0.96648404153E+00  0.96673022522E+00  0.51109989000E-03 0.  1.
     -623    1    1    2    0    0 -0.45440066650E-02  0.23516532712E-01  0.27343332499E-03  0.17124000168E+03  0.17124000000E+03 0.  1.
       22    1    1    2    0    0  0.41679449757E-03 -0.21008993953E-02  0.89243783959E-01  0.89269482307E-01  0.00000000000E+00 0.  1.
</event>
<event>
 5   1  0.2192208E+09  0.9118800E+02  0.7818608E-02  0.1180000E+00
       11   -1    0    0    0    0  0.00000000000E+00  0.00000000000E+00  0.10559998763E+01  0.10560000000E+01  0.51109989000E-03 0.  1.
     -623   -1    0    0    0    0  0.00000000000E+00  0.00000000000E+00  0.47855275298E-10  0.17124000000E+03  0.17124000000E+03 0. -1.
       11    1    1    2    0    0  0.23207366041E-02  0.25930250836E-02  0.98895898587E+00  0.98896524032E+00  0.51109989000E-03 0.  1.
     -623    1    1    2    0    0 -0.25331347275E-03 -0.10575624111E-02  0.55618549577E-04  0.17124000000E+03  0.17124000000E+03 0. -1.
       22    1    1    2    0    0 -0.20674231320E-02 -0.15354626755E-02  0.66985268902E-01  0.67034753180E-01  0.00000000000E+00 0. -1.
</event>
<event>
 5   1  0.2192208E+09  0.9118800E+02  0.7818608E-02  0.1180000E+00
       11   -1    0    0    0    0  0.00000000000E+00  0.00000000000E+00  0.10559998763E+01  0.10560000000E+01  0.51109989000E-03 0. -1.
     -623   -1    0    0    0    0  0.00000000000E+00  0.00000000000E+00  0.47855275298E-10  0.17124000000E+03  0.17124000000E+03 0.  1.
       11    1    1    2    0    0  0.27329966698E-02 -0.75733288728E-02  0.67049083199E+00  0.67053936617E+00  0.51109989000E-03 0. -1.
     -623    1    1    2    0    0 -0.55403197633E-02  0.12943628975E-01  0.96625264393E-04  0.17124000058E+03  0.17124000000E+03 0.  1.
       22    1    1    2    0    0  0.28073234162E-02 -0.53703008565E-02  0.38541248060E+00  0.38546011648E+00  0.00000000000E+00 0. -1.
</event>
<event>
 5   1  0.2192208E+09  0.9118800E+02  0.7818608E-02  0.1180000E+00
       11   -1    0    0    0    0  0.00000000000E+00  0.00000000000E+00  0.10559998763E+01  0.10560000000E+01  0.51109989000E-03 0.  1.
     -623   -1    0    0    0    0  0.00000000000E+00  0.00000000000E+00  0.47855275298E-10  0.17124000000E+03  0.17124000000E+03 0. -1.
       11    1    1    2    0    0 -0.48917482516E-02 -0.90609882806E-02  0.39268048963E+00  0.39281580782E+00  0.51109989000E-03 0.  1.
     -623    1    1    2    0    0 -0.59109761329E-02  0.67577739114E-03  0.27630761284E-03  0.17124000010E+03  0.17124000000E+03 0. -1.
       22    1    1    2    0    0  0.10802724382E-01  0.83852108898E-02  0.66304307860E+00  0.66318408809E+00  0.00000000000E+00 0.  1.
</event>
<event>
 5   1  0.2192208E+09  0.9118800E+02  0.7818608E-02  0.1180000E+00
       11   -1    0    0    0    0  0.00000000000E+00  0.00000000000E+00  0.10559998763E+01  0.10560000000E+01  0.51109989000E-03 0. -1.
     -623   -1    0    0    0    0  0.00000000000E+00  0.00000000000E+00  0.47855275298E-10  0.17124000000E+03  0.17124000000E+03 0. -1.
       11    1    1    2    0    0 -0.10815284882E-02  0.33432052975E-02  0.88160763085E+00  0.88161478136E+00  0.51109989000E-03 0. -1.
     -623    1    1    2    0    0 -0.55771064788E-04  0.37100094709E-03  0.50295443893E-04  0.17124000000E+03  0.17124000000E+03 0. -1.
       22    1    1    2    0    0  0.11372995529E-02 -0.37142062440E-02  0.17434194854E+00  0.17438521669E+00  0.00000000000E+00 0.  1.
</event>
<event>
 5   1  0.2192208E+09  0.9118800E+02  0.7818608E-02  0.1180000E+00
       11   -1    0    0    0    0  0.00000000000E+00  0.00000000000E+00  0.10559998763E+01  0.10560000000E+01  0.51109989000E-03 0.  1.
     -623   -1    0    0    0    0  0.00000000000E+00  0.00000000000E+00  0.47855275298E-10  0.17124000000E+03  0.17124000000E+03 0.  1.
       11    1    1    2    0    0 -0.13696092290E-02 -0.71578946320E-02  0.82145563839E+00  0.82148812429E+00  0.51109989000E-03 0.  1.
     -623    1    1    2    0    0 -0.86731254702E-03  0.10233002648E-02  0.12329117773E-03  0.17124000001E+03  0.17124000000E+03 0.  1.
       22    1    1    2    0    0  0.22369217758E-02  0.61345943675E-02  0.23442094654E+00  0.23451187015E+00  0.00000000000E+00 0.  1.
</event>
<event>
 5   1  0.2192208E+09  0.9118800E+02  0.7818608E-02  0.1180000E+00
       11   -1    0    0    0    0  0.00000000000E+00  0.00000000000E+00  0.10559998763E+01  0.10560000000E+01  0.51109989000E-03 0. -1.
     -623   -1    0    0    0    0  0.00000000000E+00  0.00000000000E+00  0.47855275298E-10  0.17124000000E+03  0.17124000000E+03 0.  1.
       11    1    1    2    0    0 -0.42336052835E-01  0.14304779526E-01  0.90462003195E+00  0.90572326432E+00  0.51109989000E-03 0. -1.
     -623    1    1    2    0    0  0.49114389099E-01 -0.15965528354E-01  0.12730444761E-02  0.17124000779E+03  0.17124000000E+03 0.  1.
       22    1    1    2    0    0 -0.67783383387E-02  0.16607495024E-02  0.15010684449E+00  0.15026898789E+00  0.00000000000E+00 0. -1.
</event>
<event>
 5   1  0.2192208E+09  0.9118800E+02  0.7818608E-02  0.1180000E+00
       11   -1    0    0    0    0  0.00000000000E+00  0.00000000000E+00  0.10559998763E+01  0.10560000000E+01  0.51109989000E-03 0. -1.
     -623   -1    0    0    0    0  0.00000000000E+00  0.00000000000E+00  0.47855275298E-10  0.17124000000E+03  0.17124000000E+03 0. -1.
       11    1    1    2    0    0  0.22708288838E-01 -0.22099283194E-01  0.93822831162E+00  0.93876337308E+00  0.51109989000E-03 0. -1.
     -623    1    1    2    0    0 -0.13317240499E-01  0.19725689088E-01  0.93744069867E-03  0.17124000166E+03  0.17124000000E+03 0. -1.
       22    1    1    2    0    0 -0.93910483423E-02  0.23735941106E-02  0.11683412379E+00  0.11723497012E+00  0.00000000000E+00 0. -1.
</event>
<event>
 5   1  0.2192208E+09  0.9118800E+02  0.7818608E-02  0.1180000E+00
       11   -1    0    0    0    0  0.00000000000E+00  0.00000000000E+00  0.10559998763E+01  0.10560000000E+01  0.51109989000E-03 0. -1.
     -623   -1    0    0    0    0  0.00000000000E+00  0.00000000000E+00  0.47855275298E-10  0.17124000000E+03  0.17124000000E+03 0.  1.
       11    1    1    2    0    0 -0.39152590905E-02  0.12456140163E-01  0.10029065859E+01  0.10029917078E+01  0.51109989000E-03 0. -1.
     -623    1    1    2    0    0  0.41616121044E-02 -0.13144670335E-01  0.90597818584E-04  0.17124000056E+03  0.17124000000E+03 0.  1.
       22    1    1    2    0    0 -0.24635328512E-03  0.68853102888E-03  0.53002761447E-01  0.53007805896E-01  0.00000000000E+00 0.  1.
</event>
<event>
 5   1  0.2192208E+09  0.9118800E+02  0.7818608E-02  0.1180000E+00
       11   -1    0    0    0    0  0.00000000000E+00  0.00000000000E+00  0.10559998763E+01  0.10560000000E+01  0.51109989000E-03 0.  1.
     -623   -1    0    0    0    0  0.00000000000E+00  0.00000000000E+00  0.47855275298E-10  0.17124000000E+03  0.17124000000E+03 0. -1.
       11    1    1    2    0    0 -0.20019716662E-02  0.15063183614E-02  0.92373765062E+00  0.92374118956E+00  0.51109989000E-03 0.  1.
     -623    1    1    2    0    0  0.31139087422E-02  0.60891171681E-03  0.25035204166E-04  0.17124000003E+03  0.17124000000E+03 0. -1.
       22    1    1    2    0    0 -0.11119370612E-02 -0.21152300754E-02  0.13223718554E+00  0.13225877605E+00  0.00000000000E+00 0. -1.
</event>
<event>
 5   1  0.2192208E+09  0.9118800E+02  0.7818608E-02  0.1180000E+00
       11   -1    0    0    0    0  0.00000000000E+00  0.00000000000E+00  0.10559998763E+01  0.10560000000E+01  0.51109989000E-03 0.  1.
     -623   -1    0    0    0    0  0.00000000000E+00  0.00000000000E+00  0.47855275298E-10  0.17124000000E+03  0.17124000000E+03 0. -1.
       11    1    1    2    0    0  0.17389264121E-01  0.81343652147E-02  0.78248799212E+00  0.78272362519E+00  0.51109989000E-03 0.  1.
     -623    1    1    2    0    0 -0.20419290407E-01 -0.14538551773E-01  0.32919906425E-03  0.17124000183E+03  0.17124000000E+03 0. -1.
       22    1    1    2    0    0  0.30300263621E-02  0.64041866125E-02  0.27318268909E+00  0.27327454379E+00  0.00000000000E+00 0.  1.
</event>
<event>
 5   1  0.2192208E+09  0.9118800E+02  0.7818608E-02  0.1180000E+00
       11   -1    0    0    0    0  0.00000000000E+00  0.00000000000E+00  0.10559998763E+01  0.10560000000E+01  0.51109989000E-03 0. -1.
     -623   -1    0    0    0    0  0.00000000000E+00  0.00000000000E+00  0.47855275298E-10  0.17124000000E+03  0.17124000000E+03 0. -1.
       11    1    1    2    0    0  0.59835526134E-03 -0.64602166706E-03  0.96585442852E+00  0.96585496514E+00  0.51109989000E-03 0. -1.
     -623    1    1    2    0    0 -0.19424509663E-03 -0.53246677067E-03  0.90234545258E-05  0.17124000000E+03  0.17124000000E+03 0. -1.
       22    1    1    2    0    0 -0.40411015391E-03  0.11784884673E-02  0.90136483072E-01  0.90145092604E-01  0.00000000000E+00 0.  1.
</event>
<event>
 5   1  0.2192208E+09  0.9118800E+02  0.7818608E-02  0.1180000E+00
       11   -1    0    0    0    0  0.00000000000E+00  0.00000000000E+00  0.10559998763E+01  0.10560000000E+01  0.51109989000E-03 0. -1.
     -623   -1    0    0    0    0  0.00000000000E+00  0.00000000000E+00  0.47855275298E-10  0.17124000000E+03  0.17124000000E+03 0. -1.
       11    1    1    2    0    0  0.29665529828E-02  0.35565479479E-02  0.21404273305E+00  0.21409344284E+00  0.51109989000E-03 0.  1.
     -623    1    1    2    0    0 -0.13744110464E-01 -0.13527082219E-01  0.17970528599E-03  0.17124000109E+03  0.17124000000E+03 0. -1.
       22    1    1    2    0    0  0.10777558584E-01  0.99705353570E-02  0.84177752280E+00  0.84190555601E+00  0.00000000000E+00 0. -1.
</event>
<event>
 5   1  0.2192208E+09  0.9118800E+02  0.7818608E-02  0.1180000E+00
       11   -1    0    0    0    0  0.00000000000E+00  0.00000000000E+00  0.10559998763E+01  0.10560000000E+01  0.51109989000E-03 0. -1.
     -623   -1    0    0    0    0  0.00000000000E+00  0.00000000000E+00  0.47855275298E-10  0.17124000000E+03  0.17124000000E+03 0.  1.
       11    1    1    2    0    0 -0.11275138851E-02  0.70903208748E-03  0.99608543602E+00  0.99608645764E+00  0.51109989000E-03 0. -1.
     -623    1    1    2    0    0 -0.12645162851E-03  0.68920781802E-05  0.18300441093E-04  0.17124000000E+03  0.17124000000E+03 0.  1.
       22    1    1    2    0    0  0.12539655115E-02 -0.71592416554E-03  0.59896122378E-01  0.59913524791E-01  0.00000000000E+00 0. -1.
</event>
<event>
 5   1  0.2192208E+09  0.9118800E+02  0.7818608E-02  0.1180000E+00
       11   -1    0    0    0    0  0.00000000000E+00  0.00000000000E+00  0.10559998763E+01  0.10560000000E+01  0.51109989000E-03 0. -1.
     -623   -1    0    0    0    0  0.00000000000E+00  0.00000000000E+00  0.47855275298E-10  0.17124000000E+03  0.17124000000E+03 0.  1.
       11    1    1    2    0    0 -0.56496533399E-02 -0.10631823801E-01  0.99692159364E+00  0.99699442292E+00  0.51109989000E-03 0. -1.
     -623    1    1    2    0    0  0.59109334905E-02  0.11313626164E-01  0.77699190296E-04  0.17124000048E+03  0.17124000000E+03 0.  1.
       22    1    1    2    0    0 -0.26127451307E-03 -0.68179157295E-03  0.58999576457E-01  0.59004094148E-01  0.00000000000E+00 0. -1.
</event>
<event>
 5   1  0.2192208E+09  0.9118800E+02  0.7818608E-02  0.1180000E+00
       11   -1    0    0    0    0  0.00000000000E+00  0.00000000000E+00  0.10559998763E+01  0.10560000000E+01  0.51109989000E-03 0. -1.
     -623   -1    0    0    0    0  0.00000000000E+00  0.00000000000E+00  0.47855275298E-10  0.17124000000E+03  0.17124000000E+03 0.  1.
       11    1    1    2    0    0  0.10336451345E-01 -0.41752990917E-03  0.98017389900E+00  0.98022862133E+00  0.51109989000E-03 0. -1.
     -623    1    1    2    0    0 -0.11559936154E-01  0.12059633054E-02  0.68974334418E-04  0.17124000039E+03  0.17124000000E+03 0.  1.
       22    1    1    2    0    0  0.12234842393E-02 -0.78843333682E-03  0.75756950986E-01  0.75770932181E-01  0.00000000000E+00 0. -1.
</event>
<event>
 5   1  0.2192208E+09  0.9118800E+02  0.7818608E-02  0.1180000E+00
       11   -1    0    0    0    0  0.00000000000E+00  0.00000000000E+00  0.10559998763E+01  0.10560000000E+01  0.51109989000E-03 0.  1.
     -623   -1    0    0    0    0  0.00000000000E+00  0.00000000000E+00  0.47855275298E-10  0.17124000000E+03  0.17124000000E+03 0. -1.
       11    1    1    2    0    0 -0.12479009941E-01 -0.17861306448E-01  0.10026111233E+01  0.10028479834E+01  0.51109989000E-03 0.  1.
     -623    1    1    2    0    0  0.13033986382E-01  0.18649332004E-01  0.24698807484E-03  0.17124000151E+03  0.17124000000E+03 0. -1.
       22    1    1    2    0    0 -0.55497169770E-03 -0.78801876962E-03  0.53141380780E-01  0.53150120587E-01  0.00000000000E+00 0. -1.
</event>
<event>
 5   1  0.2192208E+09  0.9118800E+02  0.7818608E-02  0.1180000E+00
       11   -1    0    0    0    0  0.00000000000E+00  0.00000000000E+00  0.10559998763E+01  0.10560000000E+01  0.51109989000E-03 0.  1.
     -623   -1    0    0    0    0  0.00000000000E+00  0.00000000000E+00  0.47855275298E-10  0.17124000000E+03  0.17124000000E+03 0.  1.
       11    1    1    2    0    0  0.75706463892E-03  0.89115535963E-03  0.98313902566E+00  0.98313985389E+00  0.51109989000E-03 0.  1.
     -623    1    1    2    0    0  0.72997636929E-04  0.25617915990E-03  0.14467943766E-04  0.17124000000E+03  0.17124000000E+03 0.  1.
       22    1    1    2    0    0 -0.83006227554E-03 -0.11473345184E-02  0.72846378209E-01  0.72860141353E-01  0.00000000000E+00 0. -1.
</event>
<event>
 5   1  0.2192208E+09  0.9118800E+02  0.7818608E-02  0.1180000E+00
       11   -1    0    0    0    0  0.00000000000E+00  0.00000000000E+00  0.10559998763E+01  0.10560000000E+01  0.51109989000E-03 0.  1.
     -623   -1    0    0    0    0  0.00000000000E+00  0.00000000000E+00  0.47855275298E-10  0.17124000000E+03  0.17124000000E+03 0. -1.
       11    1    1    2    0    0  0.22938114413E-02  0.11061537906E-01  0.71813697541E+00  0.71822600612E+00  0.51109989000E-03 0.  1.
     -623    1    1    2    0    0 -0.28924415450E-02 -0.15597107129E-01  0.12062522950E-03  0.17124000073E+03  0.17124000000E+03 0. -1.
       22    1    1    2    0    0  0.59862936156E-03  0.45355652212E-02  0.33774200480E+00  0.33777298814E+00  0.00000000000E+00 0. -1.
</event>
<event>
 5   1  0.2192208E+09  0.9118800E+02  0.7818608E-02  0.1180000E+00
       11   -1    0    0    0    0  0.00000000000E+00  0.00000000000E+00  0.10559998763E+01  0.10560000000E+01  0.51109989000E-03 0.  1.
     -623   -1    0    0    0    0  0.00000000000E+00  0.00000000000E+00  0.47855275298E-10  0.17124000000E+03  0.17124000000E+03 0. -1.
       11    1    1    2    0    0  0.23478844785E-03 -0.62154891260E-02  0.78555021242E+00  0.78557500271E+00  0.51109989000E-03 0.  1.
     -623    1    1    2    0    0 -0.85368358591E-03  0.32563342017E-02  0.41598920298E-04  0.17124000003E+03  0.17124000000E+03 0. -1.
       22    1    1    2    0    0  0.61889513518E-03  0.29591549353E-02  0.27040806146E+00  0.27042496063E+00  0.00000000000E+00 0.  1.
</event>
<event>
 5   1  0.2192208E+09  0.9118800E+02  0.7818608E-02  0.1180000E+00
       11   -1    0    0    0    0  0.00000000000E+00  0.00000000000E+00  0.10559998763E+01  0.10560000000E+01  0.51109989000E-03 0. -1.
     -623   -1    0    0    0    0  0.00000000000E+00  0.00000000000E+00  0.47855275298E-10  0.17124000000E+03  0.17124000000E+03 0.  1.
       11    1    1    2    0    0 -0.19222435812E-01  0.97773954305E-02  0.86711989360E+00  0.86738818911E+00  0.51109989000E-03 0. -1.
     -623    1    1    2    0    0  0.23599193509E-01 -0.12391911277E-01  0.33916270832E-03  0.17124000207E+03  0.17124000000E+03 0.  1.
       22    1    1    2    0    0 -0.43767442656E-02  0.26145087938E-02  0.18854021921E+00  0.18860913500E+00  0.00000000000E+00 0.  1.
</event>
<event>
 5   1  0.2192208E+09  0.9118800E+02  0.7818608E-02  0.1180000E+00
       11   -1    0    0    0    0  0.00000000000E+00  0.00000000000E+00  0.10559998763E+01  0.10560000000E+01  0.51109989000E-03 0.  1.
     -623   -1    0    0    0    0  0.00000000000E+00  0.00000000000E+00  0.47855275298E-10  0.17124000000E+03  0.17124000000E+03 0.  1.
       11    1    1    2    0    0 -0.59157684998E-03  0.19889217657E-02  0.86571103441E+00  0.86571367212E+00  0.51109989000E-03 0.  1.
     -623    1    1    2    0    0 -0.13886445871E-04 -0.56457107015E-04  0.13290269114E-04  0.17124000000E+03  0.17124000000E+03 0.  1.
       22    1    1    2    0    0  0.60546329584E-03 -0.19324646588E-02  0.19027555048E+00  0.19028632666E+00  0.00000000000E+00 0.  1.
</event>
<event>
 5   1  0.2192208E+09  0.9118800E+02  0.7818608E-02  0.1180000E+00
       11   -1    0    0    0    0  0.00000000000E+00  0.00000000000E+00  0.10559998763E+01  0.10560000000E+01  0.51109989000E-03 0.  1.
     -623   -1    0    0    0    0  0.00000000000E+00  0.00000000000E+00  0.47855275298E-10  0.17124000000E+03  0.17124000000E+03 0. -1.
       11    1    1    2    0    0  0.66743742069E-03 -0.65748221646E-02  0.97763327046E+00  0.97765574028E+00  0.51109989000E-03 0.  1.
     -623    1    1    2    0    0 -0.10172608749E-02  0.74793601897E-02  0.28515555395E-04  0.17124000017E+03  0.17124000000E+03 0. -1.
       22    1    1    2    0    0  0.34982356366E-03 -0.90453882994E-03  0.78338203976E-01  0.78344206992E-01  0.00000000000E+00 0. -1.
</event>
<event>
 5   1  0.2192208E+09  0.9118800E+02  0.7818608E-02  0.1180000E+00
       11   -1    0    0    0    0  0.00000000000E+00  0.00000000000E+00  0.10559998763E+01  0.10560000000E+01  0.51109989000E-03 0. -1.
     -623   -1    0    0    0    0  0.00000000000E+00  0.00000000000E+00  0.47855275298E-10  0.17124000000E+03  0.17124000000E+03 0.  1.
       11    1    1    2    0    0  0.19908154069E-02 -0.98945751351E-02  0.60085445303E+00  0.60093943198E+00  0.51109989000E-03 0. -1.
     -623    1    1    2    0    0  0.37150271771E-02 -0.64157983387E-02  0.41320639222E-03  0.17124000016E+03  0.17124000000E+03 0.  1.
       22    1    1    2    0    0 -0.57058425827E-02  0.16310373472E-01  0.45473221657E+00  0.45506040666E+00  0.00000000000E+00 0.  1.
</event>
<event>
 5   1  0.2192208E+09  0.9118800E+02  0.7818608E-02  0.1180000E+00
       11   -1    0    0    0    0  0.00000000000E+00  0.00000000000E+00  0.10559998763E+01  0.10560000000E+01  0.51109989000E-03 0. -1.
     -623   -1    0    0    0    0  0.00000000000E+00  0.00000000000E+00  0.47855275298E-10  0.17124000000E+03  0.17124000000E+03 0. -1.
       11    1    1    2    0    0 -0.31458469939E-02  0.47159720278E-03  0.92278653485E+00  0.92279215909E+00  0.51109989000E-03 0. -1.
     -623    1    1    2    0    0  0.37539519879E-02 -0.24005127980E-02  0.20913322151E-04  0.17124000006E+03  0.17124000000E+03 0. -1.
       22    1    1    2    0    0 -0.60810503155E-03  0.19289156192E-02  0.13319243876E+00  0.13320779350E+00  0.00000000000E+00 0.  1.
</event>
<event>
 5   1  0.2192208E+09  0.9118800E+02  0.7818608E-02  0.1180000E+00
       11   -1    0    0    0    0  0.00000000000E+00  0.00000000000E+00  0.10559998763E+01  0.10560000000E+01  0.51109989000E-03 0. -1.
     -623   -1    0    0    0    0  0.00000000000E+00  0.00000000000E+00  0.47855275298E-10  0.17124000000E+03  0.17124000000E+03 0. -1.
       11    1    1    2    0    0  0.70599364534E-03  0.86631041260E-02  0.77544265833E+00  0.77549153792E+00  0.51109989000E-03 0. -1.
     -623    1    1    2    0    0 -0.25992465426E-02 -0.12324558420E-01  0.79506351212E-04  0.17124000046E+03  0.17124000000E+03 0. -1.
       22    1    1    2    0    0  0.18932530789E-02  0.36614551547E-02  0.28047778545E+00  0.28050807260E+00  0.00000000000E+00 0. -1.
</event>
<event>
 5   1  0.2192208E+09  0.9118800E+02  0.7818608E-02  0.1180000E+00
       11   -1    0    0    0    0  0.00000000000E+00  0.00000000000E+00  0.10559998763E+01  0.10560000000E+01  0.51109989000E-03 0.  1.
     -623   -1    0    0    0    0  0.00000000000E+00  0.00000000000E+00  0.47855275298E-10  0.17124000000E+03  0.17124000000E+03 0. -1.
       11    1    1    2    0    0 -0.79351012162E-03 -0.18001518284E-02  0.88145769257E+00  0.88146003609E+00  0.51109989000E-03 0.  1.
     -623    1    1    2    0    0  0.42639838349E-05  0.51998211120E-04  0.12759196729E-04  0.17124000000E+03  0.17124000000E+03 0. -1.
       22    1    1    2    0    0  0.78924613766E-03  0.17481536158E-02  0.17452945375E+00  0.17453999306E+00  0.00000000000E+00 0.  1.
</event>
<event>
 5   1  0.2192208E+09  0.9118800E+02  0.7818608E-02  0.1180000E+00
       11   -1    0    0    0    0  0.00000000000E+00  0.00000000000E+00  0.10559998763E+01  0.10560000000E+01  0.51109989000E-03 0. -1.
     -623   -1    0    0    0    0  0.00000000000E+00  0.00000000000E+00  0.47855275298E-10  0.17124000000E+03  0.17124000000E+03 0. -1.
       11    1    1    2    0    0 -0.13006522058E-01  0.91775825481E-02  0.99330158203E+00  0.99342925854E+00  0.51109989000E-03 0. -1.
     -623    1    1    2    0    0  0.13679048536E-01 -0.98099429169E-02  0.13519040364E-03  0.17124000083E+03  0.17124000000E+03 0. -1.
       22    1    1    2    0    0 -0.67252516101E-03  0.63235942436E-03  0.62563002273E-01  0.62569812385E-01  0.00000000000E+00 0. -1.
</event>
<event>
 5   1  0.2192208E+09  0.9118800E+02  0.7818608E-02  0.1180000E+00
       11   -1    0    0    0    0  0.00000000000E+00  0.00000000000E+00  0.10559998763E+01  0.10560000000E+01  0.51109989000E-03 0.  1.
     -623   -1    0    0    0    0  0.00000000000E+00  0.00000000000E+00  0.47855275298E-10  0.17124000000E+03  0.17124000000E+03 0. -1.
       11    1    1    2    0    0 -0.13967303547E-02 -0.22573595213E-02  0.99676958929E+00  0.99677325501E+00  0.51109989000E-03 0.  1.
     -623    1    1    2    0    0 -0.23738557506E-03  0.22391802484E-04  0.68290090056E-04  0.17124000000E+03  0.17124000000E+03 0. -1.
       22    1    1    2    0    0  0.16341159308E-02  0.22349677187E-02  0.59162001623E-01  0.59226749460E-01  0.00000000000E+00 0. -1.
</event>
<event>
 5   1  0.2192208E+09  0.9118800E+02  0.7818608E-02  0.1180000E+00
       11   -1    0    0    0    0  0.00000000000E+00  0.00000000000E+00  0.10559998763E+01  0.10560000000E+01  0.51109989000E-03 0. -1.
     -623   -1    0    0    0    0  0.00000000000E+00  0.00000000000E+00  0.47855275298E-10  0.17124000000E+03  0.17124000000E+03 0.  1.
       11    1    1    2    0    0  0.22176829717E-02 -0.11692564493E-01  0.97263822711E+00  0.97271116794E+00  0.51109989000E-03 0. -1.
     -623    1    1    2    0    0 -0.21034076699E-02  0.12596389011E-01  0.78276011470E-04  0.17124000048E+03  0.17124000000E+03 0.  1.
       22    1    1    2    0    0 -0.11427556428E-03 -0.90382294658E-03  0.83283241475E-01  0.83288224050E-01  0.00000000000E+00 0. -1.
</event>
<event>
 5   1  0.2192208E+09  0.9118800E+02  0.7818608E-02  0.1180000E+00
       11   -1    0    0    0    0  0.00000000000E+00  0.00000000000E+00  0.10559998763E+01  0.10560000000E+01  0.51109989000E-03 0. -1.
     -623   -1    0    0    0    0  0.00000000000E+00  0.00000000000E+00  0.47855275298E-10  0.17124000000E+03  0.17124000000E+03 0.  1.
       11    1    1    2    0    0 -0.20217508363E-01 -0.15524661480E-01  0.94358180778E+00  0.94392618988E+00  0.51109989000E-03 0. -1.
     -623    1    1    2    0    0  0.22391320164E-01  0.17491833172E-01  0.38496985063E-03  0.17124000236E+03  0.17124000000E+03 0.  1.
       22    1    1    2    0    0 -0.21738132346E-02 -0.19671728121E-02  0.11203316632E+00  0.11207151997E+00  0.00000000000E+00 0. -1.
</event>
<event>
 5   1  0.2192208E+09  0.9118800E+02  0.7818608E-02  0.1180000E+00
       11   -1    0    0    0    0  0.00000000000E+00  0.00000000000E+00  0.10559998763E+01  0.10560000000E+01  0.51109989000E-03 0.  1.
     -623   -1    0    0    0    0  0.00000000000E+00  0.00000000000E+00  0.47855275298E-10  0.17124000000E+03  0.17124000000E+03 0. -1.
       11    1    1    2    0    0 -0.56949854082E-02 -0.25656416223E-02  0.75878897520E+00  0.75881485587E+00  0.51109989000E-03 0.  1.
     -623    1    1    2    0    0  0.16532527037E-02  0.56659051944E-02  0.69516984299E-04  0.17124000010E+03  0.17124000000E+03 0. -1.
       22    1    1    2    0    0  0.40417326895E-02 -0.31002636234E-02  0.29714139373E+00  0.29718505195E+00  0.00000000000E+00 0.  1.
</event>
<event>
 5   1  0.2192208E+09  0.9118800E+02  0.7818608E-02  0.1180000E+00
       11   -1    0    0    0    0  0.00000000000E+00  0.00000000000E+00  0.10559998763E+01  0.10560000000E+01  0.51109989000E-03 0. -1.
     -623   -1    0    0    0    0  0.00000000000E+00  0.00000000000E+00  0.47855275298E-10  0.17124000000E+03  0.17124000000E+03 0.  1.
       11    1    1    2    0    0  0.55669234503E-02  0.15238813132E-02  0.71272366098E+00  0.71274721395E+00  0.51109989000E-03 0. -1.
     -623    1    1    2    0    0 -0.54850488532E-02 -0.59815157909E-02  0.52577079426E-04  0.17124000019E+03  0.17124000000E+03 0.  1.
       22    1    1    2    0    0 -0.81874611350E-04  0.44576344622E-02  0.34322363557E+00  0.34325259099E+00  0.00000000000E+00 0. -1.
</event>
<event>
 5   1  0.2192208E+09  0.9118800E+02  0.7818608E-02  0.1180000E+00
       11   -1    0    0    0    0  0.00000000000E+00  0.00000000000E+00  0.10559998763E+01  0.10560000000E+01  0.51109989000E-03 0. -1.
     -623   -1    0    0    0    0  0.00000000000E+00  0.00000000000E+00  0.47855275298E-10  0.17124000000E+03  0.17124000000E+03 0.  1.
       11    1    1    2    0    0 -0.14877301004E-01  0.11341870310E-01  0.94714834847E+00  0.94733321875E+00  0.51109989000E-03 0. -1.
     -623    1    1    2    0    0  0.16741051883E-01 -0.13715322688E-01  0.22802560298E-03  0.17124000137E+03  0.17124000000E+03 0.  1.
       22    1    1    2    0    0 -0.18637508477E-02  0.23734523519E-02  0.10862350032E+00  0.10866541154E+00  0.00000000000E+00 0. -1.
</event>
<event>
 5   1  0.2192208E+09  0.9118800E+02  0.7818608E-02  0.1180000E+00
       11   -1    0    0    0    0  0.00000000000E+00  0.00000000000E+00  0.10559998763E+01  0.10560000000E+01  0.51109989000E-03 0.  1.
     -623   -1    0    0    0    0  0.00000000000E+00  0.00000000000E+00  0.47855275298E-10  0.17124000000E+03  0.17124000000E+03 0. -1.
       11    1    1    2    0    0 -0.16255290073E-02 -0.20121331711E-01  0.90310068907E+00  0.90332642281E+00  0.51109989000E-03 0.  1.
     -623    1    1    2    0    0  0.14815044459E-02  0.23572569134E-01  0.26632074212E-03  0.17124000163E+03  0.17124000000E+03 0. -1.
       22    1    1    2    0    0  0.14402416225E-03 -0.34512437740E-02  0.15263315098E+00  0.15267223259E+00  0.00000000000E+00 0. -1.
</event>
<event>
 5   1  0.2192208E+09  0.9118800E+02  0.7818608E-02  0.1180000E+00
       11   -1    0    0    0    0  0.00000000000E+00  0.00000000000E+00  0.10559998763E+01  0.10560000000E+01  0.51109989000E-03 0.  1.
     -623   -1    0    0    0    0  0.00000000000E+00  0.00000000000E+00  0.47855275298E-10  0.17124000000E+03  0.17124000000E+03 0.  1.
       11    1    1    2    0    0 -0.78119927520E-02 -0.16035795856E-01  0.10050891316E+01  0.10052475305E+01  0.51109989000E-03 0.  1.
     -623    1    1    2    0    0  0.82865227957E-02  0.16735354323E-01  0.16633395237E-03  0.17124000102E+03  0.17124000000E+03 0.  1.
       22    1    1    2    0    0 -0.47453859674E-03 -0.69957574078E-03  0.50745500621E-01  0.50752541083E-01  0.00000000000E+00 0. -1.
</event>
<event>
 5   1  0.2192208E+09  0.9118800E+02  0.7818608E-02  0.1180000E+00
       11   -1    0    0    0    0  0.00000000000E+00  0.00000000000E+00  0.10559998763E+01  0.10560000000E+01  0.51109989000E-03 0.  1.
     -623   -1    0    0    0    0  0.00000000000E+00  0.00000000000E+00  0.47855275298E-10  0.17124000000E+03  0.17124000000E+03 0.  1.
       11    1    1    2    0    0  0.39343707521E-04  0.17199730769E-02  0.98588950708E+00  0.98589114067E+00  0.51109989000E-03 0.  1.
     -623    1    1    2    0    0  0.26523505900E-03  0.27515705669E-03  0.30566314370E-04  0.17124000000E+03  0.17124000000E+03 0.  1.
       22    1    1    2    0    0 -0.30457876673E-03 -0.19951301338E-02  0.70079803780E-01  0.70108859714E-01  0.00000000000E+00 0.  1.
</event>
<event>
 5   1  0.2192208E+09  0.9118800E+02  0.7818608E-02  0.1180000E+00
       11   -1    0    0    0    0  0.00000000000E+00  0.00000000000E+00  0.10559998763E+01  0.10560000000E+01  0.51109989000E-03 0. -1.
     -623   -1    0    0    0    0  0.00000000000E+00  0.00000000000E+00  0.47855275298E-10  0.17124000000E+03  0.17124000000E+03 0. -1.
       11    1    1    2    0    0 -0.34609660821E-02 -0.16311908780E-02  0.88232260207E+00  0.88233104582E+00  0.51109989000E-03 0. -1.
     -623    1    1    2    0    0  0.31656121803E-02  0.33764631152E-02  0.17403535938E-04  0.17124000006E+03  0.17124000000E+03 0. -1.
       22    1    1    2    0    0  0.29535388976E-03 -0.17452722501E-02  0.17365987476E+00  0.17366889564E+00  0.00000000000E+00 0.  1.
</event>
<event>
 5   1  0.2192208E+09  0.9118800E+02  0.7818608E-02  0.1180000E+00
       11   -1    0    0    0    0  0.00000000000E+00  0.00000000000E+00  0.10559998763E+01  0.10560000000E+01  0.51109989000E-03 0. -1.
     -623   -1    0    0    0    0  0.00000000000E+00  0.00000000000E+00  0.47855275298E-10  0.17124000000E+03  0.17124000000E+03 0. -1.
       11    1    1    2    0    0 -0.16456474288E-02 -0.30002892185E-02  0.98339915088E+00  0.98340523746E+00  0.51109989000E-03 0. -1.
     -623    1    1    2    0    0  0.15519306216E-02  0.41263606433E-02  0.14814393075E-04  0.17124000006E+03  0.17124000000E+03 0. -1.
       22    1    1    2    0    0  0.93716836439E-04 -0.11260713471E-02  0.72585891201E-01  0.72594685900E-01  0.00000000000E+00 0. -1.
</event>
<event>
 5   1  0.2192208E+09  0.9118800E+02  0.7818608E-02  0.1180000E+00
       11   -1    0    0    0    0  0.00000000000E+00  0.00000000000E+00  0.10559998763E+01  0.10560000000E+01  0.51109989000E-03 0. -1.
     -623   -1    0    0    0    0  0.00000000000E+00  0.00000000000E+00  0.47855275298E-10  0.17124000000E+03  0.17124000000E+03 0. -1.
       11    1    1    2    0    0 -0.12978089077E-03  0.15907859240E-01  0.94533948292E+00  0.94547346659E+00  0.51109989000E-03 0. -1.
     -623    1    1    2    0    0  0.86599329702E-03 -0.17568986467E-01  0.14969935256E-03  0.17124000090E+03  0.17124000000E+03 0. -1.
       22    1    1    2    0    0 -0.73621241776E-03  0.16611274602E-02  0.11051070812E+00  0.11052564392E+00  0.00000000000E+00 0.  1.
</event>
<event>
 5   1  0.2192208E+09  0.9118800E+02  0.7818608E-02  0.1180000E+00
       11   -1    0    0    0    0  0.00000000000E+00  0.00000000000E+00  0.10559998763E+01  0.10560000000E+01  0.51109989000E-03 0.  1.
     -623   -1    0    0    0    0  0.00000000000E+00  0.00000000000E+00  0.47855275298E-10  0.17124000000E+03  0.17124000000E+03 0. -1.
       11    1    1    2    0    0 -0.22621830177E-02  0.21828085961E-03  0.83645631339E+00  0.83645955703E+00  0.51109989000E-03 0.  1.
     -623    1    1    2    0    0  0.19857367572E-02  0.19929556541E-02  0.14453373553E-04  0.17124000002E+03  0.17124000000E+03 0. -1.
       22    1    1    2    0    0  0.27644620229E-03 -0.22112365722E-02  0.21952914056E+00  0.21954045082E+00  0.00000000000E+00 0. -1.
</event>
<event>
 5   1  0.2192208E+09  0.9118800E+02  0.7818608E-02  0.1180000E+00
       11   -1    0    0    0    0  0.00000000000E+00  0.00000000000E+00  0.10559998763E+01  0.10560000000E+01  0.51109989000E-03 0.  1.
     -623   -1    0    0    0    0  0.00000000000E+00  0.00000000000E+00  0.47855275298E-10  0.17124000000E+03  0.17124000000E+03 0. -1.
       11    1    1    2    0    0 -0.39817132864E-03  0.73443163860E-02  0.59876430781E+00  0.59880969853E+00  0.51109989000E-03 0.  1.
     -623    1    1    2    0    0 -0.19895100521E-02 -0.13483759250E-01  0.93269076739E-04  0.17124000054E+03  0.17124000000E+03 0. -1.
       22    1    1    2    0    0  0.23876813744E-02  0.61394428208E-02  0.45714229611E+00  0.45718975565E+00  0.00000000000E+00 0.  1.
</event>
<event>
 5   1  0.2192208E+09  0.9118800E+02  0.7818608E-02  0.1180000E+00
       11   -1    0    0    0    0  0.00000000000E+00  0.00000000000E+00  0.10559998763E+01  0.10560000000E+01  0.51109989000E-03 0.  1.
     -623   -1    0    0    0    0  0.00000000000E+00  0.00000000000E+00  0.47855275298E-10  0.17124000000E+03  0.17124000000E+03 0. -1.
       11    1    1    2    0    0  0.35456855151E-02 -0.16396678897E-02  0.83515570869E+00  0.83516500129E+00  0.51109989000E-03 0.  1.
     -623    1    1    2    0    0 -0.13066690893E-02 -0.15293605367E-02  0.43272067021E-04  0.17124000001E+03  0.17124000000E+03 0. -1.
       22    1    1    2    0    0 -0.22390164123E-02  0.31690284423E-02  0.22080090658E+00  0.22083499787E+00  0.00000000000E+00 0.  1.
</event>
<event>
 5   1  0.2192208E+09  0.9118800E+02  0.7818608E-02  0.1180000E+00
       11   -1    0    0    0    0  0.00000000000E+00  0.00000000000E+00  0.10559998763E+01  0.10560000000E+01  0.51109989000E-03 0.  1.
     -623   -1    0    0    0    0  0.00000000000E+00  0.00000000000E+00  0.47855275298E-10  0.17124000000E+03  0.17124000000E+03 0.  1.
       11    1    1    2    0    0  0.75562128874E-02  0.81091756580E-02  0.79081883018E+00  0.79089666738E+00  0.51109989000E-03 0.  1.
     -623    1    1    2    0    0 -0.10230886470E-01 -0.11507955460E-01  0.11368815151E-03  0.17124000069E+03  0.17124000000E+03 0.  1.
       22    1    1    2    0    0  0.26746760683E-02  0.33987825975E-02  0.26506761455E+00  0.26510289682E+00  0.00000000000E+00 0. -1.
</event>
<event>
 5   1  0.2192208E+09  0.9118800E+02  0.7818608E-02  0.1180000E+00
       11   -1    0    0    0    0  0.00000000000E+00  0.00000000000E+00  0.10559998763E+01  0.10560000000E+01  0.51109989000E-03 0.  1.
     -623   -1    0    0    0    0  0.00000000000E+00  0.00000000000E+00  0.47855275298E-10  0.17124000000E+03  0.17124000000E+03 0. -1.
       11    1    1    2    0    0  0.15182127426E-03  0.15192565359E-02  0.62731883955E-01  0.62752543198E-01  0.51109989000E-03 0.  1.
     -623    1    1    2    0    0 -0.44771300408E-02  0.93416119570E-02  0.89649308191E-04  0.17124000031E+03  0.17124000000E+03 0. -1.
       22    1    1    2    0    0  0.43253087777E-02 -0.10860868516E-01  0.99317834575E+00  0.99324714609E+00  0.00000000000E+00 0.  1.
</event>
<event>
 5   1  0.2192208E+09  0.9118800E+02  0.7818608E-02  0.1180000E+00
       11   -1    0    0    0    0  0.00000000000E+00  0.00000000000E+00  0.10559998763E+01  0.10560000000E+01  0.51109989000E-03 0.  1.
     -623   -1    0    0    0    0  0.00000000000E+00  0.00000000000E+00  0.47855275298E-10  0.17124000000E+03  0.17124000000E+03 0.  1.
       11    1    1    2    0    0 -0.45139374341E-02  0.93377402176E-02  0.74074294191E+00  0.74081572354E+00  0.51109989000E-03 0.  1.
     -623    1    1    2    0    0  0.17495212634E-02 -0.21206744133E-02  0.16744536675E-03  0.17124000002E+03  0.17124000000E+03 0.  1.
       22    1    1    2    0    0  0.27644161692E-02 -0.72170658024E-02  0.31508949004E+00  0.31518425527E+00  0.00000000000E+00 0.  1.
</event>
<event>
 5   1  0.2192208E+09  0.9118800E+02  0.7818608E-02  0.1180000E+00
       11   -1    0    0    0    0  0.00000000000E+00  0.00000000000E+00  0.10559998763E+01  0.10560000000E+01  0.51109989000E-03 0. -1.
     -623   -1    0    0    0    0  0.00000000000E+00  0.00000000000E+00  0.47855275298E-10  0.17124000000E+03  0.17124000000E+03 0. -1.
       11    1    1    2    0    0 -0.16025377538E-01  0.23555306304E-01  0.97239838131E+00  0.97281577823E+00  0.51109989000E-03 0. -1.
     -623    1    1    2    0    0  0.18405962364E-01 -0.26170100885E-01  0.49546013254E-03  0.17124000299E+03  0.17124000000E+03 0. -1.
       22    1    1    2    0    0 -0.23805851163E-02  0.26147949935E-02  0.83106051542E-01  0.83181248735E-01  0.00000000000E+00 0. -1.
</event>
<event>
 5   1  0.2192208E+09  0.9118800E+02  0.7818608E-02  0.1180000E+00
       11   -1    0    0    0    0  0.00000000000E+00  0.00000000000E+00  0.10559998763E+01  0.10560000000E+01  0.51109989000E-03 0. -1.
     -623   -1    0    0    0    0  0.00000000000E+00  0.00000000000E+00  0.47855275298E-10  0.17124000000E+03  0.17124000000E+03 0.  1.
       11    1    1    2    0    0 -0.64612051504E-03 -0.77872919447E-03  0.97677974062E+00  0.97678039845E+00  0.51109989000E-03 0. -1.
     -623    1    1    2    0    0  0.65165853160E-03 -0.29251585722E-03  0.77791482169E-05  0.17124000000E+03  0.17124000000E+03 0.  1.
       22    1    1    2    0    0 -0.55380396722E-05  0.10712450621E-02  0.79212394050E-01  0.79219637514E-01  0.00000000000E+00 0. -1.
</event>
<event>
 5   1  0.2192208E+09  0.9118800E+02  0.7818608E-02  0.1180000E+00
       11   -1    0    0    0    0  0.00000000000E+00  0.00000000000E+00  0.10559998763E+01  0.10560000000E+01  0.51109989000E-03 0.  1.
     -623   -1    0    0    0    0  0.00000000000E+00  0.00000000000E+00  0.47855275298E-10  0.17124000000E+03  0.17124000000E+03 0.  1.
       11    1    1    2    0    0 -0.58675528323E-02  0.15213617423E-01  0.99541816149E+00  0.99555183681E+00  0.51109989000E-03 0.  1.
     -623    1    1    2    0    0  0.62476721372E-02 -0.16159665637E-01  0.14302719439E-03  0.17124000088E+03  0.17124000000E+03 0.  1.
       22    1    1    2    0    0 -0.38011316391E-03  0.94603233093E-03  0.60437649856E-01  0.60446248711E-01  0.00000000000E+00 0.  1.
</event>
<event>
 5   1  0.2192208E+09  0.9118800E+02  0.7818608E-02  0.1180000E+00
       11   -1    0    0    0    0  0.00000000000E+00  0.00000000000E+00  0.10559998763E+01  0.10560000000E+01  0.51109989000E-03 0. -1.
     -623   -1    0    0    0    0  0.00000000000E+00  0.00000000000E+00  0.47855275298E-10  0.17124000000E+03  0.17124000000E+03 0. -1.
       11    1    1    2    0    0 -0.42871733051E-02  0.10715270803E-01  0.53051606061E+00  0.53064182710E+00  0.51109989000E-03 0. -1.
     -623    1    1    2    0    0 -0.11931281549E-04 -0.37443446569E-03  0.24501861575E-03  0.17124000000E+03  0.17124000000E+03 0. -1.
       22    1    1    2    0    0  0.42991045866E-02 -0.10340836338E-01  0.52523879751E+00  0.52535817268E+00  0.00000000000E+00 0. -1.
</event>
<event>
 5   1  0.2192208E+09  0.9118800E+02  0.7818608E-02  0.1180000E+00
       11   -1    0    0    0    0  0.00000000000E+00  0.00000000000E+00  0.10559998763E+01  0.10560000000E+01  0.51109989000E-03 0.  1.
     -623   -1    0    0    0    0  0.00000000000E+00  0.00000000000E+00  0.47855275298E-10  0.17124000000E+03  0.17124000000E+03 0.  1.
       11    1    1    2    0    0  0.10480973138E-02  0.16504522955E-02  0.93547487241E+00  0.93547705511E+00  0.51109989000E-03 0.  1.
     -623    1    1    2    0    0  0.17385712607E-04 -0.25594844755E-04  0.17722728638E-04  0.17124000000E+03  0.17124000000E+03 0.  1.
       22    1    1    2    0    0 -0.10654830262E-02 -0.16248574511E-02  0.12050726695E+00  0.12052293061E+00  0.00000000000E+00 0.  1.
</event>
<event>
 5   1  0.2192208E+09  0.9118800E+02  0.7818608E-02  0.1180000E+00
       11   -1    0    0    0    0  0.00000000000E+00  0.00000000000E+00  0.10559998763E+01  0.10560000000E+01  0.51109989000E-03 0. -1.
     -623   -1    0    0    0    0  0.00000000000E+00  0.00000000000E+00  0.47855275298E-10  0.17124000000E+03  0.17124000000E+03 0. -1.
       11    1    1    2    0    0  0.18482814247E-01 -0.12930440767E-01  0.94704297536E+00  0.94731170642E+00  0.51109989000E-03 0. -1.
     -623    1    1    2    0    0 -0.19136992169E-01  0.14072278205E-01  0.27822216337E-03  0.17124000165E+03  0.17124000000E+03 0. -1.
       22    1    1    2    0    0  0.65417825984E-03 -0.11418376859E-02  0.10867869747E+00  0.10868666443E+00  0.00000000000E+00 0. -1.
</event>
<event>
 5   1  0.2192208E+09  0.9118800E+02  0.7818608E-02  0.1180000E+00
       11   -1    0    0    0    0  0.00000000000E+00  0.00000000000E+00  0.10559998763E+01  0.10560000000E+01  0.51109989000E-03 0. -1.
     -623   -1    0    0    0    0  0.00000000000E+00  0.00000000000E+00  0.47855275298E-10  0.17124000000E+03  0.17124000000E+03 0.  1.
       11    1    1    2    0    0  0.53569023580E-02 -0.85038817896E-02  0.87485765260E+00  0.87491553075E+00  0.51109989000E-03 0. -1.
     -623    1    1    2    0    0 -0.66334386145E-02  0.10424992493E-01  0.72890835114E-04  0.17124000045E+03  0.17124000000E+03 0.  1.
       22    1    1    2    0    0  0.12765350912E-02 -0.19211088724E-02  0.18106914744E+00  0.18108383792E+00  0.00000000000E+00 0. -1.
</event>
<event>
 5   1  0.2192208E+09  0.9118800E+02  0.7818608E-02  0.1180000E+00
       11   -1    0    0    0    0  0.00000000000E+00  0.00000000000E+00  0.10559998763E+01  0.10560000000E+01  0.51109989000E-03 0. -1.
     -623   -1    0    0    0    0  0.00000000000E+00  0.00000000000E+00  0.47855275298E-10  0.17124000000E+03  0.17124000000E+03 0. -1.
       11    1    1    2    0    0  0.64707050004E-02 -0.85769451072E-02  0.67733951929E+00  0.67742491808E+00  0.51109989000E-03 0. -1.
     -623    1    1    2    0    0  0.46847230485E-03 -0.68419348094E-03  0.26219360693E-03  0.17124000000E+03  0.17124000000E+03 0. -1.
       22    1    1    2    0    0 -0.69391773052E-02  0.92611385881E-02  0.37839816341E+00  0.37857507966E+00  0.00000000000E+00 0.  1.
</event>
<event>
 5   1  0.2192208E+09  0.9118800E+02  0.7818608E-02  0.1180000E+00
       11   -1    0    0    0    0  0.00000000000E+00  0.00000000000E+00  0.10559998763E+01  0.10560000000E+01  0.51109989000E-03 0.  1.
     -623   -1    0    0    0    0  0.00000000000E+00  0.00000000000E+00  0.47855275298E-10  0.17124000000E+03  0.17124000000E+03 0.  1.
       11    1    1    2    0    0 -0.17145145705E-01  0.35257465918E-01  0.89132333387E+00  0.89218528997E+00  0.51109989000E-03 0.  1.
     -623    1    1    2    0    0  0.19719523589E-01 -0.41901833988E-01  0.10231539493E-02  0.17124000627E+03  0.17124000000E+03 0.  1.
       22    1    1    2    0    0 -0.25743828484E-02  0.66443786175E-02  0.16365365413E+00  0.16380871077E+00  0.00000000000E+00 0. -1.
</event>
<event>
 5   1  0.2192208E+09  0.9118800E+02  0.7818608E-02  0.1180000E+00
       11   -1    0    0    0    0  0.00000000000E+00  0.00000000000E+00  0.10559998763E+01  0.10560000000E+01  0.51109989000E-03 0. -1.
     -623   -1    0    0    0    0  0.00000000000E+00  0.00000000000E+00  0.47855275298E-10  0.17124000000E+03  0.17124000000E+03 0.  1.
       11    1    1    2    0    0 -0.52474777751E-02 -0.20536722358E-01  0.56163817377E+00  0.56203824821E+00  0.51109989000E-03 0. -1.
     -623    1    1    2    0    0  0.12890136744E-02  0.54820228310E-02  0.64538107335E-03  0.17124000009E+03  0.17124000000E+03 0.  1.
       22    1    1    2    0    0  0.39584641002E-02  0.15054699525E-01  0.49371632198E+00  0.49396165844E+00  0.00000000000E+00 0. -1.
</event>
<event>
 5   1  0.2192208E+09  0.9118800E+02  0.7818608E-02  0.1180000E+00
       11   -1    0    0    0    0  0.00000000000E+00  0.00000000000E+00  0.10559998763E+01  0.10560000000E+01  0.51109989000E-03 0.  1.
     -623   -1    0    0    0    0  0.00000000000E+00  0.00000000000E+00  0.47855275298E-10  0.17124000000E+03  0.17124000000E+03 0.  1.
       11    1    1    2    0    0 -0.43359811272E-03 -0.18467092531E-02  0.92214727491E+00  0.92214936761E+00  0.51109989000E-03 0.  1.
     -623    1    1    2    0    0  0.49159932133E-03 -0.39849525408E-03  0.20814610403E-04  0.17124000000E+03  0.17124000000E+03 0.  1.
       22    1    1    2    0    0 -0.58001208117E-04  0.22452045068E-02  0.13383178580E+00  0.13385063017E+00  0.00000000000E+00 0. -1.
</event>
<event>
 5   1  0.2192208E+09  0.9118800E+02  0.7818608E-02  0.1180000E+00
       11   -1    0    0    0    0  0.00000000000E+00  0.00000000000E+00  0.10559998763E+01  0.10560000000E+01  0.51109989000E-03 0.  1.
     -623   -1    0    0    0    0  0.00000000000E+00  0.00000000000E+00  0.47855275298E-10  0.17124000000E+03  0.17124000000E+03 0.  1.
       11    1    1    2    0    0  0.22013383279E-01 -0.17223108372E-01  0.42107915629E+00  0.42200609188E+00  0.51109989000E-03 0.  1.
     -623    1    1    2    0    0  0.85982960464E-03 -0.32311847402E-02  0.16698520648E-02  0.17124000004E+03  0.17124000000E+03 0.  1.
       22    1    1    2    0    0 -0.22873212884E-01  0.20454293112E-01  0.63325086800E+00  0.63399386731E+00  0.00000000000E+00 0.  1.
</event>
<event>
 5   1  0.2192208E+09  0.9118800E+02  0.7818608E-02  0.1180000E+00
       11   -1    0    0    0    0  0.00000000000E+00  0.00000000000E+00  0.10559998763E+01  0.10560000000E+01  0.51109989000E-03 0.  1.
     -623   -1    0    0    0    0  0.00000000000E+00  0.00000000000E+00  0.47855275298E-10  0.17124000000E+03  0.17124000000E+03 0. -1.
       11    1    1    2    0    0 -0.10917740136E-02  0.83722592431E-03  0.98524511922E+00  0.98524621242E+00  0.51109989000E-03 0.  1.
     -623    1    1    2    0    0  0.42657959535E-03 -0.59772465698E-04  0.83688027981E-05  0.17124000000E+03  0.17124000000E+03 0. -1.
       22    1    1    2    0    0  0.66519440726E-03 -0.77745345707E-03  0.70746415609E-01  0.70753814307E-01  0.00000000000E+00 0.  1.
</event>
<event>
 5   1  0.2192208E+09  0.9118800E+02  0.7818608E-02  0.1180000E+00
       11   -1    0    0    0    0  0.00000000000E+00  0.00000000000E+00  0.10559998763E+01  0.10560000000E+01  0.51109989000E-03 0. -1.
     -623   -1    0    0    0    0  0.00000000000E+00  0.00000000000E+00  0.47855275298E-10  0.17124000000E+03  0.17124000000E+03 0. -1.
       11    1    1    2    0    0  0.27467482334E-02 -0.16291305342E-02  0.96433271075E+00  0.96433813413E+00  0.51109989000E-03 0. -1.
     -623    1    1    2    0    0 -0.54227672391E-02  0.51107977168E-02  0.11070848602E-03  0.17124000016E+03  0.17124000000E+03 0. -1.
       22    1    1    2    0    0  0.26760190067E-02 -0.34816671835E-02  0.91556457326E-01  0.91661703902E-01  0.00000000000E+00 0.  1.
</event>
<event>
 5   1  0.2192208E+09  0.9118800E+02  0.7818608E-02  0.1180000E+00
       11   -1    0    0    0    0  0.00000000000E+00  0.00000000000E+00  0.10559998763E+01  0.10560000000E+01  0.51109989000E-03 0. -1.
     -623   -1    0    0    0    0  0.00000000000E+00  0.00000000000E+00  0.47855275298E-10  0.17124000000E+03  0.17124000000E+03 0. -1.
       11    1    1    2    0    0 -0.53301316018E-02  0.14373342031E-01  0.22752846501E+00  0.22804487909E+00  0.51109989000E-03 0. -1.
     -623    1    1    2    0    0 -0.23016447886E-02 -0.23689711325E-02  0.63853051463E-03  0.17124000003E+03  0.17124000000E+03 0. -1.
       22    1    1    2    0    0  0.76317763895E-02 -0.12004370899E-01  0.82783288045E+00  0.82795508748E+00  0.00000000000E+00 0. -1.
</event>
<event>
 5   1  0.2192208E+09  0.9118800E+02  0.7818608E-02  0.1180000E+00
       11   -1    0    0    0    0  0.00000000000E+00  0.00000000000E+00  0.10559998763E+01  0.10560000000E+01  0.51109989000E-03 0.  1.
     -623   -1    0    0    0    0  0.00000000000E+00  0.00000000000E+00  0.47855275298E-10  0.17124000000E+03  0.17124000000E+03 0. -1.
       11    1    1    2    0    0  0.41149633786E-02  0.64039007820E-02  0.62329692570E+00  0.62334361446E+00  0.51109989000E-03 0.  1.
     -623    1    1    2    0    0 -0.34047741600E-02 -0.11940064221E-01  0.83019352240E-04  0.17124000045E+03  0.17124000000E+03 0. -1.
       22    1    1    2    0    0 -0.71018920424E-03  0.55361634899E-02  0.43261993576E+00  0.43265593985E+00  0.00000000000E+00 0.  1.
</event>
<event>
 5   1  0.2192208E+09  0.9118800E+02  0.7818608E-02  0.1180000E+00
       11   -1    0    0    0    0  0.00000000000E+00  0.00000000000E+00  0.10559998763E+01  0.10560000000E+01  0.51109989000E-03 0. -1.
     -623   -1    0    0    0    0  0.00000000000E+00  0.00000000000E+00  0.47855275298E-10  0.17124000000E+03  0.17124000000E+03 0. -1.
       11    1    1    2    0    0  0.84838112873E-03  0.57643620958E-02  0.50378657230E+00  0.50382052288E+00  0.51109989000E-03 0. -1.
     -623    1    1    2    0    0 -0.74955820648E-04  0.96323054134E-04  0.65471436230E-04  0.17124000000E+03  0.17124000000E+03 0. -1.
       22    1    1    2    0    0 -0.77342530827E-03 -0.58606851497E-02  0.55214782994E+00  0.55217947437E+00  0.00000000000E+00 0. -1.
</event>
<event>
 5   1  0.2192208E+09  0.9118800E+02  0.7818608E-02  0.1180000E+00
       11   -1    0    0    0    0  0.00000000000E+00  0.00000000000E+00  0.10559998763E+01  0.10560000000E+01  0.51109989000E-03 0.  1.
     -623   -1    0    0    0    0  0.00000000000E+00  0.00000000000E+00  0.47855275298E-10  0.17124000000E+03  0.17124000000E+03 0.  1.
       11    1    1    2    0    0 -0.15527780297E-01 -0.12296214695E-01  0.67411796700E+00  0.67440907727E+00  0.51109989000E-03 0.  1.
     -623    1    1    2    0    0  0.24207210418E-01  0.19578400273E-01  0.46205000774E-03  0.17124000283E+03  0.17124000000E+03 0.  1.
       22    1    1    2    0    0 -0.86794053606E-02 -0.72821655519E-02  0.38141877970E+00  0.38158701173E+00  0.00000000000E+00 0.  1.
</event>
<event>
 5   1  0.2192208E+09  0.9118800E+02  0.7818608E-02  0.1180000E+00
       11   -1    0    0    0    0  0.00000000000E+00  0.00000000000E+00  0.10559998763E+01  0.10560000000E+01  0.51109989000E-03 0.  1.
     -623   -1    0    0    0    0  0.00000000000E+00  0.00000000000E+00  0.47855275298E-10  0.17124000000E+03  0.17124000000E+03 0. -1.
       11    1    1    2    0    0 -0.37730946808E-02 -0.66561976150E-02  0.62825163844E+00  0.62829843517E+00  0.51109989000E-03 0.  1.
     -623    1    1    2    0    0 -0.27819103615E-04 -0.17754598737E-03  0.11816245400E-03  0.17124000000E+03  0.17124000000E+03 0. -1.
       22    1    1    2    0    0  0.38009137843E-02  0.68337436021E-02  0.42763007373E+00  0.42770156295E+00  0.00000000000E+00 0.  1.
</event>
<event>
 5   1  0.2192208E+09  0.9118800E+02  0.7818608E-02  0.1180000E+00
       11   -1    0    0    0    0  0.00000000000E+00  0.00000000000E+00  0.10559998763E+01  0.10560000000E+01  0.51109989000E-03 0. -1.
     -623   -1    0    0    0    0  0.00000000000E+00  0.00000000000E+00  0.47855275298E-10  0.17124000000E+03  0.17124000000E+03 0. -1.
       11    1    1    2    0    0  0.42261946227E-02 -0.19164599485E-02  0.92281673950E+00  0.92282854825E+00  0.51109989000E-03 0. -1.
     -623    1    1    2    0    0 -0.50035893722E-02  0.43187816782E-02  0.35752010822E-04  0.17124000013E+03  0.17124000000E+03 0. -1.
       22    1    1    2    0    0  0.77739481899E-03 -0.24023217897E-02  0.13314739953E+00  0.13317133886E+00  0.00000000000E+00 0. -1.
</event>
<event>
 5   1  0.2192208E+09  0.9118800E+02  0.7818608E-02  0.1180000E+00
       11   -1    0    0    0    0  0.00000000000E+00  0.00000000000E+00  0.10559998763E+01  0.10560000000E+01  0.51109989000E-03 0. -1.
     -623   -1    0    0    0    0  0.00000000000E+00  0.00000000000E+00  0.47855275298E-10  0.17124000000E+03  0.17124000000E+03 0.  1.
       11    1    1    2    0    0 -0.35719068731E-02  0.22842762716E-02  0.89932232051E+00  0.89933246012E+00  0.51109989000E-03 0. -1.
     -623    1    1    2    0    0 -0.12381814050E-03 -0.17766527684E-03  0.67780258795E-04  0.17124000000E+03  0.17124000000E+03 0.  1.
       22    1    1    2    0    0  0.36957250139E-02 -0.21066109944E-02  0.15660977822E+00  0.15666754235E+00  0.00000000000E+00 0. -1.
</event>
<event>
 5   1  0.2192208E+09  0.9118800E+02  0.7818608E-02  0.1180000E+00
       11   -1    0    0    0    0  0.00000000000E+00  0.00000000000E+00  0.10559998763E+01  0.10560000000E+01  0.51109989000E-03 0.  1.
     -623   -1    0    0    0    0  0.00000000000E+00  0.00000000000E+00  0.47855275298E-10  0.17124000000E+03  0.17124000000E+03 0. -1.
       11    1    1    2    0    0  0.10196999597E-02  0.94198789088E-03  0.94591304376E+00  0.94591420050E+00  0.51109989000E-03 0.  1.
     -623    1    1    2    0    0 -0.26329522677E-03  0.34835654727E-03  0.11195006093E-04  0.17124000000E+03  0.17124000000E+03 0. -1.
       22    1    1    2    0    0 -0.75640472846E-03 -0.12903444440E-02  0.11007565545E+00  0.11008581680E+00  0.00000000000E+00 0.  1.
</event>
<event>
 5   1  0.2192208E+09  0.9118800E+02  0.7818608E-02  0.1180000E+00
       11   -1    0    0    0    0  0.00000000000E+00  0.00000000000E+00  0.10559998763E+01  0.10560000000E+01  0.51109989000E-03 0.  1.
     -623   -1    0    0    0    0  0.00000000000E+00  0.00000000000E+00  0.47855275298E-10  0.17124000000E+03  0.17124000000E+03 0. -1.
       11    1    1    2    0    0 -0.14534624329E-02 -0.21874531968E-01  0.89777604295E+00  0.89804381420E+00  0.51109989000E-03 0.  1.
     -623    1    1    2    0    0  0.14076527865E-02  0.25552204542E-01  0.31238645763E-03  0.17124000191E+03  0.17124000000E+03 0. -1.
       22    1    1    2    0    0  0.45808586169E-04 -0.36776918203E-02  0.15791224211E+00  0.15795506869E+00  0.00000000000E+00 0.  1.
</event>
<event>
 5   1  0.2192208E+09  0.9118800E+02  0.7818608E-02  0.1180000E+00
       11   -1    0    0    0    0  0.00000000000E+00  0.00000000000E+00  0.10559998763E+01  0.10560000000E+01  0.51109989000E-03 0.  1.
     -623   -1    0    0    0    0  0.00000000000E+00  0.00000000000E+00  0.47855275298E-10  0.17124000000E+03  0.17124000000E+03 0. -1.
       11    1    1    2    0    0  0.67889589954E-03 -0.10922562585E-02  0.96310309962E+00  0.96310409388E+00  0.51109989000E-03 0.  1.
     -623    1    1    2    0    0 -0.41251170842E-04 -0.37107872971E-04  0.99245065579E-05  0.17124000000E+03  0.17124000000E+03 0. -1.
       22    1    1    2    0    0 -0.63764472867E-03  0.11293641315E-02  0.92886852938E-01  0.92895906814E-01  0.00000000000E+00 0.  1.
</event>
<event>
 5   1  0.2192208E+09  0.9118800E+02  0.7818608E-02  0.1180000E+00
       11   -1    0    0    0    0  0.00000000000E+00  0.00000000000E+00  0.10559998763E+01  0.10560000000E+01  0.51109989000E-03 0. -1.
     -623   -1    0    0    0    0  0.00000000000E+00  0.00000000000E+00  0.47855275298E-10  0.17124000000E+03  0.17124000000E+03 0.  1.
       11    1    1    2    0    0  0.10111712846E-01  0.62705267454E-02  0.10009644037E+01  0.10010352466E+01  0.51109989000E-03 0. -1.
     -623    1    1    2    0    0 -0.10488927828E-01 -0.68930969892E-02  0.75999736576E-04  0.17124000046E+03  0.17124000000E+03 0.  1.
       22    1    1    2    0    0  0.37721316274E-03  0.62256904809E-03  0.54959289752E-01  0.54964110218E-01  0.00000000000E+00 0.  1.
</event>
<event>
 5   1  0.2192208E+09  0.9118800E+02  0.7818608E-02  0.1180000E+00
       11   -1    0    0    0    0  0.00000000000E+00  0.00000000000E+00  0.10559998763E+01  0.10560000000E+01  0.51109989000E-03 0.  1.
     -623   -1    0    0    0    0  0.00000000000E+00  0.00000000000E+00  0.47855275298E-10  0.17124000000E+03  0.17124000000E+03 0. -1.
       11    1    1    2    0    0  0.10007457791E-02  0.56040145204E-02  0.72005776812E+00  0.72008045185E+00  0.51109989000E-03 0.  1.
     -623    1    1    2    0    0 -0.10328988166E-02 -0.12927852355E-02  0.50236164957E-04  0.17124000001E+03  0.17124000000E+03 0. -1.
       22    1    1    2    0    0  0.32153049183E-04 -0.43112292703E-02  0.33589188400E+00  0.33591955208E+00  0.00000000000E+00 0.  1.
</event>
<event>
 5   1  0.2192208E+09  0.9118800E+02  0.7818608E-02  0.1180000E+00
       11   -1    0    0    0    0  0.00000000000E+00  0.00000000000E+00  0.10559998763E+01  0.10560000000E+01  0.51109989000E-03 0. -1.
     -623   -1    0    0    0    0  0.00000000000E+00  0.00000000000E+00  0.47855275298E-10  0.17124000000E+03  0.17124000000E+03 0.  1.
       11    1    1    2    0    0 -0.17578199770E-01  0.24235098022E-01  0.76067600153E+00  0.76126511388E+00  0.51109989000E-03 0. -1.
     -623    1    1    2    0    0  0.29219405031E-01 -0.17424550736E-01  0.90112024013E-03  0.17124000338E+03  0.17124000000E+03 0.  1.
       22    1    1    2    0    0 -0.11641205277E-01 -0.68105472762E-02  0.29442275515E+00  0.29473150488E+00  0.00000000000E+00 0. -1.
</event>
<event>
 5   1  0.2192208E+09  0.9118800E+02  0.7818608E-02  0.1180000E+00
       11   -1    0    0    0    0  0.00000000000E+00  0.00000000000E+00  0.10559998763E+01  0.10560000000E+01  0.51109989000E-03 0. -1.
     -623   -1    0    0    0    0  0.00000000000E+00  0.00000000000E+00  0.47855275298E-10  0.17124000000E+03  0.17124000000E+03 0.  1.
       11    1    1    2    0    0 -0.45318270708E-02  0.35381322860E-02  0.68675104832E+00  0.68677530491E+00  0.51109989000E-03 0. -1.
     -623    1    1    2    0    0  0.79165810546E-02  0.67004127474E-03  0.63814704653E-04  0.17124000018E+03  0.17124000000E+03 0.  1.
       22    1    1    2    0    0 -0.33847539988E-02 -0.42081735620E-02  0.36918501534E+00  0.36922451278E+00  0.00000000000E+00 0. -1.
</event>
<event>
 5   1  0.2192208E+09  0.9118800E+02  0.7818608E-02  0.1180000E+00
       11   -1    0    0    0    0  0.00000000000E+00  0.00000000000E+00  0.10559998763E+01  0.10560000000E+01  0.51109989000E-03 0. -1.
     -623   -1    0    0    0    0  0.00000000000E+00  0.00000000000E+00  0.47855275298E-10  0.17124000000E+03  0.17124000000E+03 0.  1.
       11    1    1    2    0    0  0.43237589670E-03  0.52990698907E-02  0.79719212309E+00  0.79721001589E+00  0.51109989000E-03 0. -1.
     -623    1    1    2    0    0  0.10044458802E-03 -0.24069579946E-02  0.34495580824E-04  0.17124000002E+03  0.17124000000E+03 0.  1.
       22    1    1    2    0    0 -0.53282048601E-03 -0.28921118654E-02  0.25877327115E+00  0.25878998062E+00  0.00000000000E+00 0. -1.
</event>
<event>
 5   1  0.2192208E+09  0.9118800E+02  0.7818608E-02  0.1180000E+00
       11   -1    0    0    0    0  0.00000000000E+00  0.00000000000E+00  0.10559998763E+01  0.10560000000E+01  0.51109989000E-03 0.  1.
     -623   -1    0    0    0    0  0.00000000000E+00  0.00000000000E+00  0.47855275298E-10  0.17124000000E+03  0.17124000000E+03 0. -1.
       11    1    1    2    0    0 -0.20088891208E-03  0.89579917710E-03  0.10008103076E+01  0.10008108591E+01  0.51109989000E-03 0.  1.
     -623    1    1    2    0    0 -0.14360258183E-03 -0.12397946088E-03  0.69005224008E-05  0.17124000000E+03  0.17124000000E+03 0. -1.
       22    1    1    2    0    0  0.34449149756E-03 -0.77181971306E-03  0.55182695138E-01  0.55189167622E-01  0.00000000000E+00 0. -1.
</event>
<event>
 5   1  0.2192208E+09  0.9118800E+02  0.7818608E-02  0.1180000E+00
       11   -1    0    0    0    0  0.00000000000E+00  0.00000000000E+00  0.10559998763E+01  0.10560000000E+01  0.51109989000E-03 0.  1.
     -623   -1    0    0    0    0  0.00000000000E+00  0.00000000000E+00  0.47855275298E-10  0.17124000000E+03  0.17124000000E+03 0.  1.
       11    1    1    2    0    0 -0.17094700029E-03 -0.74332208937E-03  0.99645905353E+00  0.99645947652E+00  0.51109989000E-03 0.  1.
     -623    1    1    2    0    0  0.42748638570E-04 -0.11574955247E-04  0.52231312404E-05  0.17124000000E+03  0.17124000000E+03 0.  1.
       22    1    1    2    0    0  0.12819836173E-03  0.75489704461E-03  0.59535599621E-01  0.59540523399E-01  0.00000000000E+00 0.  1.
</event>
<event>
 5   1  0.2192208E+09  0.9118800E+02  0.7818608E-02  0.1180000E+00
       11   -1    0    0    0    0  0.00000000000E+00  0.00000000000E+00  0.10559998763E+01  0.10560000000E+01  0.51109989000E-03 0.  1.
     -623   -1    0    0    0    0  0.00000000000E+00  0.00000000000E+00  0.47855275298E-10  0.17124000000E+03  0.17124000000E+03 0. -1.
       11    1    1    2    0    0  0.12962818757E-01 -0.13769917538E-01  0.75319621983E+00  0.75343377419E+00  0.51109989000E-03 0.  1.
     -623    1    1    2    0    0 -0.18706854624E-01  0.18564307752E-01  0.33198277983E-03  0.17124000203E+03  0.17124000000E+03 0. -1.
       22    1    1    2    0    0  0.57440373917E-02 -0.47943917275E-02  0.30247175980E+00  0.30256428347E+00  0.00000000000E+00 0.  1.
</event>
<event>
 5   1  0.2192208E+09  0.9118800E+02  0.7818608E-02  0.1180000E+00
       11   -1    0    0    0    0  0.00000000000E+00  0.00000000000E+00  0.10559998763E+01  0.10560000000E+01  0.51109989000E-03 0. -1.
     -623   -1    0    0    0    0  0.00000000000E+00  0.00000000000E+00  0.47855275298E-10  0.17124000000E+03  0.17124000000E+03 0.  1.
       11    1    1    2    0    0 -0.62722582850E-02  0.15198163735E-01  0.10008098656E+01  0.10009450403E+01  0.51109989000E-03 0. -1.
     -623    1    1    2    0    0  0.63845101168E-02 -0.16024810617E-01  0.14224087816E-03  0.17124000087E+03  0.17124000000E+03 0.  1.
       22    1    1    2    0    0 -0.11225320540E-03  0.82665032996E-03  0.55047997076E-01  0.55054318029E-01  0.00000000000E+00 0.  1.
</event>
<event>
 5   1  0.2192208E+09  0.9118800E+02  0.7818608E-02  0.1180000E+00
       11   -1    0    0    0    0  0.00000000000E+00  0.00000000000E+00  0.10559998763E+01  0.10560000000E+01  0.51109989000E-03 0.  1.
     -623   -1    0    0    0    0  0.00000000000E+00  0.00000000000E+00  0.47855275298E-10  0.17124000000E+03  0.17124000000E+03 0. -1.
       11    1    1    2    0    0  0.22359595013E-02 -0.64669503058E-03  0.75567631459E-01  0.75605197419E-01  0.51109989000E-03 0.  1.
     -623    1    1    2    0    0  0.40189416103E-02  0.14241771265E-01  0.15230264749E-03  0.17124000064E+03  0.17124000000E+03 0. -1.
       22    1    1    2    0    0 -0.62549011033E-02 -0.13595076204E-01  0.98027994007E+00  0.98039416093E+00  0.00000000000E+00 0.  1.
</event>
<event>
 5   1  0.2192208E+09  0.9118800E+02  0.7818608E-02  0.1180000E+00
       11   -1    0    0    0    0  0.00000000000E+00  0.00000000000E+00  0.10559998763E+01  0.10560000000E+01  0.51109989000E-03 0.  1.
     -623   -1    0    0    0    0  0.00000000000E+00  0.00000000000E+00  0.47855275298E-10  0.17124000000E+03  0.17124000000E+03 0.  1.
       11    1    1    2    0    0  0.57239779967E-02  0.11975150442E-01  0.56305550582E+00  0.56321215542E+00  0.51109989000E-03 0.  1.
     -623    1    1    2    0    0 -0.98350187316E-02 -0.17885414348E-01  0.21033594954E-03  0.17124000122E+03  0.17124000000E+03 0.  1.
       22    1    1    2    0    0  0.41110406296E-02  0.59102637146E-02  0.49273402329E+00  0.49278661668E+00  0.00000000000E+00 0.  1.
</event>
<event>
 5   1  0.2192208E+09  0.9118800E+02  0.7818608E-02  0.1180000E+00
       11   -1    0    0    0    0  0.00000000000E+00  0.00000000000E+00  0.10559998763E+01  0.10560000000E+01  0.51109989000E-03 0. -1.
     -623   -1    0    0    0    0  0.00000000000E+00  0.00000000000E+00  0.47855275298E-10  0.17124000000E+03  0.17124000000E+03 0. -1.
       11    1    1    2    0    0 -0.20323483365E-02  0.14914373326E-01  0.99985217708E+00  0.99996560252E+00  0.51109989000E-03 0. -1.
     -623    1    1    2    0    0  0.20316280136E-02 -0.15726717534E-01  0.11992482357E-03  0.17124000073E+03  0.17124000000E+03 0. -1.
       22    1    1    2    0    0  0.71694964476E-06  0.81237032027E-03  0.56029527596E-01  0.56035416557E-01  0.00000000000E+00 0. -1.
</event>
<event>
 5   1  0.2192208E+09  0.9118800E+02  0.7818608E-02  0.1180000E+00
       11   -1    0    0    0    0  0.00000000000E+00  0.00000000000E+00  0.10559998763E+01  0.10560000000E+01  0.51109989000E-03 0. -1.
     -623   -1    0    0    0    0  0.00000000000E+00  0.00000000000E+00  0.47855275298E-10  0.17124000000E+03  0.17124000000E+03 0.  1.
       11    1    1    2    0    0  0.10766182458E-02 -0.16029864084E-02  0.99938346139E+00  0.99938545756E+00  0.51109989000E-03 0. -1.
     -623    1    1    2    0    0 -0.97131913418E-03  0.34551156126E-03  0.15940308018E-04  0.17124000000E+03  0.17124000000E+03 0.  1.
       22    1    1    2    0    0 -0.10529911999E-03  0.12574748501E-02  0.56600465610E-01  0.56614530274E-01  0.00000000000E+00 0.  1.
</event>
<event>
 5   1  0.2192208E+09  0.9118800E+02  0.7818608E-02  0.1180000E+00
       11   -1    0    0    0    0  0.00000000000E+00  0.00000000000E+00  0.10559998763E+01  0.10560000000E+01  0.51109989000E-03 0.  1.
     -623   -1    0    0    0    0  0.00000000000E+00  0.00000000000E+00  0.47855275298E-10  0.17124000000E+03  0.17124000000E+03 0.  1.
       11    1    1    2    0    0  0.18562180072E-02 -0.17715156364E-02  0.95718213351E+00  0.95718570912E+00  0.51109989000E-03 0.  1.
     -623    1    1    2    0    0 -0.10827322283E-02  0.61446261277E-03  0.13258461425E-04  0.17124000000E+03  0.17124000000E+03 0.  1.
       22    1    1    2    0    0 -0.77348575696E-03  0.11570530111E-02  0.98804505801E-01  0.98814307762E-01  0.00000000000E+00 0. -1.
</event>
<event>
 5   1  0.2192208E+09  0.9118800E+02  0.7818608E-02  0.1180000E+00
       11   -1    0    0    0    0  0.00000000000E+00  0.00000000000E+00  0.10559998763E+01  0.10560000000E+01  0.51109989000E-03 0. -1.
     -623   -1    0    0    0    0  0.00000000000E+00  0.00000000000E+00  0.47855275298E-10  0.17124000000E+03  0.17124000000E+03 0. -1.
       11    1    1    2    0    0  0.19775290456E-02  0.28976599856E-02  0.83425630738E+00  0.83426383997E+00  0.51109989000E-03 0. -1.
     -623    1    1    2    0    0 -0.23387123452E-04 -0.10399874954E-03  0.33620096445E-04  0.17124000000E+03  0.17124000000E+03 0. -1.
       22    1    1    2    0    0 -0.19541419220E-02 -0.27936612356E-02  0.22170995288E+00  0.22173616399E+00  0.00000000000E+00 0.  1.
</event>
<event>
 5   1  0.2192208E+09  0.9118800E+02  0.7818608E-02  0.1180000E+00
       11   -1    0    0    0    0  0.00000000000E+00  0.00000000000E+00  0.10559998763E+01  0.10560000000E+01  0.51109989000E-03 0. -1.
     -623   -1    0    0    0    0  0.00000000000E+00  0.00000000000E+00  0.47855275298E-10  0.17124000000E+03  0.17124000000E+03 0.  1.
       11    1    1    2    0    0  0.11563055681E-02 -0.71118271199E-02  0.33238322792E+00  0.33246170690E+00  0.51109989000E-03 0. -1.
     -623    1    1    2    0    0 -0.59921587583E-02  0.22286200995E-01  0.25521464379E-03  0.17124000156E+03  0.17124000000E+03 0.  1.
       22    1    1    2    0    0  0.48358546024E-02 -0.15174379128E-01  0.72336168260E+00  0.72353698671E+00  0.00000000000E+00 0. -1.
</event>
<event>
 5   1  0.2192208E+09  0.9118800E+02  0.7818608E-02  0.1180000E+00
       11   -1    0    0    0    0  0.00000000000E+00  0.00000000000E+00  0.10559998763E+01  0.10560000000E+01  0.51109989000E-03 0. -1.
     -623   -1    0    0    0    0  0.00000000000E+00  0.00000000000E+00  0.47855275298E-10  0.17124000000E+03  0.17124000000E+03 0. -1.
       11    1    1    2    0    0 -0.39588873171E-03  0.38967992552E-02  0.61207016287E+00  0.61208290882E+00  0.51109989000E-03 0. -1.
     -623    1    1    2    0    0  0.89388870316E-02  0.86101091028E-02  0.27153566754E-03  0.17124000045E+03  0.17124000000E+03 0. -1.
       22    1    1    2    0    0 -0.85429983183E-02 -0.12506908376E-01  0.44365818001E+00  0.44391664338E+00  0.00000000000E+00 0. -1.
</event>
<event>
 5   1  0.2192208E+09  0.9118800E+02  0.7818608E-02  0.1180000E+00
       11   -1    0    0    0    0  0.00000000000E+00  0.00000000000E+00  0.10559998763E+01  0.10560000000E+01  0.51109989000E-03 0.  1.
     -623   -1    0    0    0    0  0.00000000000E+00  0.00000000000E+00  0.47855275298E-10  0.17124000000E+03  0.17124000000E+03 0.  1.
       11    1    1    2    0    0  0.15716861237E-02 -0.28236183529E-02  0.54855409683E+00  0.54856385352E+00  0.51109989000E-03 0.  1.
     -623    1    1    2    0    0 -0.37741065442E-02  0.79348592776E-02  0.40380936676E-04  0.17124000023E+03  0.17124000000E+03 0.  1.
       22    1    1    2    0    0  0.22024205370E-02 -0.51112411697E-02  0.50740543120E+00  0.50743595365E+00  0.00000000000E+00 0.  1.
</event>
<event>
 5   1  0.2192208E+09  0.9118800E+02  0.7818608E-02  0.1180000E+00
       11   -1    0    0    0    0  0.00000000000E+00  0.00000000000E+00  0.10559998763E+01  0.10560000000E+01  0.51109989000E-03 0. -1.
     -623   -1    0    0    0    0  0.00000000000E+00  0.00000000000E+00  0.47855275298E-10  0.17124000000E+03  0.17124000000E+03 0. -1.
       11    1    1    2    0    0  0.51878705326E-02 -0.50526121280E-02  0.49497948086E+00  0.49503271668E+00  0.51109989000E-03 0. -1.
     -623    1    1    2    0    0 -0.16259602761E-01  0.11759025764E-01  0.20365668713E-03  0.17124000118E+03  0.17124000000E+03 0. -1.
       22    1    1    2    0    0  0.11071732241E-01 -0.67064136448E-02  0.56081673962E+00  0.56096610832E+00  0.00000000000E+00 0. -1.
</event>
<event>
 5   1  0.2192208E+09  0.9118800E+02  0.7818608E-02  0.1180000E+00
       11   -1    0    0    0    0  0.00000000000E+00  0.00000000000E+00  0.10559998763E+01  0.10560000000E+01  0.51109989000E-03 0. -1.
     -623   -1    0    0    0    0  0.00000000000E+00  0.00000000000E+00  0.47855275298E-10  0.17124000000E+03  0.17124000000E+03 0. -1.
       11    1    1    2    0    0  0.26133153164E-02 -0.38184988762E-02  0.91790661451E+00  0.91791841932E+00  0.51109989000E-03 0. -1.
     -623    1    1    2    0    0 -0.31876837547E-02  0.23528537380E-02  0.20700316950E-04  0.17124000005E+03  0.17124000000E+03 0. -1.
       22    1    1    2    0    0  0.57436844644E-03  0.14656451321E-02  0.13807256424E+00  0.13808153755E+00  0.00000000000E+00 0.  1.
</event>
<event>
 5   1  0.2192208E+09  0.9118800E+02  0.7818608E-02  0.1180000E+00
       11   -1    0    0    0    0  0.00000000000E+00  0.00000000000E+00  0.10559998763E+01  0.10560000000E+01  0.51109989000E-03 0. -1.
     -623   -1    0    0    0    0  0.00000000000E+00  0.00000000000E+00  0.47855275298E-10  0.17124000000E+03  0.17124000000E+03 0.  1.
       11    1    1    2    0    0  0.41675422890E-03  0.10795549666E-01  0.93437490383E+00  0.93443749910E+00  0.51109989000E-03 0. -1.
     -623    1    1    2    0    0 -0.47846744530E-03 -0.12112807632E-01  0.70053553076E-04  0.17124000043E+03  0.17124000000E+03 0.  1.
       22    1    1    2    0    0  0.61712080085E-04  0.13172291995E-02  0.12155241123E+00  0.12155956391E+00  0.00000000000E+00 0. -1.
</event>
<event>
 5   1  0.2192208E+09  0.9118800E+02  0.7818608E-02  0.1180000E+00
       11   -1    0    0    0    0  0.00000000000E+00  0.00000000000E+00  0.10559998763E+01  0.10560000000E+01  0.51109989000E-03 0. -1.
     -623   -1    0    0    0    0  0.00000000000E+00  0.00000000000E+00  0.47855275298E-10  0.17124000000E+03  0.17124000000E+03 0.  1.
       11    1    1    2    0    0  0.19047745363E-02  0.45226869876E-02  0.80198012371E+00  0.80199530106E+00  0.51109989000E-03 0. -1.
     -623    1    1    2    0    0 -0.20109883653E-03  0.29149317280E-03  0.66394627950E-04  0.17124000000E+03  0.17124000000E+03 0.  1.
       22    1    1    2    0    0 -0.17036757003E-02 -0.48141801597E-02  0.25395335547E+00  0.25400469601E+00  0.00000000000E+00 0.  1.
</event>
<event>
 5   1  0.2192208E+09  0.9118800E+02  0.7818608E-02  0.1180000E+00
       11   -1    0    0    0    0  0.00000000000E+00  0.00000000000E+00  0.10559998763E+01  0.10560000000E+01  0.51109989000E-03 0. -1.
     -623   -1    0    0    0    0  0.00000000000E+00  0.00000000000E+00  0.47855275298E-10  0.17124000000E+03  0.17124000000E+03 0. -1.
       11    1    1    2    0    0 -0.47457884618E-02 -0.70191375321E-02  0.80427204472E+00  0.80431683679E+00  0.51109989000E-03 0. -1.
     -623    1    1    2    0    0  0.37315048299E-02  0.23498474519E-02  0.90086043728E-04  0.17124000006E+03  0.17124000000E+03 0. -1.
       22    1    1    2    0    0  0.10142836294E-02  0.46692900787E-02  0.25163774630E+00  0.25168310711E+00  0.00000000000E+00 0. -1.
</event>
<event>
 5   1  0.2192208E+09  0.9118800E+02  0.7818608E-02  0.1180000E+00
       11   -1    0    0    0    0  0.00000000000E+00  0.00000000000E+00  0.10559998763E+01  0.10560000000E+01  0.51109989000E-03 0. -1.
     -623   -1    0    0    0    0  0.00000000000E+00  0.00000000000E+00  0.47855275298E-10  0.17124000000E+03  0.17124000000E+03 0.  1.
       11    1    1    2    0    0  0.29274341397E-02  0.74824960539E-02  0.72755659967E+00  0.72760114388E+00  0.51109989000E-03 0. -1.
     -623    1    1    2    0    0 -0.39718920289E-02 -0.11116547963E-01  0.66596302397E-04  0.17124000041E+03  0.17124000000E+03 0.  1.
       22    1    1    2    0    0  0.10444614888E-02  0.36340619839E-02  0.32837763733E+00  0.32839940622E+00  0.00000000000E+00 0. -1.
</event>
<event>
 5   1  0.2192208E+09  0.9118800E+02  0.7818608E-02  0.1180000E+00
       11   -1    0    0    0    0  0.00000000000E+00  0.00000000000E+00  0.10559998763E+01  0.10560000000E+01  0.51109989000E-03 0. -1.
     -623   -1    0    0    0    0  0.00000000000E+00  0.00000000000E+00  0.47855275298E-10  0.17124000000E+03  0.17124000000E+03 0. -1.
       11    1    1    2    0    0  0.20798546582E-02  0.38361790849E-03  0.96843604390E+00  0.96843848814E+00  0.51109989000E-03 0. -1.
     -623    1    1    2    0    0 -0.10955399974E-02  0.72378624998E-03  0.14861831812E-04  0.17124000001E+03  0.17124000000E+03 0. -1.
       22    1    1    2    0    0 -0.98431466231E-03 -0.11074041575E-02  0.87548969215E-01  0.87561505411E-01  0.00000000000E+00 0. -1.
</event>
<event>
 5   1  0.2192208E+09  0.9118800E+02  0.7818608E-02  0.1180000E+00
       11   -1    0    0    0    0  0.00000000000E+00  0.00000000000E+00  0.10559998763E+01  0.10560000000E+01  0.51109989000E-03 0.  1.
     -623   -1    0    0    0    0  0.00000000000E+00  0.00000000000E+00  0.47855275298E-10  0.17124000000E+03  0.17124000000E+03 0.  1.
       11    1    1    2    0    0  0.10023376883E-02 -0.68147721717E-03  0.98157215757E+00  0.98157303897E+00  0.51109989000E-03 0.  1.
     -623    1    1    2    0    0 -0.62202524433E-03 -0.92988089932E-04  0.57601920314E-05  0.17124000000E+03  0.17124000000E+03 0.  1.
       22    1    1    2    0    0 -0.38031245503E-03  0.77446530544E-03  0.74421939742E-01  0.74426941016E-01  0.00000000000E+00 0.  1.
</event>
<event>
 5   1  0.2192208E+09  0.9118800E+02  0.7818608E-02  0.1180000E+00
       11   -1    0    0    0    0  0.00000000000E+00  0.00000000000E+00  0.10559998763E+01  0.10560000000E+01  0.51109989000E-03 0. -1.
     -623   -1    0    0    0    0  0.00000000000E+00  0.00000000000E+00  0.47855275298E-10  0.17124000000E+03  0.17124000000E+03 0. -1.
       11    1    1    2    0    0 -0.32726826497E-02 -0.16569253927E-01  0.22290074606E+00  0.22354027477E+00  0.51109989000E-03 0. -1.
     -623    1    1    2    0    0  0.20540261034E-01  0.66585807852E-01  0.23369873554E-02  0.17124001419E+03  0.17124000000E+03 0. -1.
       22    1    1    2    0    0 -0.17267578744E-01 -0.50016555094E-01  0.83076216145E+00  0.83244555014E+00  0.00000000000E+00 0. -1.
</event>
<event>
 5   1  0.2192208E+09  0.9118800E+02  0.7818608E-02  0.1180000E+00
       11   -1    0    0    0    0  0.00000000000E+00  0.00000000000E+00  0.10559998763E+01  0.10560000000E+01  0.51109989000E-03 0.  1.
     -623   -1    0    0    0    0  0.00000000000E+00  0.00000000000E+00  0.47855275298E-10  0.17124000000E+03  0.17124000000E+03 0.  1.
       11    1    1    2    0    0 -0.19770529789E-01 -0.29847604555E-01  0.97059758803E+00  0.97125778888E+00  0.51109989000E-03 0.  1.
     -623    1    1    2    0    0  0.21395539126E-01  0.31429804975E-01  0.69465749973E-03  0.17124000422E+03  0.17124000000E+03 0.  1.
       22    1    1    2    0    0 -0.16250108444E-02 -0.15822026348E-02  0.84707705206E-01  0.84738063152E-01  0.00000000000E+00 0.  1.
</event>
<event>
 5   1  0.2192208E+09  0.9118800E+02  0.7818608E-02  0.1180000E+00
       11   -1    0    0    0    0  0.00000000000E+00  0.00000000000E+00  0.10559998763E+01  0.10560000000E+01  0.51109989000E-03 0. -1.
     -623   -1    0    0    0    0  0.00000000000E+00  0.00000000000E+00  0.47855275298E-10  0.17124000000E+03  0.17124000000E+03 0.  1.
       11    1    1    2    0    0  0.40135834270E-02 -0.77035968961E-02  0.78999202209E+00  0.79003994231E+00  0.51109989000E-03 0. -1.
     -623    1    1    2    0    0 -0.46350938602E-02  0.10896518469E-01  0.68098920972E-04  0.17124000041E+03  0.17124000000E+03 0.  1.
       22    1    1    2    0    0  0.62151010259E-03 -0.31929207952E-02  0.26593968002E+00  0.26595957292E+00  0.00000000000E+00 0. -1.
</event>
<event>
 5   1  0.2192208E+09  0.9118800E+02  0.7818608E-02  0.1180000E+00
       11   -1    0    0    0    0  0.00000000000E+00  0.00000000000E+00  0.10559998763E+01  0.10560000000E+01  0.51109989000E-03 0. -1.
     -623   -1    0    0    0    0  0.00000000000E+00  0.00000000000E+00  0.47855275298E-10  0.17124000000E+03  0.17124000000E+03 0. -1.
       11    1    1    2    0    0  0.10775493342E-02  0.26839806377E-02  0.81516112789E+00  0.81516641891E+00  0.51109989000E-03 0. -1.
     -623    1    1    2    0    0  0.27436422677E-03 -0.56856843057E-04  0.23291697297E-04  0.17124000000E+03  0.17124000000E+03 0. -1.
       22    1    1    2    0    0 -0.13519135614E-02 -0.26271237946E-02  0.24081545813E+00  0.24083358222E+00  0.00000000000E+00 0.  1.
</event>
<event>
 5   1  0.2192208E+09  0.9118800E+02  0.7818608E-02  0.1180000E+00
       11   -1    0    0    0    0  0.00000000000E+00  0.00000000000E+00  0.10559998763E+01  0.10560000000E+01  0.51109989000E-03 0. -1.
     -623   -1    0    0    0    0  0.00000000000E+00  0.00000000000E+00  0.47855275298E-10  0.17124000000E+03  0.17124000000E+03 0.  1.
       11    1    1    2    0    0  0.42729815188E-03  0.14008599770E-02  0.98506224837E+00  0.98506346973E+00  0.51109989000E-03 0. -1.
     -623    1    1    2    0    0 -0.37106561628E-03  0.20108266795E-03  0.19210979530E-04  0.17124000000E+03  0.17124000000E+03 0.  1.
       22    1    1    2    0    0 -0.56232535574E-04 -0.16019426450E-02  0.70918417068E-01  0.70936529811E-01  0.00000000000E+00 0.  1.
</event>
<event>
 5   1  0.2192208E+09  0.9118800E+02  0.7818608E-02  0.1180000E+00
       11   -1    0    0    0    0  0.00000000000E+00  0.00000000000E+00  0.10559998763E+01  0.10560000000E+01  0.51109989000E-03 0.  1.
     -623   -1    0    0    0    0  0.00000000000E+00  0.00000000000E+00  0.47855275298E-10  0.17124000000E+03  0.17124000000E+03 0. -1.
       11    1    1    2    0    0 -0.26849446791E-03 -0.12700065264E-02  0.94465993908E+00  0.94466096920E+00  0.51109989000E-03 0.  1.
     -623    1    1    2    0    0 -0.36640292667E-04  0.19830964200E-04  0.83436907719E-05  0.17124000000E+03  0.17124000000E+03 0. -1.
       22    1    1    2    0    0  0.30513476029E-03  0.12501755623E-02  0.11133158547E+00  0.11133902267E+00  0.00000000000E+00 0. -1.
</event>
<event>
 5   1  0.2192208E+09  0.9118800E+02  0.7818608E-02  0.1180000E+00
       11   -1    0    0    0    0  0.00000000000E+00  0.00000000000E+00  0.10559998763E+01  0.10560000000E+01  0.51109989000E-03 0.  1.
     -623   -1    0    0    0    0  0.00000000000E+00  0.00000000000E+00  0.47855275298E-10  0.17124000000E+03  0.17124000000E+03 0.  1.
       11    1    1    2    0    0  0.17602441850E-01 -0.81285855739E-02  0.93168732591E+00  0.93188918566E+00  0.51109989000E-03 0.  1.
     -623    1    1    2    0    0 -0.17440429061E-01  0.97146535911E-02  0.21314074039E-03  0.17124000116E+03  0.17124000000E+03 0.  1.
       22    1    1    2    0    0 -0.16201250083E-03 -0.15860681777E-02  0.12409942717E+00  0.12410966797E+00  0.00000000000E+00 0. -1.
</event>
<event>
 5   1  0.2192208E+09  0.9118800E+02  0.7818608E-02  0.1180000E+00
       11   -1    0    0    0    0  0.00000000000E+00  0.00000000000E+00  0.10559998763E+01  0.10560000000E+01  0.51109989000E-03 0.  1.
     -623   -1    0    0    0    0  0.00000000000E+00  0.00000000000E+00  0.47855275298E-10  0.17124000000E+03  0.17124000000E+03 0.  1.
       11    1    1    2    0    0 -0.81770098298E-02  0.64558764656E-02  0.65439491475E+00  0.65447804203E+00  0.51109989000E-03 0.  1.
     -623    1    1    2    0    0  0.10866226695E-01 -0.10848803594E-01  0.11672994651E-03  0.17124000069E+03  0.17124000000E+03 0.  1.
       22    1    1    2    0    0 -0.26892168963E-02  0.43929271600E-02  0.40148823474E+00  0.40152127257E+00  0.00000000000E+00 0.  1.
</event>
<event>
 5   1  0.2192208E+09  0.9118800E+02  0.7818608E-02  0.1180000E+00
       11   -1    0    0    0    0  0.00000000000E+00  0.00000000000E+00  0.10559998763E+01  0.10560000000E+01  0.51109989000E-03 0.  1.
     -623   -1    0    0    0    0  0.00000000000E+00  0.00000000000E+00  0.47855275298E-10  0.17124000000E+03  0.17124000000E+03 0. -1.
       11    1    1    2    0    0 -0.55745559934E-02  0.13457041192E-01  0.96013958058E+00  0.96025019815E+00  0.51109989000E-03 0.  1.
     -623    1    1    2    0    0  0.58475790488E-02 -0.14859863353E-01  0.12190481832E-03  0.17124000074E+03  0.17124000000E+03 0. -1.
       22    1    1    2    0    0 -0.27302393907E-03  0.14028244069E-02  0.95738550529E-01  0.95749216790E-01  0.00000000000E+00 0.  1.
</event>
<event>
 5   1  0.2192208E+09  0.9118800E+02  0.7818608E-02  0.1180000E+00
       11   -1    0    0    0    0  0.00000000000E+00  0.00000000000E+00  0.10559998763E+01  0.10560000000E+01  0.51109989000E-03 0.  1.
     -623   -1    0    0    0    0  0.00000000000E+00  0.00000000000E+00  0.47855275298E-10  0.17124000000E+03  0.17124000000E+03 0.  1.
       11    1    1    2    0    0  0.61004303762E-02 -0.18645908968E-01  0.94061737881E+00  0.94082208717E+00  0.51109989000E-03 0.  1.
     -623    1    1    2    0    0 -0.68059852276E-02  0.20821068878E-01  0.22868868472E-03  0.17124000140E+03  0.17124000000E+03 0.  1.
       22    1    1    2    0    0  0.70555547869E-03 -0.21751618294E-02  0.11515390619E+00  0.11517660894E+00  0.00000000000E+00 0. -1.
</event>
<event>
 5   1  0.2192208E+09  0.9118800E+02  0.7818608E-02  0.1180000E+00
       11   -1    0    0    0    0  0.00000000000E+00  0.00000000000E+00  0.10559998763E+01  0.10560000000E+01  0.51109989000E-03 0. -1.
     -623   -1    0    0    0    0  0.00000000000E+00  0.00000000000E+00  0.47855275298E-10  0.17124000000E+03  0.17124000000E+03 0.  1.
       11    1    1    2    0    0  0.33266820789E-02  0.12421969814E-02  0.45071579519E+00  0.45073007347E+00  0.51109989000E-03 0. -1.
     -623    1    1    2    0    0 -0.47920668190E-02 -0.87584817073E-02  0.62890405577E-04  0.17124000029E+03  0.17124000000E+03 0.  1.
       22    1    1    2    0    0  0.14653847533E-02  0.75162847502E-02  0.60522119369E+00  0.60526963841E+00  0.00000000000E+00 0. -1.
</event>
<event>
 5   1  0.2192208E+09  0.9118800E+02  0.7818608E-02  0.1180000E+00
       11   -1    0    0    0    0  0.00000000000E+00  0.00000000000E+00  0.10559998763E+01  0.10560000000E+01  0.51109989000E-03 0.  1.
     -623   -1    0    0    0    0  0.00000000000E+00  0.00000000000E+00  0.47855275298E-10  0.17124000000E+03  0.17124000000E+03 0. -1.
       11    1    1    2    0    0 -0.32665702533E-03 -0.17059681237E-02  0.92528027825E+00  0.92528204974E+00  0.51109989000E-03 0.  1.
     -623    1    1    2    0    0  0.14362024781E-04  0.13965604950E-04  0.12971966887E-04  0.17124000000E+03  0.17124000000E+03 0. -1.
       22    1    1    2    0    0  0.31229500064E-03  0.16920025189E-02  0.13070661978E+00  0.13071794389E+00  0.00000000000E+00 0. -1.
</event>
<event>
 5   1  0.2192208E+09  0.9118800E+02  0.7818608E-02  0.1180000E+00
       11   -1    0    0    0    0  0.00000000000E+00  0.00000000000E+00  0.10559998763E+01  0.10560000000E+01  0.51109989000E-03 0. -1.
     -623   -1    0    0    0    0  0.00000000000E+00  0.00000000000E+00  0.47855275298E-10  0.17124000000E+03  0.17124000000E+03 0.  1.
       11    1    1    2    0    0 -0.18458576129E-03  0.13052177129E-02  0.10002567971E+01  0.10002577963E+01  0.51109989000E-03 0. -1.
     -623    1    1    2    0    0  0.41136603816E-04  0.81306675097E-05  0.16534313827E-04  0.17124000000E+03  0.17124000000E+03 0.  1.
       22    1    1    2    0    0  0.14344915806E-03 -0.13133483802E-02  0.55726529844E-01  0.55742188602E-01  0.00000000000E+00 0. -1.
</event>
<event>
 5   1  0.2192208E+09  0.9118800E+02  0.7818608E-02  0.1180000E+00
       11   -1    0    0    0    0  0.00000000000E+00  0.00000000000E+00  0.10559998763E+01  0.10560000000E+01  0.51109989000E-03 0. -1.
     -623   -1    0    0    0    0  0.00000000000E+00  0.00000000000E+00  0.47855275298E-10  0.17124000000E+03  0.17124000000E+03 0.  1.
       11    1    1    2    0    0  0.77626496805E-02  0.46194352607E-02  0.64475849428E+00  0.64482197161E+00  0.51109989000E-03 0. -1.
     -623    1    1    2    0    0 -0.94866807442E-04  0.27645709532E-03  0.16400968466E-03  0.17124000000E+03  0.17124000000E+03 0.  1.
       22    1    1    2    0    0 -0.76677828731E-02 -0.48958923560E-02  0.41107737211E+00  0.41117802776E+00  0.00000000000E+00 0. -1.
</event>
<event>
 5   1  0.2192208E+09  0.9118800E+02  0.7818608E-02  0.1180000E+00
       11   -1    0    0    0    0  0.00000000000E+00  0.00000000000E+00  0.10559998763E+01  0.10560000000E+01  0.51109989000E-03 0. -1.
     -623   -1    0    0    0    0  0.00000000000E+00  0.00000000000E+00  0.47855275298E-10  0.17124000000E+03  0.17124000000E+03 0. -1.
       11    1    1    2    0    0  0.17519343758E-04  0.65849181921E-03  0.99968637004E+00  0.99968671772E+00  0.51109989000E-03 0. -1.
     -623    1    1    2    0    0 -0.24464302528E-04 -0.55790471224E-04  0.34498256634E-05  0.17124000000E+03  0.17124000000E+03 0. -1.
       22    1    1    2    0    0  0.69449585772E-05 -0.60270134842E-03  0.56310048174E-01  0.56313273946E-01  0.00000000000E+00 0.  1.
</event>
<event>
 5   1  0.2192208E+09  0.9118800E+02  0.7818608E-02  0.1180000E+00
       11   -1    0    0    0    0  0.00000000000E+00  0.00000000000E+00  0.10559998763E+01  0.10560000000E+01  0.51109989000E-03 0. -1.
     -623   -1    0    0    0    0  0.00000000000E+00  0.00000000000E+00  0.47855275298E-10  0.17124000000E+03  0.17124000000E+03 0. -1.
       11    1    1    2    0    0 -0.14179683333E-01  0.14078383955E-01  0.97923937026E+00  0.97944334691E+00  0.51109989000E-03 0. -1.
     -623    1    1    2    0    0  0.15016624923E-01 -0.15048477779E-01  0.21589490155E-03  0.17124000132E+03  0.17124000000E+03 0. -1.
       22    1    1    2    0    0 -0.83695084368E-03  0.97010309670E-03  0.76545261780E-01  0.76555984010E-01  0.00000000000E+00 0.  1.
</event>
<event>
 5   1  0.2192208E+09  0.9118800E+02  0.7818608E-02  0.1180000E+00
       11   -1    0    0    0    0  0.00000000000E+00  0.00000000000E+00  0.10559998763E+01  0.10560000000E+01  0.51109989000E-03 0.  1.
     -623   -1    0    0    0    0  0.00000000000E+00  0.00000000000E+00  0.47855275298E-10  0.17124000000E+03  0.17124000000E+03 0. -1.
       11    1    1    2    0    0  0.87383501919E-02  0.53470172953E-02  0.51519582922E+00  0.51529792647E+00  0.51109989000E-03 0. -1.
     -623    1    1    2    0    0 -0.17363143502E-01 -0.11224524412E-01  0.20396364745E-03  0.17124000125E+03  0.17124000000E+03 0. -1.
       22    1    1    2    0    0  0.86247850820E-02  0.58775017974E-02  0.54059958318E+00  0.54070032484E+00  0.00000000000E+00 0.  1.
</event>
<event>
 5   1  0.2192208E+09  0.9118800E+02  0.7818608E-02  0.1180000E+00
       11   -1    0    0    0    0  0.00000000000E+00  0.00000000000E+00  0.10559998763E+01  0.10560000000E+01  0.51109989000E-03 0. -1.
     -623   -1    0    0    0    0  0.00000000000E+00  0.00000000000E+00  0.47855275298E-10  0.17124000000E+03  0.17124000000E+03 0.  1.
       11    1    1    2    0    0 -0.11684480846E-01 -0.18289566486E-01  0.97612183279E+00  0.97636321572E+00  0.51109989000E-03 0. -1.
     -623    1    1    2    0    0  0.12775159764E-01  0.19933361786E-01  0.26733417730E-03  0.17124000164E+03  0.17124000000E+03 0.  1.
       22    1    1    2    0    0 -0.10906766500E-02 -0.16437917616E-02  0.79610521965E-01  0.79634959876E-01  0.00000000000E+00 0.  1.
</event>
<event>
 5   1  0.2192208E+09  0.9118800E+02  0.7818608E-02  0.1180000E+00
       11   -1    0    0    0    0  0.00000000000E+00  0.00000000000E+00  0.10559998763E+01  0.10560000000E+01  0.51109989000E-03 0.  1.
     -623   -1    0    0    0    0  0.00000000000E+00  0.00000000000E+00  0.47855275298E-10  0.17124000000E+03  0.17124000000E+03 0. -1.
       11    1    1    2    0    0 -0.25656119089E-02  0.85045150398E-02  0.98655672279E+00  0.98659684657E+00  0.51109989000E-03 0.  1.
     -623    1    1    2    0    0  0.26536128775E-02 -0.92136563498E-02  0.43947374057E-04  0.17124000027E+03  0.17124000000E+03 0. -1.
       22    1    1    2    0    0 -0.88004766828E-04  0.70915449772E-03  0.69400717614E-01  0.69404396477E-01  0.00000000000E+00 0.  1.
</event>
<event>
 5   1  0.2192208E+09  0.9118800E+02  0.7818608E-02  0.1180000E+00
       11   -1    0    0    0    0  0.00000000000E+00  0.00000000000E+00  0.10559998763E+01  0.10560000000E+01  0.51109989000E-03 0.  1.
     -623   -1    0    0    0    0  0.00000000000E+00  0.00000000000E+00  0.47855275298E-10  0.17124000000E+03  0.17124000000E+03 0. -1.
       11    1    1    2    0    0 -0.72882672289E-03 -0.38773983483E-03  0.97339102948E+00  0.97339151374E+00  0.51109989000E-03 0.  1.
     -623    1    1    2    0    0  0.17277014297E-02  0.14963404656E-02  0.13854683182E-04  0.17124000002E+03  0.17124000000E+03 0. -1.
       22    1    1    2    0    0 -0.99887477855E-03 -0.11086006930E-02  0.82595036077E-01  0.82608514881E-01  0.00000000000E+00 0.  1.
</event>
<event>
 5   1  0.2192208E+09  0.9118800E+02  0.7818608E-02  0.1180000E+00
       11   -1    0    0    0    0  0.00000000000E+00  0.00000000000E+00  0.10559998763E+01  0.10560000000E+01  0.51109989000E-03 0.  1.
     -623   -1    0    0    0    0  0.00000000000E+00  0.00000000000E+00  0.47855275298E-10  0.17124000000E+03  0.17124000000E+03 0. -1.
       11    1    1    2    0    0  0.10306548391E-02  0.47211922133E-02  0.76475148010E+00  0.76476691838E+00  0.51109989000E-03 0.  1.
     -623    1    1    2    0    0  0.68962661180E-04  0.61807075937E-04  0.56669782276E-04  0.17124000000E+03  0.17124000000E+03 0. -1.
       22    1    1    2    0    0 -0.10996175003E-02 -0.47829992893E-02  0.29119172692E+00  0.29123308203E+00  0.00000000000E+00 0.  1.
</event>
<event>
 5   1  0.2192208E+09  0.9118800E+02  0.7818608E-02  0.1180000E+00
       11   -1    0    0    0    0  0.00000000000E+00  0.00000000000E+00  0.10559998763E+01  0.10560000000E+01  0.51109989000E-03 0. -1.
     -623   -1    0    0    0    0  0.00000000000E+00  0.00000000000E+00  0.47855275298E-10  0.17124000000E+03  0.17124000000E+03 0.  1.
       11    1    1    2    0    0  0.19031533613E-02 -0.12058747303E-01  0.59556899838E+00  0.59569432466E+00  0.51109989000E-03 0. -1.
     -623    1    1    2    0    0  0.15971196727E-02  0.39540006625E-02  0.20992352863E-03  0.17124000005E+03  0.17124000000E+03 0.  1.
       22    1    1    2    0    0 -0.35002730351E-02  0.81047466383E-02  0.46022095513E+00  0.46030562279E+00  0.00000000000E+00 0.  1.
</event>
<event>
 5   1  0.2192208E+09  0.9118800E+02  0.7818608E-02  0.1180000E+00
       11   -1    0    0    0    0  0.00000000000E+00  0.00000000000E+00  0.10559998763E+01  0.10560000000E+01  0.51109989000E-03 0.  1.
     -623   -1    0    0    0    0  0.00000000000E+00  0.00000000000E+00  0.47855275298E-10  0.17124000000E+03  0.17124000000E+03 0.  1.
       11    1    1    2    0    0  0.77482223636E-03  0.76893948405E-03  0.95867034448E+00  0.95867110221E+00  0.51109989000E-03 0.  1.
     -623    1    1    2    0    0 -0.24356092307E-04  0.33448852281E-03  0.97829788515E-05  0.17124000000E+03  0.17124000000E+03 0.  1.
       22    1    1    2    0    0 -0.75046614415E-03 -0.11034280055E-02  0.97319744674E-01  0.97328893224E-01  0.00000000000E+00 0. -1.
</event>
<event>
 5   1  0.2192208E+09  0.9118800E+02  0.7818608E-02  0.1180000E+00
       11   -1    0    0    0    0  0.00000000000E+00  0.00000000000E+00  0.10559998763E+01  0.10560000000E+01  0.51109989000E-03 0. -1.
     -623   -1    0    0    0    0  0.00000000000E+00  0.00000000000E+00  0.47855275298E-10  0.17124000000E+03  0.17124000000E+03 0. -1.
       11    1    1    2    0    0 -0.45839225916E-02  0.60090147360E-02  0.92854880056E+00  0.92857969871E+00  0.51109989000E-03 0. -1.
     -623    1    1    2    0    0  0.58799939078E-02 -0.73683400613E-02  0.44877023400E-04  0.17124000026E+03  0.17124000000E+03 0. -1.
       22    1    1    2    0    0 -0.12960706074E-02  0.13593244372E-02  0.12740607150E+00  0.12741991452E+00  0.00000000000E+00 0. -1.
</event>
<event>
 5   1  0.2192208E+09  0.9118800E+02  0.7818608E-02  0.1180000E+00
       11   -1    0    0    0    0  0.00000000000E+00  0.00000000000E+00  0.10559998763E+01  0.10560000000E+01  0.51109989000E-03 0. -1.
     -623   -1    0    0    0    0  0.00000000000E+00  0.00000000000E+00  0.47855275298E-10  0.17124000000E+03  0.17124000000E+03 0.  1.
       11    1    1    2    0    0 -0.45304094480E-03  0.77759909723E-03  0.99915229771E+00  0.99915283373E+00  0.51109989000E-03 0. -1.
     -623    1    1    2    0    0  0.27851062856E-05 -0.19993728938E-03  0.51308107896E-05  0.17124000000E+03  0.17124000000E+03 0.  1.
       22    1    1    2    0    0  0.45025583841E-03 -0.57766179978E-03  0.56842490434E-01  0.56847208746E-01  0.00000000000E+00 0.  1.
</event>
<event>
 5   1  0.2192208E+09  0.9118800E+02  0.7818608E-02  0.1180000E+00
       11   -1    0    0    0    0  0.00000000000E+00  0.00000000000E+00  0.10559998763E+01  0.10560000000E+01  0.51109989000E-03 0.  1.
     -623   -1    0    0    0    0  0.00000000000E+00  0.00000000000E+00  0.47855275298E-10  0.17124000000E+03  0.17124000000E+03 0.  1.
       11    1    1    2    0    0 -0.91735273665E-03  0.31379364543E-02  0.48956118452E+00  0.48957236727E+00  0.51109989000E-03 0.  1.
     -623    1    1    2    0    0 -0.24832506372E-05 -0.12418288260E-01  0.88286211148E-04  0.17124000045E+03  0.17124000000E+03 0.  1.
       22    1    1    2    0    0  0.91983598728E-03  0.92803517741E-02  0.56635040293E+00  0.56642717972E+00  0.00000000000E+00 0. -1.
</event>
<event>
 5   1  0.2192208E+09  0.9118800E+02  0.7818608E-02  0.1180000E+00
       11   -1    0    0    0    0  0.00000000000E+00  0.00000000000E+00  0.10559998763E+01  0.10560000000E+01  0.51109989000E-03 0.  1.
     -623   -1    0    0    0    0  0.00000000000E+00  0.00000000000E+00  0.47855275298E-10  0.17124000000E+03  0.17124000000E+03 0. -1.
       11    1    1    2    0    0  0.96143672049E-03  0.12796778258E-02  0.92465784667E+00  0.92465937326E+00  0.51109989000E-03 0.  1.
     -623    1    1    2    0    0  0.57020916576E-04  0.46456402416E-03  0.16935259958E-04  0.17124000000E+03  0.17124000000E+03 0. -1.
       22    1    1    2    0    0 -0.10184576381E-02 -0.17442418586E-02  0.13132511399E+00  0.13134064565E+00  0.00000000000E+00 0.  1.
</event>
<event>
 5   1  0.2192208E+09  0.9118800E+02  0.7818608E-02  0.1180000E+00
       11   -1    0    0    0    0  0.00000000000E+00  0.00000000000E+00  0.10559998763E+01  0.10560000000E+01  0.51109989000E-03 0.  1.
     -623   -1    0    0    0    0  0.00000000000E+00  0.00000000000E+00  0.47855275298E-10  0.17124000000E+03  0.17124000000E+03 0.  1.
       11    1    1    2    0    0 -0.50290680741E-03 -0.10315135035E-01  0.97739491262E+00  0.97744960553E+00  0.51109989000E-03 0.  1.
     -623    1    1    2    0    0  0.63672283117E-03  0.11117651780E-01  0.59144981837E-04  0.17124000036E+03  0.17124000000E+03 0.  1.
       22    1    1    2    0    0 -0.13381650033E-03 -0.80252506680E-03  0.78546609105E-01  0.78550822753E-01  0.00000000000E+00 0. -1.
</event>
<event>
 5   1  0.2192208E+09  0.9118800E+02  0.7818608E-02  0.1180000E+00
       11   -1    0    0    0    0  0.00000000000E+00  0.00000000000E+00  0.10559998763E+01  0.10560000000E+01  0.51109989000E-03 0.  1.
     -623   -1    0    0    0    0  0.00000000000E+00  0.00000000000E+00  0.47855275298E-10  0.17124000000E+03  0.17124000000E+03 0. -1.
       11    1    1    2    0    0  0.28594523218E-03  0.90990952652E-02  0.79214091680E+00  0.79219339091E+00  0.51109989000E-03 0.  1.
     -623    1    1    2    0    0 -0.10087681028E-02 -0.12017925664E-01  0.69913393692E-04  0.17124000042E+03  0.17124000000E+03 0. -1.
       22    1    1    2    0    0  0.72282262289E-03  0.29188274471E-02  0.26378878684E+00  0.26380592504E+00  0.00000000000E+00 0.  1.
</event>
<event>
 5   1  0.2192208E+09  0.9118800E+02  0.7818608E-02  0.1180000E+00
       11   -1    0    0    0    0  0.00000000000E+00  0.00000000000E+00  0.10559998763E+01  0.10560000000E+01  0.51109989000E-03 0.  1.
     -623   -1    0    0    0    0  0.00000000000E+00  0.00000000000E+00  0.47855275298E-10  0.17124000000E+03  0.17124000000E+03 0. -1.
       11    1    1    2    0    0 -0.71197719733E-02 -0.17144690204E-01  0.65541899694E+00  0.65568205277E+00  0.51109989000E-03 0.  1.
     -623    1    1    2    0    0 -0.49083512542E-02  0.26507157911E-02  0.70635670718E-03  0.17124000009E+03  0.17124000000E+03 0. -1.
       22    1    1    2    0    0  0.12028123231E-01  0.14493974412E-01  0.39987452337E+00  0.40031785556E+00  0.00000000000E+00 0.  1.
</event>
<event>
 5   1  0.2192208E+09  0.9118800E+02  0.7818608E-02  0.1180000E+00
       11   -1    0    0    0    0  0.00000000000E+00  0.00000000000E+00  0.10559998763E+01  0.10560000000E+01  0.51109989000E-03 0. -1.
     -623   -1    0    0    0    0  0.00000000000E+00  0.00000000000E+00  0.47855275298E-10  0.17124000000E+03  0.17124000000E+03 0. -1.
       11    1    1    2    0    0 -0.20658610291E-02  0.23726298310E-02  0.57184235635E+00  0.57185123843E+00  0.51109989000E-03 0. -1.
     -623    1    1    2    0    0 -0.16245526003E-02  0.48292025816E-02  0.76468563407E-04  0.17124000008E+03  0.17124000000E+03 0. -1.
       22    1    1    2    0    0  0.36904136251E-02 -0.72018324001E-02  0.48408104871E+00  0.48414868301E+00  0.00000000000E+00 0. -1.
</event>
<event>
 5   1  0.2192208E+09  0.9118800E+02  0.7818608E-02  0.1180000E+00
       11   -1    0    0    0    0  0.00000000000E+00  0.00000000000E+00  0.10559998763E+01  0.10560000000E+01  0.51109989000E-03 0.  1.
     -623   -1    0    0    0    0  0.00000000000E+00  0.00000000000E+00  0.47855275298E-10  0.17124000000E+03  0.17124000000E+03 0. -1.
       11    1    1    2    0    0 -0.60827012405E-03  0.14792988497E-01  0.99062738081E+00  0.99073814469E+00  0.51109989000E-03 0.  1.
     -623    1    1    2    0    0  0.56860678303E-03 -0.15708233992E-01  0.11779193368E-03  0.17124000072E+03  0.17124000000E+03 0. -1.
       22    1    1    2    0    0  0.39663172939E-04  0.91525013832E-03  0.65255015734E-01  0.65261446003E-01  0.00000000000E+00 0. -1.
</event>
<event>
 5   1  0.2192208E+09  0.9118800E+02  0.7818608E-02  0.1180000E+00
       11   -1    0    0    0    0  0.00000000000E+00  0.00000000000E+00  0.10559998763E+01  0.10560000000E+01  0.51109989000E-03 0. -1.
     -623   -1    0    0    0    0  0.00000000000E+00  0.00000000000E+00  0.47855275298E-10  0.17124000000E+03  0.17124000000E+03 0.  1.
       11    1    1    2    0    0  0.21965881608E-01  0.12453920134E-01  0.97444985388E+00  0.97477709197E+00  0.51109989000E-03 0. -1.
     -623    1    1    2    0    0 -0.23515953032E-01 -0.13620775856E-01  0.35244763087E-03  0.17124000216E+03  0.17124000000E+03 0.  1.
       22    1    1    2    0    0  0.15500739748E-02  0.11668571993E-02  0.81197689346E-01  0.81220865793E-01  0.00000000000E+00 0.  1.
</event>
<event>
 5   1  0.2192208E+09  0.9118800E+02  0.7818608E-02  0.1180000E+00
       11   -1    0    0    0    0  0.00000000000E+00  0.00000000000E+00  0.10559998763E+01  0.10560000000E+01  0.51109989000E-03 0. -1.
     -623   -1    0    0    0    0  0.00000000000E+00  0.00000000000E+00  0.47855275298E-10  0.17124000000E+03  0.17124000000E+03 0. -1.
       11    1    1    2    0    0 -0.35662419244E-03 -0.40232506023E-02  0.98896184801E+00  0.98897022795E+00  0.51109989000E-03 0. -1.
     -623    1    1    2    0    0  0.21717839088E-02  0.20983288231E-02  0.60519875856E-04  0.17124000003E+03  0.17124000000E+03 0. -1.
       22    1    1    2    0    0 -0.18151597238E-02  0.19249217720E-02  0.66977512119E-01  0.67029749054E-01  0.00000000000E+00 0.  1.
</event>
<event>
 5   1  0.2192208E+09  0.9118800E+02  0.7818608E-02  0.1180000E+00
       11   -1    0    0    0    0  0.00000000000E+00  0.00000000000E+00  0.10559998763E+01  0.10560000000E+01  0.51109989000E-03 0. -1.
     -623   -1    0    0    0    0  0.00000000000E+00  0.00000000000E+00  0.47855275298E-10  0.17124000000E+03  0.17124000000E+03 0. -1.
       11    1    1    2    0    0  0.34676920585E-02 -0.36793884236E-02  0.70171058135E+00  0.70172898186E+00  0.51109989000E-03 0. -1.
     -623    1    1    2    0    0  0.11624465151E-03  0.85104987111E-05  0.55425502178E-04  0.17124000000E+03  0.17124000000E+03 0. -1.
       22    1    1    2    0    0 -0.35839367097E-02  0.36708779249E-02  0.35423386685E+00  0.35427101543E+00  0.00000000000E+00 0. -1.
</event>
<event>
 5   1  0.2192208E+09  0.9118800E+02  0.7818608E-02  0.1180000E+00
       11   -1    0    0    0    0  0.00000000000E+00  0.00000000000E+00  0.10559998763E+01  0.10560000000E+01  0.51109989000E-03 0. -1.
     -623   -1    0    0    0    0  0.00000000000E+00  0.00000000000E+00  0.47855275298E-10  0.17124000000E+03  0.17124000000E+03 0. -1.
       11    1    1    2    0    0  0.11734293070E-02 -0.17992225292E-03  0.97577059575E+00  0.97577145175E+00  0.51109989000E-03 0. -1.
     -623    1    1    2    0    0 -0.75308507898E-03  0.10351344356E-02  0.63966662742E-05  0.17124000000E+03  0.17124000000E+03 0. -1.
       22    1    1    2    0    0 -0.42034420992E-03 -0.85521220757E-03  0.80222909308E-01  0.80228568821E-01  0.00000000000E+00 0.  1.
</event>
