<event>
 6   3  0.4012498E+04  0.9118800E+02  0.7818608E-02  0.1180000E+00
       11   -1    0    0    0    0  0.00000000000E+00  0.00000000000E+00  0.54999999763E+01  0.55000000000E+01  0.51109989000E-03 0. -1.
     -623   -1    0    0    0    0  0.00000000000E+00  0.00000000000E+00  0.93234578044E-11  0.17124000000E+03  0.17124000000E+03 0. -1.
       11    1    1    2    0    0  0.31962476204E-01 -0.20951412618E-01  0.10029058211E+01  0.10036338519E+01  0.51109989000E-03 0. -1.
     -623    1    1    2    0    0  0.58294597258E-03 -0.32934867089E-02  0.28119844577E-02  0.17124000006E+03  0.17124000000E+03 0. -1.
     -611    1    1    2    0    0  0.39181127107E-01 -0.25950999090E-01  0.11980758604E+01  0.11989973492E+01  0.51109989000E-03 0. -1.
      611    1    1    2    0    0 -0.71726549284E-01  0.50195898417E-01  0.32962063104E+01  0.32973687431E+01  0.51109989000E-03 0.  1.
</event>
<event>
 6   3  0.4012498E+04  0.9118800E+02  0.7818608E-02  0.1180000E+00
       11   -1    0    0    0    0  0.00000000000E+00  0.00000000000E+00  0.54999999763E+01  0.55000000000E+01  0.51109989000E-03 0. -1.
     -623   -1    0    0    0    0  0.00000000000E+00  0.00000000000E+00  0.93234578044E-11  0.17124000000E+03  0.17124000000E+03 0. -1.
       11    1    1    2    0    0  0.13326804926E-02  0.11768517013E-01  0.70465925909E+00  0.70475897063E+00  0.51109989000E-03 0. -1.
     -623    1    1    2    0    0 -0.41060971514E-03  0.87672378468E-03  0.53671114781E-03  0.17124000000E+03  0.17124000000E+03 0. -1.
     -611    1    1    2    0    0 -0.30972466297E-01 -0.69878867642E-02  0.30859665087E+01  0.30861298869E+01  0.51109989000E-03 0. -1.
      611    1    1    2    0    0  0.30050395519E-01 -0.56573540343E-02  0.17088374974E+01  0.17091111391E+01  0.51109989000E-03 0.  1.
</event>
<event>
 6   3  0.4012498E+04  0.9118800E+02  0.7818608E-02  0.1180000E+00
       11   -1    0    0    0    0  0.00000000000E+00  0.00000000000E+00  0.54999999763E+01  0.55000000000E+01  0.51109989000E-03 0.  1.
     -623   -1    0    0    0    0  0.00000000000E+00  0.00000000000E+00  0.93234578044E-11  0.17124000000E+03  0.17124000000E+03 0. -1.
       11    1    1    2    0    0  0.20963937426E-01 -0.55426486170E-01  0.15837399935E+00  0.16909809855E+00  0.51109989000E-03 0.  1.
     -623    1    1    2    0    0 -0.30556940337E-01  0.23317977713E-01  0.12159905676E-01  0.17124000475E+03  0.17124000000E+03 0. -1.
     -611    1    1    2    0    0 -0.32813164499E-01  0.62762303877E-01  0.28608029362E+01  0.28616794914E+01  0.51109989000E-03 0. -1.
      611    1    1    2    0    0  0.42406167410E-01 -0.30653795420E-01  0.24686631349E+01  0.24692176642E+01  0.51109989000E-03 0.  1.
</event>
<event>
 6   3  0.4012498E+04  0.9118800E+02  0.7818608E-02  0.1180000E+00
       11   -1    0    0    0    0  0.00000000000E+00  0.00000000000E+00  0.54999999763E+01  0.55000000000E+01  0.51109989000E-03 0. -1.
     -623   -1    0    0    0    0  0.00000000000E+00  0.00000000000E+00  0.93234578044E-11  0.17124000000E+03  0.17124000000E+03 0.  1.
       11    1    1    2    0    0 -0.79648130621E-02  0.15994984119E-01  0.37501364125E+00  0.37543943600E+00  0.51109989000E-03 0. -1.
     -623    1    1    2    0    0  0.12164505396E-02  0.41227552078E-02  0.94873843518E-03  0.17124000006E+03  0.17124000000E+03 0.  1.
     -611    1    1    2    0    0  0.34376395116E-01  0.17368743779E-02  0.33234815725E+01  0.33236598468E+01  0.51109989000E-03 0. -1.
      611    1    1    2    0    0 -0.27628032593E-01 -0.21854613705E-01  0.18005560243E+01  0.18009006608E+01  0.51109989000E-03 0.  1.
</event>
<event>
 6   3  0.4012498E+04  0.9118800E+02  0.7818608E-02  0.1180000E+00
       11   -1    0    0    0    0  0.00000000000E+00  0.00000000000E+00  0.54999999763E+01  0.55000000000E+01  0.51109989000E-03 0. -1.
     -623   -1    0    0    0    0  0.00000000000E+00  0.00000000000E+00  0.93234578044E-11  0.17124000000E+03  0.17124000000E+03 0. -1.
       11    1    1    2    0    0  0.16088577676E-01  0.23578692049E-01  0.96653027563E+00  0.96695182505E+00  0.51109989000E-03 0. -1.
     -623    1    1    2    0    0  0.15713342834E-02 -0.56605638643E-02  0.16685377969E-02  0.17124000011E+03  0.17124000000E+03 0. -1.
     -611    1    1    2    0    0 -0.60719526136E-01 -0.33701024287E-02  0.26596336352E+01  0.26603288431E+01  0.51109989000E-03 0. -1.
      611    1    1    2    0    0  0.43059614177E-01 -0.14548025756E-01  0.18721675275E+01  0.18727192229E+01  0.51109989000E-03 0.  1.
</event>
<event>
 6   3  0.4112709E+04  0.9118800E+02  0.7818608E-02  0.1180000E+00
       11   -1    0    0    0    0  0.00000000000E+00  0.00000000000E+00  0.54999999763E+01  0.55000000000E+01  0.51109989000E-03 0. -1.
     -623   -1    0    0    0    0  0.00000000000E+00  0.00000000000E+00  0.93234578044E-11  0.17124000000E+03  0.17124000000E+03 0.  1.
       11    1    1    2    0    0 -0.13117770734E-01 -0.11994322784E-02  0.55445045225E+00  0.55460714003E+00  0.51109989000E-03 0. -1.
     -623    1    1    2    0    0  0.82067430267E-01 -0.13290061379E-01  0.67900450019E-03  0.17124002018E+03  0.17124000000E+03 0.  1.
     -611    1    1    2    0    0 -0.20264425539E-01  0.47520971369E-02  0.14703122997E+01  0.14704597067E+01  0.51109989000E-03 0.  1.
      611    1    1    2    0    0 -0.48685240510E-01  0.97373978900E-02  0.34745586872E+01  0.34749134380E+01  0.51109989000E-03 0. -1.
</event>
<event>
 6   3  0.4012498E+04  0.9118800E+02  0.7818608E-02  0.1180000E+00
       11   -1    0    0    0    0  0.00000000000E+00  0.00000000000E+00  0.54999999763E+01  0.55000000000E+01  0.51109989000E-03 0. -1.
     -623   -1    0    0    0    0  0.00000000000E+00  0.00000000000E+00  0.93234578044E-11  0.17124000000E+03  0.17124000000E+03 0.  1.
       11    1    1    2    0    0 -0.32051036813E-01  0.38622204958E-01  0.13315972245E+00  0.14230501250E+00  0.51109989000E-03 0. -1.
     -623    1    1    2    0    0  0.10620617992E+00 -0.48212485372E-01  0.97076411538E-02  0.17124004000E+03  0.17124000000E+03 0.  1.
     -611    1    1    2    0    0 -0.66409580101E-01  0.81623916120E-02  0.47640648682E+01  0.47645347293E+01  0.51109989000E-03 0. -1.
      611    1    1    2    0    0 -0.77455605015E-02  0.14278884772E-02  0.59306756346E+00  0.59312007943E+00  0.51109989000E-03 0. -1.
</event>
<event>
 6   3  0.4012498E+04  0.9118800E+02  0.7818608E-02  0.1180000E+00
       11   -1    0    0    0    0  0.00000000000E+00  0.00000000000E+00  0.54999999763E+01  0.55000000000E+01  0.51109989000E-03 0.  1.
     -623   -1    0    0    0    0  0.00000000000E+00  0.00000000000E+00  0.93234578044E-11  0.17124000000E+03  0.17124000000E+03 0.  1.
       11    1    1    2    0    0  0.30311340317E-01  0.29075773133E-02  0.67588222359E+00  0.67656801044E+00  0.51109989000E-03 0.  1.
     -623    1    1    2    0    0  0.18753671832E-02  0.49457536659E-03  0.14348246250E-02  0.17124000002E+03  0.17124000000E+03 0.  1.
     -611    1    1    2    0    0 -0.49688521957E-01 -0.25976701733E-01  0.33985443159E+01  0.33990068353E+01  0.51109989000E-03 0.  1.
      611    1    1    2    0    0  0.17501814457E-01  0.22574549053E-01  0.14241386122E+01  0.14244251372E+01  0.51109989000E-03 0. -1.
</event>
<event>
 6   3  0.4012498E+04  0.9118800E+02  0.7818608E-02  0.1180000E+00
       11   -1    0    0    0    0  0.00000000000E+00  0.00000000000E+00  0.54999999763E+01  0.55000000000E+01  0.51109989000E-03 0.  1.
     -623   -1    0    0    0    0  0.00000000000E+00  0.00000000000E+00  0.93234578044E-11  0.17124000000E+03  0.17124000000E+03 0. -1.
       11    1    1    2    0    0  0.54924228982E-01  0.15845580640E-01  0.83262510663E+00  0.83458527591E+00  0.51109989000E-03 0.  1.
     -623    1    1    2    0    0  0.12796566925E-01 -0.27889673781E-02  0.33439114238E-02  0.17124000053E+03  0.17124000000E+03 0. -1.
     -611    1    1    2    0    0  0.20406758975E-01  0.34955613474E-02  0.13946584629E+01  0.13948122254E+01  0.51109989000E-03 0.  1.
      611    1    1    2    0    0 -0.88127554881E-01 -0.16552174609E-01  0.32693724953E+01  0.32706019651E+01  0.51109989000E-03 0. -1.
</event>
<event>
 6   3  0.4012498E+04  0.9118800E+02  0.7818608E-02  0.1180000E+00
       11   -1    0    0    0    0  0.00000000000E+00  0.00000000000E+00  0.54999999763E+01  0.55000000000E+01  0.51109989000E-03 0.  1.
     -623   -1    0    0    0    0  0.00000000000E+00  0.00000000000E+00  0.93234578044E-11  0.17124000000E+03  0.17124000000E+03 0.  1.
       11    1    1    2    0    0  0.30878161297E-02  0.53511092937E-02  0.21483653830E-01  0.22360178533E-01  0.51109989000E-03 0.  1.
     -623    1    1    2    0    0 -0.35503507771E-02 -0.21132227488E-02  0.14551281023E-02  0.17124000006E+03  0.17124000000E+03 0.  1.
     -611    1    1    2    0    0  0.36090055481E-01 -0.18832845996E-01  0.28345109590E+01  0.28348033099E+01  0.51109989000E-03 0. -1.
      611    1    1    2    0    0 -0.35627520833E-01  0.15594959451E-01  0.26425502351E+01  0.26428364553E+01  0.51109989000E-03 0.  1.
</event>
<event>
 6   3  0.4012498E+04  0.9118800E+02  0.7818608E-02  0.1180000E+00
       11   -1    0    0    0    0  0.00000000000E+00  0.00000000000E+00  0.54999999763E+01  0.55000000000E+01  0.51109989000E-03 0. -1.
     -623   -1    0    0    0    0  0.00000000000E+00  0.00000000000E+00  0.93234578044E-11  0.17124000000E+03  0.17124000000E+03 0. -1.
       11    1    1    2    0    0  0.10107955826E+00 -0.43326942675E-01  0.70765290404E+00  0.71614746727E+00  0.51109989000E-03 0. -1.
     -623    1    1    2    0    0 -0.23168988657E-01  0.20029581087E-01  0.92093123205E-02  0.17124000299E+03  0.17124000000E+03 0. -1.
     -611    1    1    2    0    0 -0.90424240225E-02  0.69350281146E-02  0.82505992400E+00  0.82513877588E+00  0.51109989000E-03 0.  1.
      611    1    1    2    0    0 -0.68868145635E-01  0.16362333488E-01  0.39580778391E+01  0.39587107736E+01  0.51109989000E-03 0. -1.
</event>
<event>
 6   3  0.4012498E+04  0.9118800E+02  0.7818608E-02  0.1180000E+00
       11   -1    0    0    0    0  0.00000000000E+00  0.00000000000E+00  0.54999999763E+01  0.55000000000E+01  0.51109989000E-03 0.  1.
     -623   -1    0    0    0    0  0.00000000000E+00  0.00000000000E+00  0.93234578044E-11  0.17124000000E+03  0.17124000000E+03 0.  1.
       11    1    1    2    0    0 -0.41883076733E-01  0.10103985462E-01  0.60065537451E+00  0.60219882330E+00  0.51109989000E-03 0.  1.
     -623    1    1    2    0    0 -0.15966072500E-01 -0.16253249002E-01  0.18939567375E-02  0.17124000153E+03  0.17124000000E+03 0.  1.
     -611    1    1    2    0    0  0.29322575787E-01  0.23424086322E-02  0.27078463334E+01  0.27080061534E+01  0.51109989000E-03 0.  1.
      611    1    1    2    0    0  0.28526573061E-01  0.38068548668E-02  0.21896042790E+01  0.21897934646E+01  0.51109989000E-03 0. -1.
</event>
<event>
 6   3  0.4012498E+04  0.9118800E+02  0.7818608E-02  0.1180000E+00
       11   -1    0    0    0    0  0.00000000000E+00  0.00000000000E+00  0.54999999763E+01  0.55000000000E+01  0.51109989000E-03 0. -1.
     -623   -1    0    0    0    0  0.00000000000E+00  0.00000000000E+00  0.93234578044E-11  0.17124000000E+03  0.17124000000E+03 0.  1.
       11    1    1    2    0    0  0.13741099553E-01 -0.62191301843E-03  0.64119529371E+00  0.64134302093E+00  0.51109989000E-03 0. -1.
     -623    1    1    2    0    0  0.12810144885E-02  0.39147211235E-03  0.79162957259E-03  0.17124000001E+03  0.17124000000E+03 0.  1.
     -611    1    1    2    0    0 -0.46880346865E-01  0.36700605370E-02  0.29495205841E+01  0.29498954513E+01  0.51109989000E-03 0.  1.
      611    1    1    2    0    0  0.31858232824E-01 -0.34396196309E-02  0.19084924688E+01  0.19087615207E+01  0.51109989000E-03 0. -1.
</event>
<event>
 6   3  0.4012498E+04  0.9118800E+02  0.7818608E-02  0.1180000E+00
       11   -1    0    0    0    0  0.00000000000E+00  0.00000000000E+00  0.54999999763E+01  0.55000000000E+01  0.51109989000E-03 0.  1.
     -623   -1    0    0    0    0  0.00000000000E+00  0.00000000000E+00  0.93234578044E-11  0.17124000000E+03  0.17124000000E+03 0.  1.
       11    1    1    2    0    0  0.11078782570E-01  0.45573241617E-01  0.65989278383E+00  0.66155756148E+00  0.51109989000E-03 0.  1.
     -623    1    1    2    0    0  0.46092555545E-02 -0.15016554869E-01  0.35683093285E-02  0.17124000076E+03  0.17124000000E+03 0.  1.
     -611    1    1    2    0    0 -0.56283953063E-01 -0.61505799935E-01  0.26698043138E+01  0.26711057977E+01  0.51109989000E-03 0.  1.
      611    1    1    2    0    0  0.40595914939E-01  0.30949113186E-01  0.21667345693E+01  0.21673358833E+01  0.51109989000E-03 0. -1.
</event>
<event>
 6   3  0.4012498E+04  0.9118800E+02  0.7818608E-02  0.1180000E+00
       11   -1    0    0    0    0  0.00000000000E+00  0.00000000000E+00  0.54999999763E+01  0.55000000000E+01  0.51109989000E-03 0. -1.
     -623   -1    0    0    0    0  0.00000000000E+00  0.00000000000E+00  0.93234578044E-11  0.17124000000E+03  0.17124000000E+03 0.  1.
       11    1    1    2    0    0 -0.69576935334E-01  0.44459476156E-02  0.10571728297E+01  0.10594693811E+01  0.51109989000E-03 0. -1.
     -623    1    1    2    0    0 -0.42778909891E-03  0.16766043255E-01  0.29001166140E-02  0.17124000085E+03  0.17124000000E+03 0.  1.
     -611    1    1    2    0    0  0.29793445068E-01 -0.95314700568E-02  0.19010780972E+01  0.19013355020E+01  0.51109989000E-03 0. -1.
      611    1    1    2    0    0  0.40211273010E-01 -0.11680518888E-01  0.25388485296E+01  0.25391938679E+01  0.51109989000E-03 0. -1.
</event>
<event>
 6   3  0.4012498E+04  0.9118800E+02  0.7818608E-02  0.1180000E+00
       11   -1    0    0    0    0  0.00000000000E+00  0.00000000000E+00  0.54999999763E+01  0.55000000000E+01  0.51109989000E-03 0.  1.
     -623   -1    0    0    0    0  0.00000000000E+00  0.00000000000E+00  0.93234578044E-11  0.17124000000E+03  0.17124000000E+03 0. -1.
       11    1    1    2    0    0 -0.65059758084E-02  0.33342307969E-02  0.69237537395E+00  0.69241415677E+00  0.51109989000E-03 0.  1.
     -623    1    1    2    0    0  0.70890505962E-03  0.20558388146E-02  0.11827955544E-02  0.17124000002E+03  0.17124000000E+03 0. -1.
     -611    1    1    2    0    0 -0.47980354264E-01 -0.21318632530E-02  0.28397036227E+01  0.28401097840E+01  0.51109989000E-03 0.  1.
      611    1    1    2    0    0  0.53777425013E-01 -0.32582063583E-02  0.19667381839E+01  0.19674760411E+01  0.51109989000E-03 0. -1.
</event>
<event>
 6   3  0.4012498E+04  0.9118800E+02  0.7818608E-02  0.1180000E+00
       11   -1    0    0    0    0  0.00000000000E+00  0.00000000000E+00  0.54999999763E+01  0.55000000000E+01  0.51109989000E-03 0.  1.
     -623   -1    0    0    0    0  0.00000000000E+00  0.00000000000E+00  0.93234578044E-11  0.17124000000E+03  0.17124000000E+03 0. -1.
       11    1    1    2    0    0 -0.60673202725E-02 -0.19010365436E-02  0.38069192954E-01  0.38599883306E-01  0.51109989000E-03 0.  1.
     -623    1    1    2    0    0 -0.35536407864E-02  0.99919303515E-02  0.17324837798E-02  0.17124000034E+03  0.17124000000E+03 0. -1.
     -611    1    1    2    0    0  0.50795530838E-01  0.28941029811E-01  0.25002219089E+01  0.25009053609E+01  0.51109989000E-03 0. -1.
      611    1    1    2    0    0 -0.41174569779E-01 -0.37031923619E-01  0.29599763907E+01  0.29604944187E+01  0.51109989000E-03 0.  1.
</event>
<event>
 6   3  0.4012498E+04  0.9118800E+02  0.7818608E-02  0.1180000E+00
       11   -1    0    0    0    0  0.00000000000E+00  0.00000000000E+00  0.54999999763E+01  0.55000000000E+01  0.51109989000E-03 0. -1.
     -623   -1    0    0    0    0  0.00000000000E+00  0.00000000000E+00  0.93234578044E-11  0.17124000000E+03  0.17124000000E+03 0. -1.
       11    1    1    2    0    0 -0.56749419281E-01 -0.47428446024E-01  0.33607817617E+00  0.34412026357E+00  0.51109989000E-03 0. -1.
     -623    1    1    2    0    0 -0.19177181306E-01  0.46697983223E-01  0.86093703310E-02  0.17124000766E+03  0.17124000000E+03 0. -1.
     -611    1    1    2    0    0  0.33199194315E-01 -0.53634522450E-03  0.22911729143E+01  0.22914135503E+01  0.51109989000E-03 0. -1.
      611    1    1    2    0    0  0.42727403216E-01  0.12668079959E-02  0.28641393080E+01  0.28644583210E+01  0.51109989000E-03 0. -1.
</event>
<event>
 6   3  0.4012498E+04  0.9118800E+02  0.7818608E-02  0.1180000E+00
       11   -1    0    0    0    0  0.00000000000E+00  0.00000000000E+00  0.54999999763E+01  0.55000000000E+01  0.51109989000E-03 0.  1.
     -623   -1    0    0    0    0  0.00000000000E+00  0.00000000000E+00  0.93234578044E-11  0.17124000000E+03  0.17124000000E+03 0. -1.
       11    1    1    2    0    0 -0.13369253221E-01  0.26155025783E-01  0.30002255003E+00  0.30145748300E+00  0.51109989000E-03 0.  1.
     -623    1    1    2    0    0  0.13706167848E-01 -0.16368242692E-03  0.21098217698E-02  0.17124000056E+03  0.17124000000E+03 0. -1.
     -611    1    1    2    0    0  0.38563131737E-01 -0.18093752105E-01  0.31661659398E+01  0.31664525132E+01  0.51109989000E-03 0. -1.
      611    1    1    2    0    0 -0.38900046364E-01 -0.78975912511E-02  0.20317016648E+01  0.20320894423E+01  0.51109989000E-03 0.  1.
</event>
<event>
 6   3  0.4012498E+04  0.9118800E+02  0.7818608E-02  0.1180000E+00
       11   -1    0    0    0    0  0.00000000000E+00  0.00000000000E+00  0.54999999763E+01  0.55000000000E+01  0.51109989000E-03 0.  1.
     -623   -1    0    0    0    0  0.00000000000E+00  0.00000000000E+00  0.93234578044E-11  0.17124000000E+03  0.17124000000E+03 0. -1.
       11    1    1    2    0    0 -0.80142133694E-01  0.76710308894E-01  0.10306903923E+01  0.10366437089E+01  0.51109989000E-03 0.  1.
     -623    1    1    2    0    0  0.16335039232E-01  0.27039578268E-01  0.77275284875E-02  0.17124000309E+03  0.17124000000E+03 0. -1.
     -611    1    1    2    0    0  0.31949570839E-01 -0.76985314931E-01  0.27354074033E+01  0.27366770794E+01  0.51109989000E-03 0. -1.
      611    1    1    2    0    0  0.31857523637E-01 -0.26764572252E-01  0.17261746530E+01  0.17266761243E+01  0.51109989000E-03 0.  1.
</event>
<event>
 6   3  0.4012498E+04  0.9118800E+02  0.7818608E-02  0.1180000E+00
       11   -1    0    0    0    0  0.00000000000E+00  0.00000000000E+00  0.54999999763E+01  0.55000000000E+01  0.51109989000E-03 0.  1.
     -623   -1    0    0    0    0  0.00000000000E+00  0.00000000000E+00  0.93234578044E-11  0.17124000000E+03  0.17124000000E+03 0.  1.
       11    1    1    2    0    0  0.44038313771E-01 -0.13135434072E-01  0.40580382633E+00  0.40839799142E+00  0.51109989000E-03 0.  1.
     -623    1    1    2    0    0  0.28347301036E-01  0.25037271958E-01  0.32262018083E-02  0.17124000421E+03  0.17124000000E+03 0.  1.
     -611    1    1    2    0    0 -0.54305185493E-01  0.17088541516E-02  0.41496920526E+01  0.41500477547E+01  0.51109989000E-03 0.  1.
      611    1    1    2    0    0 -0.18080429313E-01 -0.13610692038E-01  0.94127789546E+00  0.94155004677E+00  0.51109989000E-03 0. -1.
</event>
<event>
 6   3  0.4012498E+04  0.9118800E+02  0.7818608E-02  0.1180000E+00
       11   -1    0    0    0    0  0.00000000000E+00  0.00000000000E+00  0.54999999763E+01  0.55000000000E+01  0.51109989000E-03 0. -1.
     -623   -1    0    0    0    0  0.00000000000E+00  0.00000000000E+00  0.93234578044E-11  0.17124000000E+03  0.17124000000E+03 0.  1.
       11    1    1    2    0    0 -0.39378560326E-01 -0.32143988090E-01  0.49971073345E+00  0.50228974241E+00  0.51109989000E-03 0. -1.
     -623    1    1    2    0    0 -0.11413157234E-01 -0.20523475422E-02  0.29549692433E-02  0.17124000042E+03  0.17124000000E+03 0.  1.
     -611    1    1    2    0    0  0.23092544668E-01  0.14746993698E-01  0.22898435914E+01  0.22900075707E+01  0.51109989000E-03 0. -1.
      611    1    1    2    0    0  0.27699171573E-01  0.19449341047E-01  0.27074905524E+01  0.27077021390E+01  0.51109989000E-03 0. -1.
</event>
<event>
 6   3  0.4012498E+04  0.9118800E+02  0.7818608E-02  0.1180000E+00
       11   -1    0    0    0    0  0.00000000000E+00  0.00000000000E+00  0.54999999763E+01  0.55000000000E+01  0.51109989000E-03 0. -1.
     -623   -1    0    0    0    0  0.00000000000E+00  0.00000000000E+00  0.93234578044E-11  0.17124000000E+03  0.17124000000E+03 0.  1.
       11    1    1    2    0    0 -0.90292073581E-03 -0.21625922529E-02  0.40268064661E-01  0.40339438841E-01  0.51109989000E-03 0. -1.
     -623    1    1    2    0    0  0.15280240306E-02  0.40658138528E-02  0.40327045897E-03  0.17124000006E+03  0.17124000000E+03 0.  1.
     -611    1    1    2    0    0  0.29158623028E-01 -0.69328915188E-02  0.26670020804E+01  0.26671705323E+01  0.51109989000E-03 0.  1.
      611    1    1    2    0    0 -0.29783726323E-01  0.50296699189E-02  0.27923265606E+01  0.27924899732E+01  0.51109989000E-03 0. -1.
</event>
<event>
 6   3  0.4012498E+04  0.9118800E+02  0.7818608E-02  0.1180000E+00
       11   -1    0    0    0    0  0.00000000000E+00  0.00000000000E+00  0.54999999763E+01  0.55000000000E+01  0.51109989000E-03 0. -1.
     -623   -1    0    0    0    0  0.00000000000E+00  0.00000000000E+00  0.93234578044E-11  0.17124000000E+03  0.17124000000E+03 0. -1.
       11    1    1    2    0    0 -0.11865884758E-01 -0.30673613565E-01  0.65382942803E+00  0.65465628537E+00  0.51109989000E-03 0. -1.
     -623    1    1    2    0    0 -0.16865566338E-01  0.79992803112E-02  0.22334304053E-02  0.17124000103E+03  0.17124000000E+03 0. -1.
     -611    1    1    2    0    0  0.70229063991E-01  0.18268716663E-01  0.25775004079E+01  0.25785217629E+01  0.51109989000E-03 0. -1.
      611    1    1    2    0    0 -0.41497612895E-01  0.44056165905E-02  0.22664367100E+01  0.22668209199E+01  0.51109989000E-03 0.  1.
</event>
<event>
 6   3  0.4012498E+04  0.9118800E+02  0.7818608E-02  0.1180000E+00
       11   -1    0    0    0    0  0.00000000000E+00  0.00000000000E+00  0.54999999763E+01  0.55000000000E+01  0.51109989000E-03 0.  1.
     -623   -1    0    0    0    0  0.00000000000E+00  0.00000000000E+00  0.93234578044E-11  0.17124000000E+03  0.17124000000E+03 0.  1.
       11    1    1    2    0    0  0.63206652861E-02 -0.12632397541E-02  0.88149982945E+00  0.88152354315E+00  0.51109989000E-03 0.  1.
     -623    1    1    2    0    0 -0.60280848112E-01  0.31089076413E-01  0.44997787415E-03  0.17124001343E+03  0.17124000000E+03 0.  1.
     -611    1    1    2    0    0  0.64022925453E-02 -0.24396866691E-02  0.51351712272E+00  0.51356308081E+00  0.51109989000E-03 0. -1.
      611    1    1    2    0    0  0.47557890433E-01 -0.27386150074E-01  0.41045330593E+01  0.41048999562E+01  0.51109989000E-03 0.  1.
</event>
<event>
 6   3  0.4012498E+04  0.9118800E+02  0.7818608E-02  0.1180000E+00
       11   -1    0    0    0    0  0.00000000000E+00  0.00000000000E+00  0.54999999763E+01  0.55000000000E+01  0.51109989000E-03 0.  1.
     -623   -1    0    0    0    0  0.00000000000E+00  0.00000000000E+00  0.93234578044E-11  0.17124000000E+03  0.17124000000E+03 0. -1.
       11    1    1    2    0    0 -0.67740206155E-01 -0.91435644584E-03  0.83536957471E+00  0.83811225928E+00  0.51109989000E-03 0.  1.
     -623    1    1    2    0    0  0.11038558694E-01  0.44513139555E-02  0.30894731421E-02  0.17124000044E+03  0.17124000000E+03 0. -1.
     -611    1    1    2    0    0  0.20406401492E-01 -0.12438479720E-02  0.16463854505E+01  0.16465124600E+01  0.51109989000E-03 0.  1.
      611    1    1    2    0    0  0.36295254640E-01 -0.22931100785E-02  0.30151561909E+01  0.30153755521E+01  0.51109989000E-03 0.  1.
</event>
<event>
 6   3  0.4012498E+04  0.9118800E+02  0.7818608E-02  0.1180000E+00
       11   -1    0    0    0    0  0.00000000000E+00  0.00000000000E+00  0.54999999763E+01  0.55000000000E+01  0.51109989000E-03 0.  1.
     -623   -1    0    0    0    0  0.00000000000E+00  0.00000000000E+00  0.93234578044E-11  0.17124000000E+03  0.17124000000E+03 0.  1.
       11    1    1    2    0    0 -0.36441901978E-01  0.82988497517E-02  0.67753503350E+00  0.67856529971E+00  0.51109989000E-03 0.  1.
     -623    1    1    2    0    0  0.44090917035E-01  0.55419936009E-02  0.13881385859E-02  0.17124000577E+03  0.17124000000E+03 0.  1.
     -611    1    1    2    0    0 -0.31404997897E-01 -0.33769650358E-02  0.30154718801E+01  0.30156373453E+01  0.51109989000E-03 0.  1.
      611    1    1    2    0    0  0.23755982839E-01 -0.10463878316E-01  0.18056049238E+01  0.18057915831E+01  0.51109989000E-03 0. -1.
</event>
<event>
 6   3  0.4012498E+04  0.9118800E+02  0.7818608E-02  0.1180000E+00
       11   -1    0    0    0    0  0.00000000000E+00  0.00000000000E+00  0.54999999763E+01  0.55000000000E+01  0.51109989000E-03 0. -1.
     -623   -1    0    0    0    0  0.00000000000E+00  0.00000000000E+00  0.93234578044E-11  0.17124000000E+03  0.17124000000E+03 0.  1.
       11    1    1    2    0    0 -0.37247173999E-02  0.20522826526E-03  0.11153750224E-01  0.11772128364E-01  0.51109989000E-03 0. -1.
     -623    1    1    2    0    0  0.41625530275E-02 -0.19681918401E-02  0.43235145866E-02  0.17124000012E+03  0.17124000000E+03 0.  1.
     -611    1    1    2    0    0 -0.54340505982E-01 -0.30448153773E-01  0.48902081509E+01  0.48906048707E+01  0.51109989000E-03 0. -1.
      611    1    1    2    0    0  0.53902670354E-01  0.32211117348E-01  0.59431456054E+00  0.59762288448E+00  0.51109989000E-03 0.  1.
</event>
<event>
 6   3  0.4012498E+04  0.9118800E+02  0.7818608E-02  0.1180000E+00
       11   -1    0    0    0    0  0.00000000000E+00  0.00000000000E+00  0.54999999763E+01  0.55000000000E+01  0.51109989000E-03 0.  1.
     -623   -1    0    0    0    0  0.00000000000E+00  0.00000000000E+00  0.93234578044E-11  0.17124000000E+03  0.17124000000E+03 0.  1.
       11    1    1    2    0    0  0.76431421046E-01  0.28054958822E-01  0.39484584821E+00  0.40315300806E+00  0.51109989000E-03 0.  1.
     -623    1    1    2    0    0  0.45987538169E-01 -0.14507819350E-03  0.99343835639E-02  0.17124000646E+03  0.17124000000E+03 0.  1.
     -611    1    1    2    0    0 -0.86387342147E-01 -0.13179944890E-01  0.39273430113E+01  0.39283151444E+01  0.51109989000E-03 0.  1.
      611    1    1    2    0    0 -0.36031617122E-01 -0.14729935751E-01  0.11678767354E+01  0.11685253865E+01  0.51109989000E-03 0. -1.
</event>
<event>
 6   3  0.4012498E+04  0.9118800E+02  0.7818608E-02  0.1180000E+00
       11   -1    0    0    0    0  0.00000000000E+00  0.00000000000E+00  0.54999999763E+01  0.55000000000E+01  0.51109989000E-03 0. -1.
     -623   -1    0    0    0    0  0.00000000000E+00  0.00000000000E+00  0.93234578044E-11  0.17124000000E+03  0.17124000000E+03 0. -1.
       11    1    1    2    0    0 -0.28342408646E-01  0.32981230651E-01  0.37043394500E+00  0.37297804565E+00  0.51109989000E-03 0. -1.
     -623    1    1    2    0    0 -0.27092377786E-01 -0.22159615528E-01  0.28593032756E-02  0.17124000360E+03  0.17124000000E+03 0. -1.
     -611    1    1    2    0    0  0.27805870633E-01 -0.44570299026E-02  0.25219235224E+01  0.25220807968E+01  0.51109989000E-03 0. -1.
      611    1    1    2    0    0  0.27628916334E-01 -0.63645853241E-02  0.26047832551E+01  0.26049376062E+01  0.51109989000E-03 0. -1.
</event>
<event>
 6   3  0.4012498E+04  0.9118800E+02  0.7818608E-02  0.1180000E+00
       11   -1    0    0    0    0  0.00000000000E+00  0.00000000000E+00  0.54999999763E+01  0.55000000000E+01  0.51109989000E-03 0.  1.
     -623   -1    0    0    0    0  0.00000000000E+00  0.00000000000E+00  0.93234578044E-11  0.17124000000E+03  0.17124000000E+03 0. -1.
       11    1    1    2    0    0 -0.48485380056E-02 -0.10923754623E-01  0.88806163383E+00  0.88814219776E+00  0.51109989000E-03 0.  1.
     -623    1    1    2    0    0 -0.88713653080E-03 -0.10041077567E-01  0.58500759389E-03  0.17124000030E+03  0.17124000000E+03 0. -1.
     -611    1    1    2    0    0  0.31818621855E-01 -0.39650539203E-02  0.20929131862E+01  0.20931588598E+01  0.51109989000E-03 0. -1.
      611    1    1    2    0    0 -0.26082947319E-01  0.24929886110E-01  0.25184401484E+01  0.25186986445E+01  0.51109989000E-03 0.  1.
</event>
<event>
 6   3  0.4012498E+04  0.9118800E+02  0.7818608E-02  0.1180000E+00
       11   -1    0    0    0    0  0.00000000000E+00  0.00000000000E+00  0.54999999763E+01  0.55000000000E+01  0.51109989000E-03 0. -1.
     -623   -1    0    0    0    0  0.00000000000E+00  0.00000000000E+00  0.93234578044E-11  0.17124000000E+03  0.17124000000E+03 0.  1.
       11    1    1    2    0    0  0.40432700830E-01  0.99540804171E-01  0.18812084857E+00  0.21664000065E+00  0.51109989000E-03 0. -1.
     -623    1    1    2    0    0  0.26597626952E-01 -0.41596371944E-01  0.29271988443E-01  0.17124000962E+03  0.17124000000E+03 0.  1.
     -611    1    1    2    0    0 -0.33261987890E-01 -0.27986895324E-01  0.25969982873E+01  0.25973621217E+01  0.51109989000E-03 0. -1.
      611    1    1    2    0    0 -0.33768341621E-01 -0.29957538399E-01  0.26856089883E+01  0.26859883942E+01  0.51109989000E-03 0.  1.
</event>
<event>
 6   3  0.4012498E+04  0.9118800E+02  0.7818608E-02  0.1180000E+00
       11   -1    0    0    0    0  0.00000000000E+00  0.00000000000E+00  0.54999999763E+01  0.55000000000E+01  0.51109989000E-03 0. -1.
     -623   -1    0    0    0    0  0.00000000000E+00  0.00000000000E+00  0.93234578044E-11  0.17124000000E+03  0.17124000000E+03 0.  1.
       11    1    1    2    0    0  0.53100184667E-02  0.22417438691E-02  0.25056198790E-01  0.25715676800E-01  0.51109989000E-03 0. -1.
     -623    1    1    2    0    0  0.13409959897E-03 -0.47826712780E-02  0.13053605443E-02  0.17124000007E+03  0.17124000000E+03 0.  1.
     -611    1    1    2    0    0 -0.34343575605E-01  0.28618987480E-01  0.32057728161E+01  0.32060845493E+01  0.51109989000E-03 0.  1.
      611    1    1    2    0    0  0.28899457540E-01 -0.26078060071E-01  0.22678656009E+01  0.22681997021E+01  0.51109989000E-03 0. -1.
</event>
<event>
 6   3  0.4012498E+04  0.9118800E+02  0.7818608E-02  0.1180000E+00
       11   -1    0    0    0    0  0.00000000000E+00  0.00000000000E+00  0.54999999763E+01  0.55000000000E+01  0.51109989000E-03 0.  1.
     -623   -1    0    0    0    0  0.00000000000E+00  0.00000000000E+00  0.93234578044E-11  0.17124000000E+03  0.17124000000E+03 0. -1.
       11    1    1    2    0    0 -0.26224481174E-01  0.60395910748E-03  0.33927405027E+00  0.34028698269E+00  0.51109989000E-03 0.  1.
     -623    1    1    2    0    0 -0.29002007134E-02  0.24360201334E-02  0.15109690738E-02  0.17124000005E+03  0.17124000000E+03 0. -1.
     -611    1    1    2    0    0  0.49523992232E-01 -0.81685152727E-02  0.33583778177E+01  0.33587529201E+01  0.51109989000E-03 0.  1.
      611    1    1    2    0    0 -0.20399310344E-01  0.51285360318E-02  0.18008371393E+01  0.18009600488E+01  0.51109989000E-03 0. -1.
</event>
<event>
 6   3  0.4012498E+04  0.9118800E+02  0.7818608E-02  0.1180000E+00
       11   -1    0    0    0    0  0.00000000000E+00  0.00000000000E+00  0.54999999763E+01  0.55000000000E+01  0.51109989000E-03 0. -1.
     -623   -1    0    0    0    0  0.00000000000E+00  0.00000000000E+00  0.93234578044E-11  0.17124000000E+03  0.17124000000E+03 0.  1.
       11    1    1    2    0    0  0.84364121320E-05  0.64522508749E-03  0.53684477834E-02  0.54311915545E-02  0.51109989000E-03 0. -1.
     -623    1    1    2    0    0 -0.31119418119E-02 -0.41518739960E-02  0.22837119041E-02  0.17124000009E+03  0.17124000000E+03 0.  1.
     -611    1    1    2    0    0  0.73474019428E-01  0.21712415994E-01  0.36195115842E+01  0.36203223931E+01  0.51109989000E-03 0. -1.
      611    1    1    2    0    0 -0.70370514028E-01 -0.18205767086E-01  0.18728362323E+01  0.18742463214E+01  0.51109989000E-03 0.  1.
</event>
<event>
 6   3  0.4012498E+04  0.9118800E+02  0.7818608E-02  0.1180000E+00
       11   -1    0    0    0    0  0.00000000000E+00  0.00000000000E+00  0.54999999763E+01  0.55000000000E+01  0.51109989000E-03 0.  1.
     -623   -1    0    0    0    0  0.00000000000E+00  0.00000000000E+00  0.93234578044E-11  0.17124000000E+03  0.17124000000E+03 0.  1.
       11    1    1    2    0    0  0.12859333631E-02  0.71797232362E-02  0.64737808183E-01  0.65149421193E-01  0.51109989000E-03 0. -1.
     -623    1    1    2    0    0  0.94270080473E-02  0.25135560363E-01  0.83265957554E-03  0.17124000211E+03  0.17124000000E+03 0.  1.
     -611    1    1    2    0    0  0.23853093486E-01 -0.17583644040E-01  0.21593154319E+01  0.21595188238E+01  0.51109989000E-03 0. -1.
      611    1    1    2    0    0 -0.34566034897E-01 -0.14731639559E-01  0.32751140766E+01  0.32753296487E+01  0.51109989000E-03 0.  1.
</event>
<event>
 6   3  0.4012498E+04  0.9118800E+02  0.7818608E-02  0.1180000E+00
       11   -1    0    0    0    0  0.00000000000E+00  0.00000000000E+00  0.54999999763E+01  0.55000000000E+01  0.51109989000E-03 0. -1.
     -623   -1    0    0    0    0  0.00000000000E+00  0.00000000000E+00  0.93234578044E-11  0.17124000000E+03  0.17124000000E+03 0.  1.
       11    1    1    2    0    0  0.18081250814E-02  0.28320908340E-02  0.21524682088E+00  0.21527365184E+00  0.51109989000E-03 0. -1.
     -623    1    1    2    0    0 -0.42852812096E-02 -0.60699887388E-02  0.77300493292E-03  0.17124000016E+03  0.17124000000E+03 0.  1.
     -611    1    1    2    0    0 -0.42631506064E-01 -0.24885314615E-02  0.22500207144E+01  0.22504259851E+01  0.51109989000E-03 0.  1.
      611    1    1    2    0    0  0.45108662192E-01  0.57264293664E-02  0.30339594363E+01  0.30343002003E+01  0.51109989000E-03 0. -1.
</event>
<event>
 6   3  0.4012498E+04  0.9118800E+02  0.7818608E-02  0.1180000E+00
       11   -1    0    0    0    0  0.00000000000E+00  0.00000000000E+00  0.54999999763E+01  0.55000000000E+01  0.51109989000E-03 0. -1.
     -623   -1    0    0    0    0  0.00000000000E+00  0.00000000000E+00  0.93234578044E-11  0.17124000000E+03  0.17124000000E+03 0.  1.
       11    1    1    2    0    0 -0.30187782946E-01  0.22631773044E-02  0.42494728435E+00  0.42602450624E+00  0.51109989000E-03 0. -1.
     -623    1    1    2    0    0 -0.32667075826E-01 -0.12798780031E-01  0.14817732809E-02  0.17124000360E+03  0.17124000000E+03 0.  1.
     -611    1    1    2    0    0  0.15184390431E-01  0.32923840835E-02  0.11805395334E+01  0.11806418833E+01  0.51109989000E-03 0. -1.
      611    1    1    2    0    0  0.47670470871E-01  0.72432190675E-02  0.38930315895E+01  0.38933302142E+01  0.51109989000E-03 0.  1.
</event>
<event>
 6   3  0.4012498E+04  0.9118800E+02  0.7818608E-02  0.1180000E+00
       11   -1    0    0    0    0  0.00000000000E+00  0.00000000000E+00  0.54999999763E+01  0.55000000000E+01  0.51109989000E-03 0. -1.
     -623   -1    0    0    0    0  0.00000000000E+00  0.00000000000E+00  0.93234578044E-11  0.17124000000E+03  0.17124000000E+03 0. -1.
       11    1    1    2    0    0 -0.10434518537E+00 -0.39614424555E-01  0.77973875293E+00  0.78768648864E+00  0.51109989000E-03 0. -1.
     -623    1    1    2    0    0  0.15656041267E-01  0.24667118409E-02  0.89417737525E-02  0.17124000097E+03  0.17124000000E+03 0. -1.
     -611    1    1    2    0    0  0.32991772147E-01  0.19211305172E-01  0.19287054170E+01  0.19290832999E+01  0.51109989000E-03 0.  1.
      611    1    1    2    0    0  0.55697372137E-01  0.17936407620E-01  0.27826140425E+01  0.27832292545E+01  0.51109989000E-03 0. -1.
</event>
<event>
 6   3  0.4012498E+04  0.9118800E+02  0.7818608E-02  0.1180000E+00
       11   -1    0    0    0    0  0.00000000000E+00  0.00000000000E+00  0.54999999763E+01  0.55000000000E+01  0.51109989000E-03 0. -1.
     -623   -1    0    0    0    0  0.00000000000E+00  0.00000000000E+00  0.93234578044E-11  0.17124000000E+03  0.17124000000E+03 0.  1.
       11    1    1    2    0    0 -0.75173390259E-03  0.64617185457E-02  0.10366142235E+00  0.10386660011E+00  0.51109989000E-03 0. -1.
     -623    1    1    2    0    0 -0.16173773316E-02  0.19754324430E-02  0.80553344639E-03  0.17124000002E+03  0.17124000000E+03 0.  1.
     -611    1    1    2    0    0 -0.33732563480E-01 -0.21179019096E-01  0.20982189610E+01  0.20985970328E+01  0.51109989000E-03 0.  1.
      611    1    1    2    0    0  0.36101674714E-01  0.12741868108E-01  0.32973140595E+01  0.32975363462E+01  0.51109989000E-03 0. -1.
</event>
<event>
 6   3  0.4012498E+04  0.9118800E+02  0.7818608E-02  0.1180000E+00
       11   -1    0    0    0    0  0.00000000000E+00  0.00000000000E+00  0.54999999763E+01  0.55000000000E+01  0.51109989000E-03 0. -1.
     -623   -1    0    0    0    0  0.00000000000E+00  0.00000000000E+00  0.93234578044E-11  0.17124000000E+03  0.17124000000E+03 0.  1.
       11    1    1    2    0    0  0.81050601291E-01 -0.37964896770E-01  0.26121668764E+00  0.27612488566E+00  0.51109989000E-03 0. -1.
     -623    1    1    2    0    0  0.49347483762E-01  0.27264478593E-02  0.17265943511E-01  0.17124000800E+03  0.17124000000E+03 0.  1.
     -611    1    1    2    0    0 -0.61283481388E-01  0.53552266264E-01  0.33405045277E+01  0.33414958134E+01  0.51109989000E-03 0. -1.
      611    1    1    2    0    0 -0.69114603668E-01 -0.18313817352E-01  0.18810128175E+01  0.18823712985E+01  0.51109989000E-03 0.  1.
</event>
<event>
 6   3  0.4012498E+04  0.9118800E+02  0.7818608E-02  0.1180000E+00
       11   -1    0    0    0    0  0.00000000000E+00  0.00000000000E+00  0.54999999763E+01  0.55000000000E+01  0.51109989000E-03 0.  1.
     -623   -1    0    0    0    0  0.00000000000E+00  0.00000000000E+00  0.93234578044E-11  0.17124000000E+03  0.17124000000E+03 0. -1.
       11    1    1    2    0    0 -0.36114293522E-02  0.94196795199E-02  0.43148169747E+00  0.43159991805E+00  0.51109989000E-03 0.  1.
     -623    1    1    2    0    0 -0.62771310884E-03 -0.25755728382E-02  0.14835242316E-02  0.17124000003E+03  0.17124000000E+03 0. -1.
     -611    1    1    2    0    0  0.56830329536E-01  0.17307114250E-01  0.27622124964E+01  0.27628513097E+01  0.51109989000E-03 0.  1.
      611    1    1    2    0    0 -0.52591187075E-01 -0.24151220932E-01  0.23048222581E+01  0.23055487453E+01  0.51109989000E-03 0. -1.
</event>
<event>
 6   3  0.4012498E+04  0.9118800E+02  0.7818608E-02  0.1180000E+00
       11   -1    0    0    0    0  0.00000000000E+00  0.00000000000E+00  0.54999999763E+01  0.55000000000E+01  0.51109989000E-03 0.  1.
     -623   -1    0    0    0    0  0.00000000000E+00  0.00000000000E+00  0.93234578044E-11  0.17124000000E+03  0.17124000000E+03 0. -1.
       11    1    1    2    0    0 -0.60802240162E-02  0.58177365333E-01  0.65352640672E+00  0.65613916242E+00  0.51109989000E-03 0.  1.
     -623    1    1    2    0    0 -0.24297080511E-01  0.83417999665E-02  0.33655440178E-02  0.17124000196E+03  0.17124000000E+03 0. -1.
     -611    1    1    2    0    0  0.40840041007E-01 -0.59136887764E-01  0.38797993075E+01  0.38804649217E+01  0.51109989000E-03 0.  1.
      611    1    1    2    0    0 -0.10462736481E-01 -0.73822775322E-02  0.96330871772E+00  0.96339395563E+00  0.51109989000E-03 0. -1.
</event>
<event>
 6   3  0.4012498E+04  0.9118800E+02  0.7818608E-02  0.1180000E+00
       11   -1    0    0    0    0  0.00000000000E+00  0.00000000000E+00  0.54999999763E+01  0.55000000000E+01  0.51109989000E-03 0.  1.
     -623   -1    0    0    0    0  0.00000000000E+00  0.00000000000E+00  0.93234578044E-11  0.17124000000E+03  0.17124000000E+03 0. -1.
       11    1    1    2    0    0 -0.35297910363E-01 -0.26293159056E-01  0.10433980237E+01  0.10443260840E+01  0.51109989000E-03 0.  1.
     -623    1    1    2    0    0 -0.21843107084E-01  0.18346961435E-02  0.13928035372E-02  0.17124000141E+03  0.17124000000E+03 0. -1.
     -611    1    1    2    0    0  0.38923476689E-01  0.24386129267E-01  0.30761524827E+01  0.30764954215E+01  0.51109989000E-03 0.  1.
      611    1    1    2    0    0  0.18217540692E-01  0.72333617360E-04  0.13790566612E+01  0.13791770807E+01  0.51109989000E-03 0. -1.
</event>
<event>
 6   3  0.4012498E+04  0.9118800E+02  0.7818608E-02  0.1180000E+00
       11   -1    0    0    0    0  0.00000000000E+00  0.00000000000E+00  0.54999999763E+01  0.55000000000E+01  0.51109989000E-03 0. -1.
     -623   -1    0    0    0    0  0.00000000000E+00  0.00000000000E+00  0.93234578044E-11  0.17124000000E+03  0.17124000000E+03 0. -1.
       11    1    1    2    0    0 -0.78026512251E-02  0.27633815087E-02  0.37242642018E+00  0.37251874760E+00  0.51109989000E-03 0. -1.
     -623    1    1    2    0    0 -0.96900591743E-03 -0.14366798761E-02  0.63924548075E-03  0.17124000001E+03  0.17124000000E+03 0. -1.
     -611    1    1    2    0    0  0.38753224571E-01 -0.14921215086E-01  0.31308547534E+01  0.31311301799E+01  0.51109989000E-03 0.  1.
      611    1    1    2    0    0 -0.29981567429E-01  0.13594513453E-01  0.19960795573E+01  0.19963510627E+01  0.51109989000E-03 0. -1.
</event>
<event>
 6   3  0.4012498E+04  0.9118800E+02  0.7818608E-02  0.1180000E+00
       11   -1    0    0    0    0  0.00000000000E+00  0.00000000000E+00  0.54999999763E+01  0.55000000000E+01  0.51109989000E-03 0. -1.
     -623   -1    0    0    0    0  0.00000000000E+00  0.00000000000E+00  0.93234578044E-11  0.17124000000E+03  0.17124000000E+03 0.  1.
       11    1    1    2    0    0  0.71798942005E-02  0.14573877443E-02  0.99923231423E-01  0.10019275553E+00  0.51109989000E-03 0. -1.
     -623    1    1    2    0    0  0.62869480681E-02  0.23305169694E-02  0.70493176901E-02  0.17124000028E+03  0.17124000000E+03 0.  1.
     -611    1    1    2    0    0  0.63398629255E-01 -0.11726791342E+00  0.25761028218E+01  0.25795497979E+01  0.51109989000E-03 0.  1.
      611    1    1    2    0    0 -0.76865471523E-01  0.11348000871E+00  0.28169246053E+01  0.28202571703E+01  0.51109989000E-03 0. -1.
</event>
<event>
 6   3  0.4012498E+04  0.9118800E+02  0.7818608E-02  0.1180000E+00
       11   -1    0    0    0    0  0.00000000000E+00  0.00000000000E+00  0.54999999763E+01  0.55000000000E+01  0.51109989000E-03 0. -1.
     -623   -1    0    0    0    0  0.00000000000E+00  0.00000000000E+00  0.93234578044E-11  0.17124000000E+03  0.17124000000E+03 0. -1.
       11    1    1    2    0    0  0.99529692706E-02  0.11520095347E-01  0.11811762807E+00  0.11909579958E+00  0.51109989000E-03 0. -1.
     -623    1    1    2    0    0 -0.69388598283E-02 -0.14643695460E-01  0.23250192341E-02  0.17124000078E+03  0.17124000000E+03 0. -1.
     -611    1    1    2    0    0  0.32890244397E-01 -0.47761364437E-01  0.24960952770E+01  0.24967688738E+01  0.51109989000E-03 0.  1.
      611    1    1    2    0    0 -0.35904353839E-01  0.50884964549E-01  0.28834620519E+01  0.28841345440E+01  0.51109989000E-03 0. -1.
</event>
<event>
 6   3  0.4012498E+04  0.9118800E+02  0.7818608E-02  0.1180000E+00
       11   -1    0    0    0    0  0.00000000000E+00  0.00000000000E+00  0.54999999763E+01  0.55000000000E+01  0.51109989000E-03 0. -1.
     -623   -1    0    0    0    0  0.00000000000E+00  0.00000000000E+00  0.93234578044E-11  0.17124000000E+03  0.17124000000E+03 0. -1.
       11    1    1    2    0    0  0.14114692445E+00 -0.24939628091E-01  0.57726841639E+00  0.59479704532E+00  0.51109989000E-03 0. -1.
     -623    1    1    2    0    0 -0.41120822669E-02  0.38975299670E-02  0.19489725932E-01  0.17124000120E+03  0.17124000000E+03 0. -1.
     -611    1    1    2    0    0 -0.52226664210E-01  0.80870476240E-02  0.18495657648E+01  0.18503207302E+01  0.51109989000E-03 0. -1.
      611    1    1    2    0    0 -0.84808178571E-01  0.12955050593E-01  0.30536760906E+01  0.30548810432E+01  0.51109989000E-03 0. -1.
</event>
<event>
 6   3  0.4012498E+04  0.9118800E+02  0.7818608E-02  0.1180000E+00
       11   -1    0    0    0    0  0.00000000000E+00  0.00000000000E+00  0.54999999763E+01  0.55000000000E+01  0.51109989000E-03 0.  1.
     -623   -1    0    0    0    0  0.00000000000E+00  0.00000000000E+00  0.93234578044E-11  0.17124000000E+03  0.17124000000E+03 0. -1.
       11    1    1    2    0    0  0.50743828988E-02 -0.92811424122E-03  0.18994219603E+00  0.19001292012E+00  0.51109989000E-03 0.  1.
     -623    1    1    2    0    0 -0.15437658359E-02 -0.86400765333E-02  0.11300376131E-02  0.17124000023E+03  0.17124000000E+03 0. -1.
     -611    1    1    2    0    0  0.49269478840E-01  0.13293362031E-01  0.20843913198E+01  0.20850159784E+01  0.51109989000E-03 0. -1.
      611    1    1    2    0    0 -0.52800095903E-01 -0.37251712568E-02  0.32245364229E+01  0.32249708729E+01  0.51109989000E-03 0.  1.
</event>
<event>
 6   3  0.4012498E+04  0.9118800E+02  0.7818608E-02  0.1180000E+00
       11   -1    0    0    0    0  0.00000000000E+00  0.00000000000E+00  0.54999999763E+01  0.55000000000E+01  0.51109989000E-03 0.  1.
     -623   -1    0    0    0    0  0.00000000000E+00  0.00000000000E+00  0.93234578044E-11  0.17124000000E+03  0.17124000000E+03 0.  1.
       11    1    1    2    0    0 -0.71498510221E-01  0.16639726445E-01  0.69638255138E+00  0.70024127024E+00  0.51109989000E-03 0.  1.
     -623    1    1    2    0    0  0.16082351400E-01 -0.12592412901E-01  0.41893575547E-02  0.17124000127E+03  0.17124000000E+03 0.  1.
     -611    1    1    2    0    0  0.21479637652E-01  0.25830521507E-02  0.18879774752E+01  0.18881014949E+01  0.51109989000E-03 0.  1.
      611    1    1    2    0    0  0.33936521474E-01 -0.66303657172E-02  0.29114506186E+01  0.29116559919E+01  0.51109989000E-03 0. -1.
</event>
<event>
 6   3  0.4012498E+04  0.9118800E+02  0.7818608E-02  0.1180000E+00
       11   -1    0    0    0    0  0.00000000000E+00  0.00000000000E+00  0.54999999763E+01  0.55000000000E+01  0.51109989000E-03 0.  1.
     -623   -1    0    0    0    0  0.00000000000E+00  0.00000000000E+00  0.93234578044E-11  0.17124000000E+03  0.17124000000E+03 0. -1.
       11    1    1    2    0    0 -0.68486191190E-01  0.26039240638E-01  0.10514794388E+01  0.10540292557E+01  0.51109989000E-03 0.  1.
     -623    1    1    2    0    0  0.14055301455E-01 -0.14613218205E-01  0.28994110290E-02  0.17124000122E+03  0.17124000000E+03 0. -1.
     -611    1    1    2    0    0  0.36112162992E-01 -0.83133970897E-02  0.29226386903E+01  0.29228736504E+01  0.51109989000E-03 0.  1.
      611    1    1    2    0    0  0.18318728205E-01 -0.31126256496E-02  0.15229825555E+01  0.15230959884E+01  0.51109989000E-03 0. -1.
</event>
<event>
 6   3  0.4012498E+04  0.9118800E+02  0.7818608E-02  0.1180000E+00
       11   -1    0    0    0    0  0.00000000000E+00  0.00000000000E+00  0.54999999763E+01  0.55000000000E+01  0.51109989000E-03 0.  1.
     -623   -1    0    0    0    0  0.00000000000E+00  0.00000000000E+00  0.93234578044E-11  0.17124000000E+03  0.17124000000E+03 0.  1.
       11    1    1    2    0    0 -0.10805477211E-01 -0.88607422510E-02  0.51555165901E+00  0.51574125821E+00  0.51109989000E-03 0.  1.
     -623    1    1    2    0    0  0.23907435794E-02  0.10039020394E-01  0.73905347860E-03  0.17124000031E+03  0.17124000000E+03 0.  1.
     -611    1    1    2    0    0 -0.24169274202E-01 -0.23008812627E-01  0.18194558297E+01  0.18197618901E+01  0.51109989000E-03 0. -1.
      611    1    1    2    0    0  0.32584007834E-01  0.21830534483E-01  0.31642534343E+01  0.31644965393E+01  0.51109989000E-03 0.  1.
</event>
<event>
 6   3  0.4012498E+04  0.9118800E+02  0.7818608E-02  0.1180000E+00
       11   -1    0    0    0    0  0.00000000000E+00  0.00000000000E+00  0.54999999763E+01  0.55000000000E+01  0.51109989000E-03 0. -1.
     -623   -1    0    0    0    0  0.00000000000E+00  0.00000000000E+00  0.93234578044E-11  0.17124000000E+03  0.17124000000E+03 0.  1.
       11    1    1    2    0    0  0.17784771335E-01  0.34637294785E-01  0.12726606779E+00  0.13309002035E+00  0.51109989000E-03 0. -1.
     -623    1    1    2    0    0 -0.30370751021E-01 -0.27307915081E-01  0.11008669755E-01  0.17124000522E+03  0.17124000000E+03 0.  1.
     -611    1    1    2    0    0  0.11080010353E+00  0.49976828167E-01  0.26007803618E+01  0.26036192306E+01  0.51109989000E-03 0. -1.
      611    1    1    2    0    0 -0.98214123844E-01 -0.57306207872E-01  0.27609448769E+01  0.27632855245E+01  0.51109989000E-03 0.  1.
</event>
<event>
 6   3  0.4012498E+04  0.9118800E+02  0.7818608E-02  0.1180000E+00
       11   -1    0    0    0    0  0.00000000000E+00  0.00000000000E+00  0.54999999763E+01  0.55000000000E+01  0.51109989000E-03 0. -1.
     -623   -1    0    0    0    0  0.00000000000E+00  0.00000000000E+00  0.93234578044E-11  0.17124000000E+03  0.17124000000E+03 0.  1.
       11    1    1    2    0    0  0.51061770779E-01 -0.17620180933E-01  0.88871889277E+00  0.89035908868E+00  0.51109989000E-03 0. -1.
     -623    1    1    2    0    0  0.25107649087E-02  0.20351126128E-02  0.19781504342E-02  0.17124000004E+03  0.17124000000E+03 0.  1.
     -611    1    1    2    0    0 -0.32832257860E-01  0.89734593033E-02  0.27975661373E+01  0.27977732278E+01  0.51109989000E-03 0. -1.
      611    1    1    2    0    0 -0.20740278341E-01  0.66116091666E-02  0.18117368399E+01  0.18118676857E+01  0.51109989000E-03 0. -1.
</event>
<event>
 6   3  0.4012498E+04  0.9118800E+02  0.7818608E-02  0.1180000E+00
       11   -1    0    0    0    0  0.00000000000E+00  0.00000000000E+00  0.54999999763E+01  0.55000000000E+01  0.51109989000E-03 0. -1.
     -623   -1    0    0    0    0  0.00000000000E+00  0.00000000000E+00  0.93234578044E-11  0.17124000000E+03  0.17124000000E+03 0. -1.
       11    1    1    2    0    0 -0.13204725112E+00  0.90101895507E-01  0.66558472753E+00  0.68451305236E+00  0.51109989000E-03 0. -1.
     -623    1    1    2    0    0  0.26620949599E-01 -0.95914194545E-02  0.20777949920E-01  0.17124000360E+03  0.17124000000E+03 0. -1.
     -611    1    1    2    0    0  0.89704515604E-01 -0.62385717726E-01  0.38894365093E+01  0.38909710226E+01  0.51109989000E-03 0. -1.
      611    1    1    2    0    0  0.15721785780E-01 -0.18124758219E-01  0.92420078317E+00  0.92451232022E+00  0.51109989000E-03 0.  1.
</event>
<event>
 6   3  0.4012498E+04  0.9118800E+02  0.7818608E-02  0.1180000E+00
       11   -1    0    0    0    0  0.00000000000E+00  0.00000000000E+00  0.54999999763E+01  0.55000000000E+01  0.51109989000E-03 0. -1.
     -623   -1    0    0    0    0  0.00000000000E+00  0.00000000000E+00  0.93234578044E-11  0.17124000000E+03  0.17124000000E+03 0. -1.
       11    1    1    2    0    0 -0.82777931537E-02 -0.66702958071E-02  0.38724246451E+00  0.38738869659E+00  0.51109989000E-03 0. -1.
     -623    1    1    2    0    0 -0.94830527606E-02 -0.10541302384E-01  0.67240797515E-03  0.17124000059E+03  0.17124000000E+03 0. -1.
     -611    1    1    2    0    0  0.44014051878E-01  0.12891448043E-01  0.28492475122E+01  0.28496166537E+01  0.51109989000E-03 0.  1.
      611    1    1    2    0    0 -0.26253205964E-01  0.43201501479E-02  0.22628375916E+01  0.22629940614E+01  0.51109989000E-03 0. -1.
</event>
<event>
 6   3  0.4012498E+04  0.9118800E+02  0.7818608E-02  0.1180000E+00
       11   -1    0    0    0    0  0.00000000000E+00  0.00000000000E+00  0.54999999763E+01  0.55000000000E+01  0.51109989000E-03 0. -1.
     -623   -1    0    0    0    0  0.00000000000E+00  0.00000000000E+00  0.93234578044E-11  0.17124000000E+03  0.17124000000E+03 0.  1.
       11    1    1    2    0    0  0.15221326802E-02  0.26754556256E-02  0.37205094260E-01  0.37335709623E-01  0.51109989000E-03 0. -1.
     -623    1    1    2    0    0 -0.19806049798E-02  0.37046448190E-03  0.14887729349E-02  0.17124000002E+03  0.17124000000E+03 0.  1.
     -611    1    1    2    0    0 -0.52769700543E-01 -0.16183035797E-02  0.40654775013E+01  0.40658203151E+01  0.51109989000E-03 0. -1.
      611    1    1    2    0    0  0.53228172842E-01 -0.14276165278E-02  0.13958286078E+01  0.13968439569E+01  0.51109989000E-03 0.  1.
</event>
<event>
 6   3  0.4012498E+04  0.9118800E+02  0.7818608E-02  0.1180000E+00
       11   -1    0    0    0    0  0.00000000000E+00  0.00000000000E+00  0.54999999763E+01  0.55000000000E+01  0.51109989000E-03 0.  1.
     -623   -1    0    0    0    0  0.00000000000E+00  0.00000000000E+00  0.93234578044E-11  0.17124000000E+03  0.17124000000E+03 0. -1.
       11    1    1    2    0    0  0.68075385546E-01 -0.13712424369E-01  0.99323240392E+00  0.99565714888E+00  0.51109989000E-03 0.  1.
     -623    1    1    2    0    0  0.52697372992E-03 -0.32151910755E-01  0.31976817364E-02  0.17124000305E+03  0.17124000000E+03 0. -1.
     -611    1    1    2    0    0 -0.34706705531E-01  0.17103899015E-01  0.22201226750E+01  0.22204598740E+01  0.51109989000E-03 0.  1.
      611    1    1    2    0    0 -0.33895653935E-01  0.28760436235E-01  0.22834472281E+01  0.22838799405E+01  0.51109989000E-03 0. -1.
</event>
<event>
 6   3  0.4012498E+04  0.9118800E+02  0.7818608E-02  0.1180000E+00
       11   -1    0    0    0    0  0.00000000000E+00  0.00000000000E+00  0.54999999763E+01  0.55000000000E+01  0.51109989000E-03 0. -1.
     -623   -1    0    0    0    0  0.00000000000E+00  0.00000000000E+00  0.93234578044E-11  0.17124000000E+03  0.17124000000E+03 0. -1.
       11    1    1    2    0    0 -0.56352279019E-02  0.34574702616E-02  0.59978738180E-01  0.60344180756E-01  0.51109989000E-03 0. -1.
     -623    1    1    2    0    0  0.13632216793E-01 -0.17099233394E-01  0.35582444376E-02  0.17124000143E+03  0.17124000000E+03 0. -1.
     -611    1    1    2    0    0 -0.66137937921E-01 -0.60271803256E-01  0.31207968287E+01  0.31220794391E+01  0.51109989000E-03 0. -1.
      611    1    1    2    0    0  0.58140949030E-01  0.73913566388E-01  0.23156661650E+01  0.23175749468E+01  0.51109989000E-03 0.  1.
</event>
<event>
 6   3  0.4012498E+04  0.9118800E+02  0.7818608E-02  0.1180000E+00
       11   -1    0    0    0    0  0.00000000000E+00  0.00000000000E+00  0.54999999763E+01  0.55000000000E+01  0.51109989000E-03 0. -1.
     -623   -1    0    0    0    0  0.00000000000E+00  0.00000000000E+00  0.93234578044E-11  0.17124000000E+03  0.17124000000E+03 0. -1.
       11    1    1    2    0    0 -0.76897421206E-01  0.80095383667E-02  0.57267319500E+00  0.57786868369E+00  0.51109989000E-03 0. -1.
     -623    1    1    2    0    0 -0.23462333441E-01 -0.14609990108E-02  0.62305643461E-02  0.17124000173E+03  0.17124000000E+03 0. -1.
     -611    1    1    2    0    0  0.73579163094E-01 -0.40810289810E-02  0.37562893027E+01  0.37570121287E+01  0.51109989000E-03 0. -1.
      611    1    1    2    0    0  0.26780591399E-01 -0.24675103648E-02  0.11648069067E+01  0.11651174532E+01  0.51109989000E-03 0.  1.
</event>
<event>
 6   3  0.4012498E+04  0.9118800E+02  0.7818608E-02  0.1180000E+00
       11   -1    0    0    0    0  0.00000000000E+00  0.00000000000E+00  0.54999999763E+01  0.55000000000E+01  0.51109989000E-03 0.  1.
     -623   -1    0    0    0    0  0.00000000000E+00  0.00000000000E+00  0.93234578044E-11  0.17124000000E+03  0.17124000000E+03 0. -1.
       11    1    1    2    0    0 -0.85160895206E-02 -0.35393544303E-02  0.18451319699E+00  0.18474423374E+00  0.51109989000E-03 0.  1.
     -623    1    1    2    0    0  0.21329390133E-01  0.13592967526E-01  0.14090295825E-02  0.17124000187E+03  0.17124000000E+03 0. -1.
     -611    1    1    2    0    0  0.39792916687E-01  0.18927631691E-01  0.32610109020E+01  0.32613086477E+01  0.51109989000E-03 0.  1.
      611    1    1    2    0    0 -0.52606217299E-01 -0.28981244786E-01  0.20530668476E+01  0.20539452448E+01  0.51109989000E-03 0. -1.
</event>
<event>
 6   3  0.4012498E+04  0.9118800E+02  0.7818608E-02  0.1180000E+00
       11   -1    0    0    0    0  0.00000000000E+00  0.00000000000E+00  0.54999999763E+01  0.55000000000E+01  0.51109989000E-03 0. -1.
     -623   -1    0    0    0    0  0.00000000000E+00  0.00000000000E+00  0.93234578044E-11  0.17124000000E+03  0.17124000000E+03 0.  1.
       11    1    1    2    0    0 -0.77403670093E-01 -0.94611960351E-02  0.82060875936E+00  0.82430567118E+00  0.51109989000E-03 0. -1.
     -623    1    1    2    0    0 -0.11089313622E-01  0.64923710640E-02  0.45497032080E-02  0.17124000054E+03  0.17124000000E+03 0.  1.
     -611    1    1    2    0    0  0.21385667284E-01 -0.26503158408E-02  0.13262575697E+01  0.13264327248E+01  0.51109989000E-03 0.  1.
      611    1    1    2    0    0  0.67107316574E-01  0.56191408166E-02  0.33485839515E+01  0.33492610690E+01  0.51109989000E-03 0. -1.
</event>
<event>
 6   3  0.4012498E+04  0.9118800E+02  0.7818608E-02  0.1180000E+00
       11   -1    0    0    0    0  0.00000000000E+00  0.00000000000E+00  0.54999999763E+01  0.55000000000E+01  0.51109989000E-03 0.  1.
     -623   -1    0    0    0    0  0.00000000000E+00  0.00000000000E+00  0.93234578044E-11  0.17124000000E+03  0.17124000000E+03 0. -1.
       11    1    1    2    0    0 -0.48977889735E-01 -0.11253676116E-01  0.35992640815E+00  0.36341816055E+00  0.51109989000E-03 0.  1.
     -623    1    1    2    0    0 -0.11529341104E-01 -0.12752477456E-01  0.39125807309E-02  0.17124000091E+03  0.17124000000E+03 0. -1.
     -611    1    1    2    0    0  0.17536323488E-01  0.10633884870E-01  0.14468162094E+01  0.14469616468E+01  0.51109989000E-03 0. -1.
      611    1    1    2    0    0  0.42970907599E-01  0.13372268801E-01  0.36893447991E+01  0.36896193061E+01  0.51109989000E-03 0.  1.
</event>
<event>
 6   3  0.4012498E+04  0.9118800E+02  0.7818608E-02  0.1180000E+00
       11   -1    0    0    0    0  0.00000000000E+00  0.00000000000E+00  0.54999999763E+01  0.55000000000E+01  0.51109989000E-03 0. -1.
     -623   -1    0    0    0    0  0.00000000000E+00  0.00000000000E+00  0.93234578044E-11  0.17124000000E+03  0.17124000000E+03 0. -1.
       11    1    1    2    0    0  0.20307044657E-02 -0.24655453268E-02  0.21062939974E-01  0.21309888265E-01  0.51109989000E-03 0. -1.
     -623    1    1    2    0    0  0.56718997970E-03  0.34615618195E-02  0.18341440448E-02  0.17124000005E+03  0.17124000000E+03 0. -1.
     -611    1    1    2    0    0 -0.52500802647E-01 -0.78037618890E-02  0.44811652724E+01  0.44814796320E+01  0.51109989000E-03 0. -1.
      611    1    1    2    0    0  0.49902908202E-01  0.68077453962E-02  0.99593761987E+00  0.99721043393E+00  0.51109989000E-03 0.  1.
</event>
<event>
 6   3  0.4012498E+04  0.9118800E+02  0.7818608E-02  0.1180000E+00
       11   -1    0    0    0    0  0.00000000000E+00  0.00000000000E+00  0.54999999763E+01  0.55000000000E+01  0.51109989000E-03 0.  1.
     -623   -1    0    0    0    0  0.00000000000E+00  0.00000000000E+00  0.93234578044E-11  0.17124000000E+03  0.17124000000E+03 0.  1.
       11    1    1    2    0    0 -0.64550060383E-02  0.92253786925E-02  0.71454066166E-01  0.72337538736E-01  0.51109989000E-03 0.  1.
     -623    1    1    2    0    0 -0.18185545390E-02  0.12557325594E-02  0.12449475911E-02  0.17124000002E+03  0.17124000000E+03 0.  1.
     -611    1    1    2    0    0 -0.26518646959E-01 -0.86508683540E-03  0.23245298947E+01  0.23246813716E+01  0.51109989000E-03 0. -1.
      611    1    1    2    0    0  0.34792207536E-01 -0.96160244172E-02  0.31027710682E+01  0.31029810712E+01  0.51109989000E-03 0.  1.
</event>
<event>
 6   3  0.4012498E+04  0.9118800E+02  0.7818608E-02  0.1180000E+00
       11   -1    0    0    0    0  0.00000000000E+00  0.00000000000E+00  0.54999999763E+01  0.55000000000E+01  0.51109989000E-03 0.  1.
     -623   -1    0    0    0    0  0.00000000000E+00  0.00000000000E+00  0.93234578044E-11  0.17124000000E+03  0.17124000000E+03 0. -1.
       11    1    1    2    0    0 -0.44735457761E-02 -0.25891688734E-03  0.94603990272E-01  0.94711434622E-01  0.51109989000E-03 0.  1.
     -623    1    1    2    0    0  0.11707582530E-01  0.38982636532E-02  0.20138555686E-02  0.17124000046E+03  0.17124000000E+03 0. -1.
     -611    1    1    2    0    0  0.50572553199E-01  0.41089314581E-01  0.32828094877E+01  0.32834561530E+01  0.51109989000E-03 0. -1.
      611    1    1    2    0    0 -0.57806589952E-01 -0.44728661347E-01  0.21205726427E+01  0.21218319559E+01  0.51109989000E-03 0.  1.
</event>
<event>
 6   3  0.4012498E+04  0.9118800E+02  0.7818608E-02  0.1180000E+00
       11   -1    0    0    0    0  0.00000000000E+00  0.00000000000E+00  0.54999999763E+01  0.55000000000E+01  0.51109989000E-03 0. -1.
     -623   -1    0    0    0    0  0.00000000000E+00  0.00000000000E+00  0.93234578044E-11  0.17124000000E+03  0.17124000000E+03 0. -1.
       11    1    1    2    0    0 -0.99869299486E-02  0.10050684843E-02  0.34033861802E+00  0.34048698223E+00  0.51109989000E-03 0. -1.
     -623    1    1    2    0    0 -0.79609941468E-02  0.18642099058E-01  0.40764854312E-02  0.17124000125E+03  0.17124000000E+03 0. -1.
     -611    1    1    2    0    0 -0.58895442086E-01 -0.79329513339E-01  0.20162133823E+01  0.20186328317E+01  0.51109989000E-03 0.  1.
      611    1    1    2    0    0  0.76843366181E-01  0.59682345796E-01  0.31393714905E+01  0.31408789378E+01  0.51109989000E-03 0. -1.
</event>
<event>
 6   3  0.4012498E+04  0.9118800E+02  0.7818608E-02  0.1180000E+00
       11   -1    0    0    0    0  0.00000000000E+00  0.00000000000E+00  0.54999999763E+01  0.55000000000E+01  0.51109989000E-03 0. -1.
     -623   -1    0    0    0    0  0.00000000000E+00  0.00000000000E+00  0.93234578044E-11  0.17124000000E+03  0.17124000000E+03 0. -1.
       11    1    1    2    0    0  0.68854125491E-01 -0.52012168838E-01  0.97057921162E+00  0.97440772963E+00  0.51109989000E-03 0. -1.
     -623    1    1    2    0    0  0.67253319880E-02 -0.93111605327E-02  0.48758535712E-02  0.17124000045E+03  0.17124000000E+03 0. -1.
     -611    1    1    2    0    0 -0.57380559456E-01  0.46849265146E-01  0.34498503812E+01  0.34506456346E+01  0.51109989000E-03 0. -1.
      611    1    1    2    0    0 -0.18198908326E-01  0.14474072585E-01  0.10746951467E+01  0.10749467980E+01  0.51109989000E-03 0. -1.
</event>
<event>
 6   3  0.4012498E+04  0.9118800E+02  0.7818608E-02  0.1180000E+00
       11   -1    0    0    0    0  0.00000000000E+00  0.00000000000E+00  0.54999999763E+01  0.55000000000E+01  0.51109989000E-03 0.  1.
     -623   -1    0    0    0    0  0.00000000000E+00  0.00000000000E+00  0.93234578044E-11  0.17124000000E+03  0.17124000000E+03 0. -1.
       11    1    1    2    0    0  0.47799390906E-01  0.11811844570E-01  0.25473007670E+00  0.25944551382E+00  0.51109989000E-03 0.  1.
     -623    1    1    2    0    0  0.35068342517E-01  0.67389658522E-02  0.54117411859E-02  0.17124000381E+03  0.17124000000E+03 0. -1.
     -611    1    1    2    0    0 -0.51473350468E-01 -0.11446735873E-01  0.34511028998E+01  0.34515057612E+01  0.51109989000E-03 0.  1.
      611    1    1    2    0    0 -0.31394383456E-01 -0.71040746617E-02  0.17887552903E+01  0.17890449477E+01  0.51109989000E-03 0. -1.
</event>
<event>
 6   3  0.4012498E+04  0.9118800E+02  0.7818608E-02  0.1180000E+00
       11   -1    0    0    0    0  0.00000000000E+00  0.00000000000E+00  0.54999999763E+01  0.55000000000E+01  0.51109989000E-03 0.  1.
     -623   -1    0    0    0    0  0.00000000000E+00  0.00000000000E+00  0.93234578044E-11  0.17124000000E+03  0.17124000000E+03 0.  1.
       11    1    1    2    0    0 -0.47475490240E-01 -0.36481067849E-01  0.19285785573E+00  0.20193861499E+00  0.51109989000E-03 0.  1.
     -623    1    1    2    0    0 -0.92117293544E-02  0.22953622656E-01  0.94035231804E-02  0.17124000204E+03  0.17124000000E+03 0.  1.
     -611    1    1    2    0    0  0.16548437595E-01  0.38219923105E-02  0.15805461832E+01  0.15806375159E+01  0.51109989000E-03 0.  1.
      611    1    1    2    0    0  0.40138776390E-01  0.97054515439E-02  0.37171918900E+01  0.37174213005E+01  0.51109989000E-03 0.  1.
</event>
<event>
 6   3  0.4012498E+04  0.9118800E+02  0.7818608E-02  0.1180000E+00
       11   -1    0    0    0    0  0.00000000000E+00  0.00000000000E+00  0.54999999763E+01  0.55000000000E+01  0.51109989000E-03 0. -1.
     -623   -1    0    0    0    0  0.00000000000E+00  0.00000000000E+00  0.93234578044E-11  0.17124000000E+03  0.17124000000E+03 0.  1.
       11    1    1    2    0    0  0.46804900362E-01  0.13413001499E-02  0.98287353885E+00  0.98398839037E+00  0.51109989000E-03 0. -1.
     -623    1    1    2    0    0  0.24108301720E-01 -0.51819607047E-02  0.16782928654E-02  0.17124000178E+03  0.17124000000E+03 0.  1.
     -611    1    1    2    0    0 -0.28104773520E-01  0.37780026839E-02  0.18827708696E+01  0.18829844822E+01  0.51109989000E-03 0.  1.
      611    1    1    2    0    0 -0.42808428451E-01  0.62657864913E-04  0.26326772680E+01  0.26330253367E+01  0.51109989000E-03 0. -1.
</event>
<event>
 6   3  0.4012498E+04  0.9118800E+02  0.7818608E-02  0.1180000E+00
       11   -1    0    0    0    0  0.00000000000E+00  0.00000000000E+00  0.54999999763E+01  0.55000000000E+01  0.51109989000E-03 0. -1.
     -623   -1    0    0    0    0  0.00000000000E+00  0.00000000000E+00  0.93234578044E-11  0.17124000000E+03  0.17124000000E+03 0. -1.
       11    1    1    2    0    0  0.23100518507E-01 -0.37618027458E-01  0.10953586717E+01  0.10962479787E+01  0.51109989000E-03 0. -1.
     -623    1    1    2    0    0 -0.16410545351E-02  0.19520068337E-02  0.13812779605E-02  0.17124000002E+03  0.17124000000E+03 0. -1.
     -611    1    1    2    0    0  0.14941712236E-01  0.22236220780E-02  0.14440442240E+01  0.14441233262E+01  0.51109989000E-03 0.  1.
      611    1    1    2    0    0 -0.36401176209E-01  0.33442398548E-01  0.29592158028E+01  0.29596286707E+01  0.51109989000E-03 0. -1.
</event>
<event>
 6   3  0.4012498E+04  0.9118800E+02  0.7818608E-02  0.1180000E+00
       11   -1    0    0    0    0  0.00000000000E+00  0.00000000000E+00  0.54999999763E+01  0.55000000000E+01  0.51109989000E-03 0. -1.
     -623   -1    0    0    0    0  0.00000000000E+00  0.00000000000E+00  0.93234578044E-11  0.17124000000E+03  0.17124000000E+03 0.  1.
       11    1    1    2    0    0  0.67188101217E-01 -0.40487700039E-02  0.21013748325E+00  0.22065506243E+00  0.51109989000E-03 0. -1.
     -623    1    1    2    0    0 -0.79574756949E-02 -0.22844252415E-01  0.10939676308E-01  0.17124000206E+03  0.17124000000E+03 0.  1.
     -611    1    1    2    0    0 -0.38789684487E-01  0.23769722750E-01  0.33432658284E+01  0.33435753767E+01  0.51109989000E-03 0. -1.
      611    1    1    2    0    0 -0.20440940940E-01  0.31232996256E-02  0.19356569799E+01  0.19357674943E+01  0.51109989000E-03 0.  1.
</event>
<event>
 6   3  0.4012498E+04  0.9118800E+02  0.7818608E-02  0.1180000E+00
       11   -1    0    0    0    0  0.00000000000E+00  0.00000000000E+00  0.54999999763E+01  0.55000000000E+01  0.51109989000E-03 0.  1.
     -623   -1    0    0    0    0  0.00000000000E+00  0.00000000000E+00  0.93234578044E-11  0.17124000000E+03  0.17124000000E+03 0.  1.
       11    1    1    2    0    0 -0.11468494669E+00 -0.10757285989E+00  0.50046329809E+00  0.52458396005E+00  0.51109989000E-03 0.  1.
     -623    1    1    2    0    0 -0.44154713364E-02  0.50373538932E-01  0.25885337821E-01  0.17124000942E+03  0.17124000000E+03 0.  1.
     -611    1    1    2    0    0  0.63096487901E-01  0.29068209891E-01  0.25994066774E+01  0.26003348752E+01  0.51109989000E-03 0.  1.
      611    1    1    2    0    0  0.56003933986E-01  0.28131112927E-01  0.23742448242E+01  0.23750719035E+01  0.51109989000E-03 0. -1.
</event>
<event>
 6   3  0.4340809E+04  0.9118800E+02  0.7818608E-02  0.1180000E+00
       11   -1    0    0    0    0  0.00000000000E+00  0.00000000000E+00  0.54999999763E+01  0.55000000000E+01  0.51109989000E-03 0. -1.
     -623   -1    0    0    0    0  0.00000000000E+00  0.00000000000E+00  0.93234578044E-11  0.17124000000E+03  0.17124000000E+03 0.  1.
       11    1    1    2    0    0 -0.65808725885E-02  0.58925674037E-02  0.69066431547E+00  0.69072099151E+00  0.51109989000E-03 0. -1.
     -623    1    1    2    0    0  0.71018912480E-01  0.10264172164E-01  0.53114499486E-03  0.17124001504E+03  0.17124000000E+03 0.  1.
     -611    1    1    2    0    0 -0.11318005098E-01 -0.20623562482E-02  0.83018405464E+00  0.83026391970E+00  0.51109989000E-03 0.  1.
      611    1    1    2    0    0 -0.53120032953E-01 -0.14094382858E-01  0.39786203238E+01  0.39789999161E+01  0.51109989000E-03 0. -1.
</event>
<event>
 6   3  0.4012498E+04  0.9118800E+02  0.7818608E-02  0.1180000E+00
       11   -1    0    0    0    0  0.00000000000E+00  0.00000000000E+00  0.54999999763E+01  0.55000000000E+01  0.51109989000E-03 0. -1.
     -623   -1    0    0    0    0  0.00000000000E+00  0.00000000000E+00  0.93234578044E-11  0.17124000000E+03  0.17124000000E+03 0. -1.
       11    1    1    2    0    0  0.21071373031E-01  0.77733724664E-02  0.56191093857E+00  0.56235984226E+00  0.51109989000E-03 0. -1.
     -623    1    1    2    0    0  0.54409177450E-03 -0.94440455484E-03  0.11221175426E-02  0.17124000001E+03  0.17124000000E+03 0. -1.
     -611    1    1    2    0    0 -0.46029916371E-01  0.55693054850E-02  0.40118235479E+01  0.40120915008E+01  0.51109989000E-03 0. -1.
      611    1    1    2    0    0  0.24414451566E-01 -0.12398273396E-01  0.92514337207E+00  0.92554864958E+00  0.51109989000E-03 0.  1.
</event>
<event>
 6   3  0.4012498E+04  0.9118800E+02  0.7818608E-02  0.1180000E+00
       11   -1    0    0    0    0  0.00000000000E+00  0.00000000000E+00  0.54999999763E+01  0.55000000000E+01  0.51109989000E-03 0.  1.
     -623   -1    0    0    0    0  0.00000000000E+00  0.00000000000E+00  0.93234578044E-11  0.17124000000E+03  0.17124000000E+03 0.  1.
       11    1    1    2    0    0  0.36158155349E-01 -0.22256662790E-01  0.81882369237E+00  0.81992394260E+00  0.51109989000E-03 0.  1.
     -623    1    1    2    0    0  0.16670283603E-02  0.14841332578E-05  0.26211101619E-02  0.17124000003E+03  0.17124000000E+03 0.  1.
     -611    1    1    2    0    0 -0.64098618418E-01  0.43982196470E-01  0.38998070448E+01  0.39005817917E+01  0.51109989000E-03 0.  1.
      611    1    1    2    0    0  0.26273434708E-01 -0.21727017813E-01  0.77874812899E+00  0.77949423750E+00  0.51109989000E-03 0. -1.
</event>
<event>
 6   3  0.4012498E+04  0.9118800E+02  0.7818608E-02  0.1180000E+00
       11   -1    0    0    0    0  0.00000000000E+00  0.00000000000E+00  0.54999999763E+01  0.55000000000E+01  0.51109989000E-03 0. -1.
     -623   -1    0    0    0    0  0.00000000000E+00  0.00000000000E+00  0.93234578044E-11  0.17124000000E+03  0.17124000000E+03 0.  1.
       11    1    1    2    0    0 -0.13260822759E-01  0.30377767363E-01  0.63201469110E+00  0.63288347203E+00  0.51109989000E-03 0. -1.
     -623    1    1    2    0    0 -0.62252887256E-02 -0.45681441817E-02  0.17281086958E-02  0.17124000018E+03  0.17124000000E+03 0.  1.
     -611    1    1    2    0    0 -0.21175098557E-01  0.18987196913E-01  0.10742092086E+01  0.10745857730E+01  0.51109989000E-03 0.  1.
      611    1    1    2    0    0  0.40661210042E-01 -0.44796820096E-01  0.37920479680E+01  0.37925305723E+01  0.51109989000E-03 0. -1.
</event>
<event>
 6   3  0.4012498E+04  0.9118800E+02  0.7818608E-02  0.1180000E+00
       11   -1    0    0    0    0  0.00000000000E+00  0.00000000000E+00  0.54999999763E+01  0.55000000000E+01  0.51109989000E-03 0. -1.
     -623   -1    0    0    0    0  0.00000000000E+00  0.00000000000E+00  0.93234578044E-11  0.17124000000E+03  0.17124000000E+03 0. -1.
       11    1    1    2    0    0  0.62697798628E-01 -0.13548141909E-01  0.10231065594E+00  0.12075718465E+00  0.51109989000E-03 0. -1.
     -623    1    1    2    0    0  0.26347873263E-02  0.11157655295E-01  0.18846578628E-01  0.17124000142E+03  0.17124000000E+03 0. -1.
     -611    1    1    2    0    0 -0.10720897278E-01  0.16367923160E-02  0.85421752679E+00  0.85428652162E+00  0.51109989000E-03 0.  1.
      611    1    1    2    0    0 -0.54611688582E-01  0.75369429485E-03  0.45246252071E+01  0.45249548650E+01  0.51109989000E-03 0. -1.
</event>
<event>
 6   3  0.4012498E+04  0.9118800E+02  0.7818608E-02  0.1180000E+00
       11   -1    0    0    0    0  0.00000000000E+00  0.00000000000E+00  0.54999999763E+01  0.55000000000E+01  0.51109989000E-03 0. -1.
     -623   -1    0    0    0    0  0.00000000000E+00  0.00000000000E+00  0.93234578044E-11  0.17124000000E+03  0.17124000000E+03 0.  1.
       11    1    1    2    0    0 -0.45151719554E-02 -0.12796854586E-02  0.56198341091E-01  0.56396268825E-01  0.51109989000E-03 0. -1.
     -623    1    1    2    0    0  0.86437480180E-02  0.72336496930E-02  0.13542118306E-02  0.17124000038E+03  0.17124000000E+03 0.  1.
     -611    1    1    2    0    0 -0.50555657942E-01 -0.20860941033E-01  0.39044790807E+01  0.39048621239E+01  0.51109989000E-03 0. -1.
      611    1    1    2    0    0  0.46427081879E-01  0.14906976799E-01  0.15379683426E+01  0.15387412310E+01  0.51109989000E-03 0.  1.
</event>
<event>
 6   3  0.4012498E+04  0.9118800E+02  0.7818608E-02  0.1180000E+00
       11   -1    0    0    0    0  0.00000000000E+00  0.00000000000E+00  0.54999999763E+01  0.55000000000E+01  0.51109989000E-03 0.  1.
     -623   -1    0    0    0    0  0.00000000000E+00  0.00000000000E+00  0.93234578044E-11  0.17124000000E+03  0.17124000000E+03 0. -1.
       11    1    1    2    0    0 -0.12498935756E-01  0.37048578659E-01  0.33920716436E+00  0.34145363105E+00  0.51109989000E-03 0.  1.
     -623    1    1    2    0    0 -0.10999771133E-01  0.15306778075E-01  0.43668539833E-02  0.17124000109E+03  0.17124000000E+03 0. -1.
     -611    1    1    2    0    0  0.64861636749E-01 -0.55026834882E-01  0.45043633847E+01  0.45051664505E+01  0.51109989000E-03 0.  1.
      611    1    1    2    0    0 -0.41362929860E-01  0.26714781479E-02  0.65206257333E+00  0.65337882543E+00  0.51109989000E-03 0. -1.
</event>
<event>
 6   3  0.4012498E+04  0.9118800E+02  0.7818608E-02  0.1180000E+00
       11   -1    0    0    0    0  0.00000000000E+00  0.00000000000E+00  0.54999999763E+01  0.55000000000E+01  0.51109989000E-03 0.  1.
     -623   -1    0    0    0    0  0.00000000000E+00  0.00000000000E+00  0.93234578044E-11  0.17124000000E+03  0.17124000000E+03 0. -1.
       11    1    1    2    0    0 -0.10236930957E+00 -0.16262816040E-01  0.63806283679E+00  0.64642741251E+00  0.51109989000E-03 0.  1.
     -623    1    1    2    0    0  0.21153156794E-01  0.82577336558E-01  0.95275506209E-02  0.17124002148E+03  0.17124000000E+03 0. -1.
     -611    1    1    2    0    0  0.56005613173E-01 -0.49770452011E-01  0.35826825543E+01  0.35834659581E+01  0.51109989000E-03 0.  1.
      611    1    1    2    0    0  0.25210539666E-01 -0.16544068560E-01  0.12697270384E+01  0.12700851510E+01  0.51109989000E-03 0. -1.
</event>
<event>
 6   3  0.4012498E+04  0.9118800E+02  0.7818608E-02  0.1180000E+00
       11   -1    0    0    0    0  0.00000000000E+00  0.00000000000E+00  0.54999999763E+01  0.55000000000E+01  0.51109989000E-03 0. -1.
     -623   -1    0    0    0    0  0.00000000000E+00  0.00000000000E+00  0.93234578044E-11  0.17124000000E+03  0.17124000000E+03 0.  1.
       11    1    1    2    0    0  0.61602216271E-01 -0.48725946082E-01  0.10928647146E+01  0.10956836206E+01  0.51109989000E-03 0. -1.
     -623    1    1    2    0    0  0.92634168534E-02  0.11878876165E-01  0.35447099915E-02  0.17124000070E+03  0.17124000000E+03 0.  1.
     -611    1    1    2    0    0 -0.57775563201E-01  0.29817518118E-01  0.35338458388E+01  0.35344439129E+01  0.51109989000E-03 0. -1.
      611    1    1    2    0    0 -0.13090070237E-01  0.70295519624E-02  0.86974473241E+00  0.86987178672E+00  0.51109989000E-03 0.  1.
</event>
<event>
 6   3  0.4012498E+04  0.9118800E+02  0.7818608E-02  0.1180000E+00
       11   -1    0    0    0    0  0.00000000000E+00  0.00000000000E+00  0.54999999763E+01  0.55000000000E+01  0.51109989000E-03 0. -1.
     -623   -1    0    0    0    0  0.00000000000E+00  0.00000000000E+00  0.93234578044E-11  0.17124000000E+03  0.17124000000E+03 0.  1.
       11    1    1    2    0    0  0.10843267558E-01  0.34684308825E-02  0.55209067593E-01  0.56372944152E-01  0.51109989000E-03 0. -1.
     -623    1    1    2    0    0  0.65656515517E-02 -0.10292817851E-01  0.42863988396E-02  0.17124000049E+03  0.17124000000E+03 0.  1.
     -611    1    1    2    0    0  0.81084902447E-01 -0.16890439446E-01  0.25746074876E+01  0.25759394451E+01  0.51109989000E-03 0.  1.
      611    1    1    2    0    0 -0.98493821557E-01  0.23714826415E-01  0.28658970222E+01  0.28676871219E+01  0.51109989000E-03 0. -1.
</event>
<event>
 6   3  0.4012498E+04  0.9118800E+02  0.7818608E-02  0.1180000E+00
       11   -1    0    0    0    0  0.00000000000E+00  0.00000000000E+00  0.54999999763E+01  0.55000000000E+01  0.51109989000E-03 0. -1.
     -623   -1    0    0    0    0  0.00000000000E+00  0.00000000000E+00  0.93234578044E-11  0.17124000000E+03  0.17124000000E+03 0. -1.
       11    1    1    2    0    0 -0.11382087019E-01  0.83227157996E-02  0.19920805994E-01  0.24411457106E-01  0.51109989000E-03 0. -1.
     -623    1    1    2    0    0  0.59044761363E-02  0.21176941648E-03  0.48700818578E-02  0.17124000017E+03  0.17124000000E+03 0. -1.
     -611    1    1    2    0    0 -0.27461629469E-01 -0.13923779728E-01  0.23770516602E+01  0.23772511161E+01  0.51109989000E-03 0.  1.
      611    1    1    2    0    0  0.32939240353E-01  0.53892945120E-02  0.30981574283E+01  0.30983372557E+01  0.51109989000E-03 0. -1.
</event>
<event>
 6   3  0.4012498E+04  0.9118800E+02  0.7818608E-02  0.1180000E+00
       11   -1    0    0    0    0  0.00000000000E+00  0.00000000000E+00  0.54999999763E+01  0.55000000000E+01  0.51109989000E-03 0. -1.
     -623   -1    0    0    0    0  0.00000000000E+00  0.00000000000E+00  0.93234578044E-11  0.17124000000E+03  0.17124000000E+03 0.  1.
       11    1    1    2    0    0 -0.18137581520E+00  0.10717845884E+00  0.76250382291E+00  0.79107316321E+00  0.51109989000E-03 0. -1.
     -623    1    1    2    0    0  0.84792262904E-02 -0.16914086857E-01  0.32614831959E-01  0.17124000415E+03  0.17124000000E+03 0.  1.
     -611    1    1    2    0    0  0.15005102065E+00 -0.78408517693E-01  0.40741338220E+01  0.40776500420E+01  0.51109989000E-03 0. -1.
      611    1    1    2    0    0  0.22845575005E-01 -0.11855857810E-01  0.63074768311E+00  0.63127282742E+00  0.51109989000E-03 0. -1.
</event>
<event>
 6   3  0.4012498E+04  0.9118800E+02  0.7818608E-02  0.1180000E+00
       11   -1    0    0    0    0  0.00000000000E+00  0.00000000000E+00  0.54999999763E+01  0.55000000000E+01  0.51109989000E-03 0. -1.
     -623   -1    0    0    0    0  0.00000000000E+00  0.00000000000E+00  0.93234578044E-11  0.17124000000E+03  0.17124000000E+03 0.  1.
       11    1    1    2    0    0  0.76267736556E-01  0.16353935661E-01  0.77290713941E+00  0.77683326797E+00  0.51109989000E-03 0. -1.
     -623    1    1    2    0    0 -0.22957219030E-01 -0.41155627267E-01  0.62932566929E-02  0.17124000660E+03  0.17124000000E+03 0.  1.
     -611    1    1    2    0    0 -0.74932833146E-01  0.63962959287E-01  0.37969866863E+01  0.37982646494E+01  0.51109989000E-03 0. -1.
      611    1    1    2    0    0  0.21622315620E-01 -0.39161267680E-01  0.92381289388E+00  0.92489548250E+00  0.51109989000E-03 0.  1.
</event>
<event>
 6   3  0.4012498E+04  0.9118800E+02  0.7818608E-02  0.1180000E+00
       11   -1    0    0    0    0  0.00000000000E+00  0.00000000000E+00  0.54999999763E+01  0.55000000000E+01  0.51109989000E-03 0. -1.
     -623   -1    0    0    0    0  0.00000000000E+00  0.00000000000E+00  0.93234578044E-11  0.17124000000E+03  0.17124000000E+03 0. -1.
       11    1    1    2    0    0 -0.59655619719E-01  0.67890706241E-01  0.10833422378E+01  0.10871056096E+01  0.51109989000E-03 0. -1.
     -623    1    1    2    0    0  0.10211985139E-02 -0.14418752254E-01  0.44778754278E-02  0.17124000067E+03  0.17124000000E+03 0. -1.
     -611    1    1    2    0    0  0.27483170335E-01 -0.24496966145E-01  0.20725772468E+01  0.20729042745E+01  0.51109989000E-03 0. -1.
      611    1    1    2    0    0  0.31151257839E-01 -0.28974994197E-01  0.23396031406E+01  0.23399899717E+01  0.51109989000E-03 0. -1.
</event>
<event>
 6   3  0.4012498E+04  0.9118800E+02  0.7818608E-02  0.1180000E+00
       11   -1    0    0    0    0  0.00000000000E+00  0.00000000000E+00  0.54999999763E+01  0.55000000000E+01  0.51109989000E-03 0. -1.
     -623   -1    0    0    0    0  0.00000000000E+00  0.00000000000E+00  0.93234578044E-11  0.17124000000E+03  0.17124000000E+03 0. -1.
       11    1    1    2    0    0  0.36135107629E-02 -0.46733179932E-02  0.86838291818E-01  0.87040493508E-01  0.51109989000E-03 0. -1.
     -623    1    1    2    0    0 -0.10876417092E-01  0.88893255875E-02  0.14072676104E-02  0.17124000058E+03  0.17124000000E+03 0. -1.
     -611    1    1    2    0    0 -0.48343541189E-01  0.12219321997E-01  0.16375740756E+01  0.16383331542E+01  0.51109989000E-03 0.  1.
      611    1    1    2    0    0  0.55606447519E-01 -0.16435329592E-01  0.37741803412E+01  0.37746257704E+01  0.51109989000E-03 0. -1.
</event>
<event>
 6   3  0.4012498E+04  0.9118800E+02  0.7818608E-02  0.1180000E+00
       11   -1    0    0    0    0  0.00000000000E+00  0.00000000000E+00  0.54999999763E+01  0.55000000000E+01  0.51109989000E-03 0.  1.
     -623   -1    0    0    0    0  0.00000000000E+00  0.00000000000E+00  0.93234578044E-11  0.17124000000E+03  0.17124000000E+03 0. -1.
       11    1    1    2    0    0 -0.74925438652E-02  0.15467368584E-02  0.14392217617E+00  0.14412628013E+00  0.51109989000E-03 0.  1.
     -623    1    1    2    0    0 -0.77226934570E-03 -0.27381370258E-02  0.61864641981E-03  0.17124000002E+03  0.17124000000E+03 0. -1.
     -611    1    1    2    0    0 -0.28940101965E-01 -0.11169536585E-02  0.26324173535E+01  0.26325767151E+01  0.51109989000E-03 0. -1.
      611    1    1    2    0    0  0.37204915176E-01  0.23083538260E-02  0.27230418003E+01  0.27232969800E+01  0.51109989000E-03 0.  1.
</event>
<event>
 6   3  0.4012498E+04  0.9118800E+02  0.7818608E-02  0.1180000E+00
       11   -1    0    0    0    0  0.00000000000E+00  0.00000000000E+00  0.54999999763E+01  0.55000000000E+01  0.51109989000E-03 0. -1.
     -623   -1    0    0    0    0  0.00000000000E+00  0.00000000000E+00  0.93234578044E-11  0.17124000000E+03  0.17124000000E+03 0.  1.
       11    1    1    2    0    0 -0.67495834256E-02 -0.28855177685E-03  0.22169201114E-01  0.23181346810E-01  0.51109989000E-03 0. -1.
     -623    1    1    2    0    0  0.10389833713E-01 -0.51397660013E-02  0.18244815344E-02  0.17124000040E+03  0.17124000000E+03 0.  1.
     -611    1    1    2    0    0  0.41899491976E-01  0.14508951764E-01  0.34205837538E+01  0.34208711690E+01  0.51109989000E-03 0. -1.
      611    1    1    2    0    0 -0.45539742263E-01 -0.90806339859E-02  0.20554225397E+01  0.20559470820E+01  0.51109989000E-03 0.  1.
</event>
<event>
 6   3  0.4012498E+04  0.9118800E+02  0.7818608E-02  0.1180000E+00
       11   -1    0    0    0    0  0.00000000000E+00  0.00000000000E+00  0.54999999763E+01  0.55000000000E+01  0.51109989000E-03 0. -1.
     -623   -1    0    0    0    0  0.00000000000E+00  0.00000000000E+00  0.93234578044E-11  0.17124000000E+03  0.17124000000E+03 0.  1.
       11    1    1    2    0    0  0.59696941023E-01 -0.40476265081E-01  0.10510462872E+01  0.10535182067E+01  0.51109989000E-03 0. -1.
     -623    1    1    2    0    0  0.92132733180E-02  0.36611834445E-02  0.31618478332E-02  0.17124000032E+03  0.17124000000E+03 0.  1.
     -611    1    1    2    0    0 -0.57624326164E-01  0.32326684757E-01  0.38242431677E+01  0.38248139360E+01  0.51109989000E-03 0. -1.
      611    1    1    2    0    0 -0.11285888652E-01  0.44883971336E-02  0.62154870419E+00  0.62166757186E+00  0.51109989000E-03 0.  1.
</event>
<event>
 6   3  0.4012498E+04  0.9118800E+02  0.7818608E-02  0.1180000E+00
       11   -1    0    0    0    0  0.00000000000E+00  0.00000000000E+00  0.54999999763E+01  0.55000000000E+01  0.51109989000E-03 0.  1.
     -623   -1    0    0    0    0  0.00000000000E+00  0.00000000000E+00  0.93234578044E-11  0.17124000000E+03  0.17124000000E+03 0.  1.
       11    1    1    2    0    0 -0.29421986324E-02  0.63629109116E-02  0.13366233243E-01  0.15101674824E-01  0.51109989000E-03 0.  1.
     -623    1    1    2    0    0  0.59916938248E-03 -0.69675623072E-02  0.32466094070E-02  0.17124000017E+03  0.17124000000E+03 0.  1.
     -611    1    1    2    0    0 -0.46365837992E-01  0.10132383088E-01  0.90634231880E+00  0.90758421989E+00  0.51109989000E-03 0. -1.
      611    1    1    2    0    0  0.48708867241E-01 -0.95277316928E-02  0.45770448148E+01  0.45773139317E+01  0.51109989000E-03 0.  1.
</event>
<event>
 6   3  0.4012498E+04  0.9118800E+02  0.7818608E-02  0.1180000E+00
       11   -1    0    0    0    0  0.00000000000E+00  0.00000000000E+00  0.54999999763E+01  0.55000000000E+01  0.51109989000E-03 0. -1.
     -623   -1    0    0    0    0  0.00000000000E+00  0.00000000000E+00  0.93234578044E-11  0.17124000000E+03  0.17124000000E+03 0. -1.
       11    1    1    2    0    0 -0.67427764079E-01  0.55782920894E-01  0.61961086387E+00  0.62576043457E+00  0.51109989000E-03 0. -1.
     -623    1    1    2    0    0  0.11240871237E-01 -0.11870396328E-01  0.66798275660E-02  0.17124000091E+03  0.17124000000E+03 0. -1.
     -611    1    1    2    0    0  0.21125029491E-01 -0.13726319709E-01  0.14901361853E+01  0.14903492177E+01  0.51109989000E-03 0.  1.
      611    1    1    2    0    0  0.35061863589E-01 -0.30186205044E-01  0.33835731202E+01  0.33838894577E+01  0.51109989000E-03 0. -1.
</event>
<event>
 6   3  0.4012498E+04  0.9118800E+02  0.7818608E-02  0.1180000E+00
       11   -1    0    0    0    0  0.00000000000E+00  0.00000000000E+00  0.54999999763E+01  0.55000000000E+01  0.51109989000E-03 0.  1.
     -623   -1    0    0    0    0  0.00000000000E+00  0.00000000000E+00  0.93234578044E-11  0.17124000000E+03  0.17124000000E+03 0. -1.
       11    1    1    2    0    0 -0.16543192874E-01  0.32057394638E-01  0.48837234287E+00  0.48970313485E+00  0.51109989000E-03 0.  1.
     -623    1    1    2    0    0 -0.60050522486E-02 -0.82323395394E-02  0.26141617118E-02  0.17124000032E+03  0.17124000000E+03 0. -1.
     -611    1    1    2    0    0 -0.42754556755E-01 -0.59719051819E-03  0.15559775960E+01  0.15565650803E+01  0.51109989000E-03 0. -1.
      611    1    1    2    0    0  0.65302801877E-01 -0.23227864579E-01  0.34530358756E+01  0.34537314616E+01  0.51109989000E-03 0.  1.
</event>
<event>
 6   3  0.4012498E+04  0.9118800E+02  0.7818608E-02  0.1180000E+00
       11   -1    0    0    0    0  0.00000000000E+00  0.00000000000E+00  0.54999999763E+01  0.55000000000E+01  0.51109989000E-03 0. -1.
     -623   -1    0    0    0    0  0.00000000000E+00  0.00000000000E+00  0.93234578044E-11  0.17124000000E+03  0.17124000000E+03 0.  1.
       11    1    1    2    0    0  0.23045038976E-01 -0.21068810627E-02  0.40074078370E+00  0.40140870658E+00  0.51109989000E-03 0. -1.
     -623    1    1    2    0    0  0.42330267424E-03  0.26151511362E-02  0.13247482573E-02  0.17124000003E+03  0.17124000000E+03 0.  1.
     -611    1    1    2    0    0  0.26923295322E-01  0.12585563895E-01  0.17716313407E+01  0.17718806756E+01  0.51109989000E-03 0. -1.
      611    1    1    2    0    0 -0.50391636972E-01 -0.13093833968E-01  0.33263031035E+01  0.33267105920E+01  0.51109989000E-03 0.  1.
</event>
<event>
 6   3  0.4012498E+04  0.9118800E+02  0.7818608E-02  0.1180000E+00
       11   -1    0    0    0    0  0.00000000000E+00  0.00000000000E+00  0.54999999763E+01  0.55000000000E+01  0.51109989000E-03 0.  1.
     -623   -1    0    0    0    0  0.00000000000E+00  0.00000000000E+00  0.93234578044E-11  0.17124000000E+03  0.17124000000E+03 0. -1.
       11    1    1    2    0    0 -0.11295314357E-01  0.14544896433E-01  0.83614799970E+00  0.83635092919E+00  0.51109989000E-03 0.  1.
     -623    1    1    2    0    0  0.28234226123E-02 -0.44489766307E-02  0.52516112611E-03  0.17124000008E+03  0.17124000000E+03 0. -1.
     -611    1    1    2    0    0  0.30965142298E-01 -0.76890480048E-02  0.29564428371E+01  0.29566150361E+01  0.51109989000E-03 0.  1.
      611    1    1    2    0    0 -0.22493250553E-01 -0.24068717976E-02  0.17068839783E+01  0.17070339528E+01  0.51109989000E-03 0. -1.
</event>
<event>
 6   3  0.4012498E+04  0.9118800E+02  0.7818608E-02  0.1180000E+00
       11   -1    0    0    0    0  0.00000000000E+00  0.00000000000E+00  0.54999999763E+01  0.55000000000E+01  0.51109989000E-03 0.  1.
     -623   -1    0    0    0    0  0.00000000000E+00  0.00000000000E+00  0.93234578044E-11  0.17124000000E+03  0.17124000000E+03 0. -1.
       11    1    1    2    0    0  0.48908276886E-01  0.15875758788E-01  0.42244617110E+00  0.42556443456E+00  0.51109989000E-03 0.  1.
     -623    1    1    2    0    0  0.43955397506E-02 -0.49180408938E-02  0.39829947238E-02  0.17124000017E+03  0.17124000000E+03 0. -1.
     -611    1    1    2    0    0 -0.70999845950E-01 -0.91145512048E-02  0.45478878358E+01  0.45484511740E+01  0.51109989000E-03 0.  1.
      611    1    1    2    0    0  0.17696029311E-01 -0.18431666891E-02  0.52568297472E+00  0.52598421826E+00  0.51109989000E-03 0. -1.
</event>
<event>
 6   3  0.4012498E+04  0.9118800E+02  0.7818608E-02  0.1180000E+00
       11   -1    0    0    0    0  0.00000000000E+00  0.00000000000E+00  0.54999999763E+01  0.55000000000E+01  0.51109989000E-03 0. -1.
     -623   -1    0    0    0    0  0.00000000000E+00  0.00000000000E+00  0.93234578044E-11  0.17124000000E+03  0.17124000000E+03 0. -1.
       11    1    1    2    0    0  0.40527116513E-02  0.57526871378E-02 -0.12382071893E-02  0.71632577310E-02  0.51109989000E-03 0. -1.
     -623    1    1    2    0    0  0.16122317711E-03 -0.77204884936E-02  0.95351547728E-02  0.17124000044E+03  0.17124000000E+03 0. -1.
     -611    1    1    2    0    0  0.42541971888E-01 -0.31407757233E-02  0.10271989126E+01  0.10280844086E+01  0.51109989000E-03 0. -1.
      611    1    1    2    0    0 -0.46755906717E-01  0.51085770791E-02  0.44645041160E+01  0.44647518941E+01  0.51109989000E-03 0.  1.
</event>
<event>
 6   3  0.4012498E+04  0.9118800E+02  0.7818608E-02  0.1180000E+00
       11   -1    0    0    0    0  0.00000000000E+00  0.00000000000E+00  0.54999999763E+01  0.55000000000E+01  0.51109989000E-03 0.  1.
     -623   -1    0    0    0    0  0.00000000000E+00  0.00000000000E+00  0.93234578044E-11  0.17124000000E+03  0.17124000000E+03 0.  1.
       11    1    1    2    0    0  0.79182374682E-02  0.10145285229E-02  0.51036176832E+00  0.51042445429E+00  0.51109989000E-03 0.  1.
     -623    1    1    2    0    0 -0.24782143301E-02  0.43907163382E-03  0.76451190686E-03  0.17124000002E+03  0.17124000000E+03 0.  1.
     -611    1    1    2    0    0  0.35474521340E-01 -0.34714978693E-02  0.33508263992E+01  0.33510160119E+01  0.51109989000E-03 0.  1.
      611    1    1    2    0    0 -0.40914544479E-01  0.20178977124E-02  0.16380472971E+01  0.16385595139E+01  0.51109989000E-03 0. -1.
</event>
<event>
 6   3  0.4012498E+04  0.9118800E+02  0.7818608E-02  0.1180000E+00
       11   -1    0    0    0    0  0.00000000000E+00  0.00000000000E+00  0.54999999763E+01  0.55000000000E+01  0.51109989000E-03 0.  1.
     -623   -1    0    0    0    0  0.00000000000E+00  0.00000000000E+00  0.93234578044E-11  0.17124000000E+03  0.17124000000E+03 0. -1.
       11    1    1    2    0    0 -0.37392608742E-02  0.69581739618E-02  0.45389174630E+00  0.45396076575E+00  0.51109989000E-03 0.  1.
     -623    1    1    2    0    0 -0.41608777792E-02  0.65628678052E-02  0.12269527115E-02  0.17124000018E+03  0.17124000000E+03 0. -1.
     -611    1    1    2    0    0  0.53754540008E-01  0.39456491938E-02  0.33960507562E+01  0.33964784879E+01  0.51109989000E-03 0.  1.
      611    1    1    2    0    0 -0.45854401355E-01 -0.17466690961E-01  0.16488305211E+01  0.16495605658E+01  0.51109989000E-03 0. -1.
</event>
<event>
 6   3  0.4012498E+04  0.9118800E+02  0.7818608E-02  0.1180000E+00
       11   -1    0    0    0    0  0.00000000000E+00  0.00000000000E+00  0.54999999763E+01  0.55000000000E+01  0.51109989000E-03 0.  1.
     -623   -1    0    0    0    0  0.00000000000E+00  0.00000000000E+00  0.93234578044E-11  0.17124000000E+03  0.17124000000E+03 0. -1.
       11    1    1    2    0    0  0.67852268825E-01 -0.29358130898E-01  0.82906660120E+00  0.83235660668E+00  0.51109989000E-03 0.  1.
     -623    1    1    2    0    0 -0.64054727744E-02 -0.36909715099E-02  0.38119448362E-02  0.17124000020E+03  0.17124000000E+03 0. -1.
     -611    1    1    2    0    0 -0.25857114447E-01  0.14265892123E-01  0.19410619065E+01  0.19412866074E+01  0.51109989000E-03 0. -1.
      611    1    1    2    0    0 -0.35589679834E-01  0.18783209333E-01  0.27260593894E+01  0.27263564495E+01  0.51109989000E-03 0.  1.
</event>
<event>
 6   3  0.4012498E+04  0.9118800E+02  0.7818608E-02  0.1180000E+00
       11   -1    0    0    0    0  0.00000000000E+00  0.00000000000E+00  0.54999999763E+01  0.55000000000E+01  0.51109989000E-03 0. -1.
     -623   -1    0    0    0    0  0.00000000000E+00  0.00000000000E+00  0.93234578044E-11  0.17124000000E+03  0.17124000000E+03 0.  1.
       11    1    1    2    0    0  0.18432588212E-02  0.33402789106E-01  0.68978249316E+00  0.69059343540E+00  0.51109989000E-03 0. -1.
     -623    1    1    2    0    0 -0.60239930562E-02 -0.13974856166E-01  0.47399991721E-02  0.17124000074E+03  0.17124000000E+03 0.  1.
     -611    1    1    2    0    0  0.96901904555E-01 -0.16029941551E-01  0.29126031504E+01  0.29142587927E+01  0.51109989000E-03 0. -1.
      611    1    1    2    0    0 -0.92721170319E-01 -0.33979913893E-02  0.18928743335E+01  0.18951470301E+01  0.51109989000E-03 0.  1.
</event>
<event>
 6   3  0.4012498E+04  0.9118800E+02  0.7818608E-02  0.1180000E+00
       11   -1    0    0    0    0  0.00000000000E+00  0.00000000000E+00  0.54999999763E+01  0.55000000000E+01  0.51109989000E-03 0.  1.
     -623   -1    0    0    0    0  0.00000000000E+00  0.00000000000E+00  0.93234578044E-11  0.17124000000E+03  0.17124000000E+03 0. -1.
       11    1    1    2    0    0  0.33479068627E-02  0.50272369211E-02  0.63145242986E-01  0.63435514709E-01  0.51109989000E-03 0.  1.
     -623    1    1    2    0    0 -0.77753438053E-02 -0.10978150898E-01  0.21881933481E-02  0.17124000054E+03  0.17124000000E+03 0. -1.
     -611    1    1    2    0    0 -0.57834882456E-01  0.41656958343E-01  0.29495150988E+01  0.29503762057E+01  0.51109989000E-03 0. -1.
      611    1    1    2    0    0  0.62262319399E-01 -0.35706044366E-01  0.24851514410E+01  0.24861877371E+01  0.51109989000E-03 0.  1.
</event>
<event>
 6   3  0.4012498E+04  0.9118800E+02  0.7818608E-02  0.1180000E+00
       11   -1    0    0    0    0  0.00000000000E+00  0.00000000000E+00  0.54999999763E+01  0.55000000000E+01  0.51109989000E-03 0. -1.
     -623   -1    0    0    0    0  0.00000000000E+00  0.00000000000E+00  0.93234578044E-11  0.17124000000E+03  0.17124000000E+03 0. -1.
       11    1    1    2    0    0  0.31627932116E-02  0.48001330969E-02  0.33117137861E-01  0.33616224990E-01  0.51109989000E-03 0. -1.
     -623    1    1    2    0    0 -0.56929457229E-02  0.63539044752E-03  0.29406356936E-02  0.17124000012E+03  0.17124000000E+03 0. -1.
     -611    1    1    2    0    0  0.57982357449E-01  0.14845690781E-01  0.46160038159E+01  0.46163918636E+01  0.51109989000E-03 0. -1.
      611    1    1    2    0    0 -0.55452204938E-01 -0.20281214326E-01  0.84793838681E+00  0.84999179040E+00  0.51109989000E-03 0.  1.
</event>
<event>
 6   3  0.4012498E+04  0.9118800E+02  0.7818608E-02  0.1180000E+00
       11   -1    0    0    0    0  0.00000000000E+00  0.00000000000E+00  0.54999999763E+01  0.55000000000E+01  0.51109989000E-03 0.  1.
     -623   -1    0    0    0    0  0.00000000000E+00  0.00000000000E+00  0.93234578044E-11  0.17124000000E+03  0.17124000000E+03 0.  1.
       11    1    1    2    0    0 -0.51498973381E-01  0.33690967239E-01  0.65959037643E+00  0.66245524486E+00  0.51109989000E-03 0.  1.
     -623    1    1    2    0    0 -0.77298245454E-02 -0.79292829936E-02  0.32969134691E-02  0.17124000039E+03  0.17124000000E+03 0.  1.
     -611    1    1    2    0    0  0.46439712050E-01 -0.20978223353E-01  0.38141541826E+01  0.38144946091E+01  0.51109989000E-03 0.  1.
      611    1    1    2    0    0  0.12789084216E-01 -0.47834601705E-02  0.10229583682E+01  0.10230496207E+01  0.51109989000E-03 0. -1.
</event>
<event>
 6   3  0.4012498E+04  0.9118800E+02  0.7818608E-02  0.1180000E+00
       11   -1    0    0    0    0  0.00000000000E+00  0.00000000000E+00  0.54999999763E+01  0.55000000000E+01  0.51109989000E-03 0.  1.
     -623   -1    0    0    0    0  0.00000000000E+00  0.00000000000E+00  0.93234578044E-11  0.17124000000E+03  0.17124000000E+03 0.  1.
       11    1    1    2    0    0 -0.59827525409E-02 -0.41257300577E-02  0.17124549285E-01  0.18609846541E-01  0.51109989000E-03 0.  1.
     -623    1    1    2    0    0  0.18583505856E-01  0.65364907113E-03  0.33164416345E-02  0.17124000104E+03  0.17124000000E+03 0.  1.
     -611    1    1    2    0    0 -0.70196937950E-01  0.32226341112E-01  0.29508245245E+01  0.29518353244E+01  0.51109989000E-03 0. -1.
      611    1    1    2    0    0  0.57596184635E-01 -0.28754260125E-01  0.25287344609E+01  0.25295537873E+01  0.51109989000E-03 0.  1.
</event>
<event>
 6   3  0.4012498E+04  0.9118800E+02  0.7818608E-02  0.1180000E+00
       11   -1    0    0    0    0  0.00000000000E+00  0.00000000000E+00  0.54999999763E+01  0.55000000000E+01  0.51109989000E-03 0.  1.
     -623   -1    0    0    0    0  0.00000000000E+00  0.00000000000E+00  0.93234578044E-11  0.17124000000E+03  0.17124000000E+03 0.  1.
       11    1    1    2    0    0 -0.32133791056E-01  0.64830317052E-02  0.88928966152E+00  0.88989379902E+00  0.51109989000E-03 0.  1.
     -623    1    1    2    0    0  0.78724300043E-02 -0.11182047123E-02  0.11278878314E-02  0.17124000019E+03  0.17124000000E+03 0.  1.
     -611    1    1    2    0    0  0.46009202093E-01 -0.80282853483E-04  0.34570712005E+01  0.34573773875E+01  0.51109989000E-03 0.  1.
      611    1    1    2    0    0 -0.21747841041E-01 -0.52845441395E-02  0.11525112264E+01  0.11527286252E+01  0.51109989000E-03 0. -1.
</event>
<event>
 6   3  0.4012498E+04  0.9118800E+02  0.7818608E-02  0.1180000E+00
       11   -1    0    0    0    0  0.00000000000E+00  0.00000000000E+00  0.54999999763E+01  0.55000000000E+01  0.51109989000E-03 0.  1.
     -623   -1    0    0    0    0  0.00000000000E+00  0.00000000000E+00  0.93234578044E-11  0.17124000000E+03  0.17124000000E+03 0.  1.
       11    1    1    2    0    0 -0.13294604521E-01  0.20247667784E-01  0.21282841079E+00  0.21420296035E+00  0.51109989000E-03 0.  1.
     -623    1    1    2    0    0  0.69738486774E-02 -0.22804306476E-01  0.26967853728E-02  0.17124000168E+03  0.17124000000E+03 0.  1.
     -611    1    1    2    0    0 -0.48338136795E-01  0.25807210926E-01  0.32197961077E+01  0.32202623843E+01  0.51109989000E-03 0.  1.
      611    1    1    2    0    0  0.54658892639E-01 -0.23250572234E-01  0.20646786723E+01  0.20655329736E+01  0.51109989000E-03 0. -1.
</event>
<event>
 6   3  0.4012498E+04  0.9118800E+02  0.7818608E-02  0.1180000E+00
       11   -1    0    0    0    0  0.00000000000E+00  0.00000000000E+00  0.54999999763E+01  0.55000000000E+01  0.51109989000E-03 0. -1.
     -623   -1    0    0    0    0  0.00000000000E+00  0.00000000000E+00  0.93234578044E-11  0.17124000000E+03  0.17124000000E+03 0. -1.
       11    1    1    2    0    0  0.10637911839E-01  0.26621196152E-01  0.31665565891E+00  0.31795112957E+00  0.51109989000E-03 0. -1.
     -623    1    1    2    0    0  0.49303700066E-01 -0.14474521987E-01  0.16647895912E-02  0.17124000772E+03  0.17124000000E+03 0. -1.
     -611    1    1    2    0    0 -0.47224917347E-01 -0.10505053246E-01  0.40687848486E+01  0.40690724932E+01  0.51109989000E-03 0. -1.
      611    1    1    2    0    0 -0.12716696715E-01 -0.16416213564E-02  0.11128948656E+01  0.11129688461E+01  0.51109989000E-03 0.  1.
</event>
<event>
 6   3  0.4012498E+04  0.9118800E+02  0.7818608E-02  0.1180000E+00
       11   -1    0    0    0    0  0.00000000000E+00  0.00000000000E+00  0.54999999763E+01  0.55000000000E+01  0.51109989000E-03 0.  1.
     -623   -1    0    0    0    0  0.00000000000E+00  0.00000000000E+00  0.93234578044E-11  0.17124000000E+03  0.17124000000E+03 0.  1.
       11    1    1    2    0    0  0.25182596365E-02  0.13225178648E-01  0.26556740889E-01  0.29778661688E-01  0.51109989000E-03 0.  1.
     -623    1    1    2    0    0 -0.99552561981E-02 -0.16489429417E-01  0.45721990497E-02  0.17124000114E+03  0.17124000000E+03 0.  1.
     -611    1    1    2    0    0 -0.48427834410E-01 -0.70444452643E-02  0.39236231676E+01  0.39239283762E+01  0.51109989000E-03 0.  1.
      611    1    1    2    0    0  0.55864830972E-01  0.10308696033E-01  0.15452478689E+01  0.15462918179E+01  0.51109989000E-03 0. -1.
</event>
<event>
 6   3  0.4012498E+04  0.9118800E+02  0.7818608E-02  0.1180000E+00
       11   -1    0    0    0    0  0.00000000000E+00  0.00000000000E+00  0.54999999763E+01  0.55000000000E+01  0.51109989000E-03 0.  1.
     -623   -1    0    0    0    0  0.00000000000E+00  0.00000000000E+00  0.93234578044E-11  0.17124000000E+03  0.17124000000E+03 0. -1.
       11    1    1    2    0    0 -0.14320185012E-01 -0.36873719654E-01  0.52575509318E+00  0.52724132817E+00  0.51109989000E-03 0.  1.
     -623    1    1    2    0    0 -0.14099770427E-02 -0.42763867772E-02  0.21692615142E-02  0.17124000007E+03  0.17124000000E+03 0. -1.
     -611    1    1    2    0    0  0.42301808527E-01  0.34680999998E-01  0.35259031582E+01  0.35263274886E+01  0.51109989000E-03 0.  1.
      611    1    1    2    0    0 -0.26571646472E-01  0.64691064334E-02  0.14461724634E+01  0.14464311103E+01  0.51109989000E-03 0. -1.
</event>
<event>
 6   3  0.4012498E+04  0.9118800E+02  0.7818608E-02  0.1180000E+00
       11   -1    0    0    0    0  0.00000000000E+00  0.00000000000E+00  0.54999999763E+01  0.55000000000E+01  0.51109989000E-03 0. -1.
     -623   -1    0    0    0    0  0.00000000000E+00  0.00000000000E+00  0.93234578044E-11  0.17124000000E+03  0.17124000000E+03 0. -1.
       11    1    1    2    0    0 -0.58756345367E-01  0.70909249684E-01  0.10098908656E+01  0.10140809886E+01  0.51109989000E-03 0. -1.
     -623    1    1    2    0    0 -0.79171386204E-02 -0.53750425860E-02  0.51669296495E-02  0.17124000035E+03  0.17124000000E+03 0. -1.
     -611    1    1    2    0    0  0.12302783752E-01 -0.14493000199E-01  0.90564093760E+00  0.90584059007E+00  0.51109989000E-03 0. -1.
      611    1    1    2    0    0  0.54370699472E-01 -0.51041206148E-01  0.35793011921E+01  0.35800780246E+01  0.51109989000E-03 0. -1.
</event>
<event>
 6   3  0.4012498E+04  0.9118800E+02  0.7818608E-02  0.1180000E+00
       11   -1    0    0    0    0  0.00000000000E+00  0.00000000000E+00  0.54999999763E+01  0.55000000000E+01  0.51109989000E-03 0.  1.
     -623   -1    0    0    0    0  0.00000000000E+00  0.00000000000E+00  0.93234578044E-11  0.17124000000E+03  0.17124000000E+03 0.  1.
       11    1    1    2    0    0  0.11755243671E+00  0.16378026688E-01  0.70657590542E+00  0.71647511225E+00  0.51109989000E-03 0.  1.
     -623    1    1    2    0    0 -0.18715089038E-01 -0.12847450627E-02  0.10957468437E-01  0.17124000138E+03  0.17124000000E+03 0.  1.
     -611    1    1    2    0    0 -0.16920737864E-01  0.12229823057E-02  0.75249119489E+00  0.75268258028E+00  0.51109989000E-03 0. -1.
      611    1    1    2    0    0 -0.81916609855E-01 -0.16316263939E-01  0.40299754100E+01  0.40308409318E+01  0.51109989000E-03 0.  1.
</event>
<event>
 6   3  0.4012498E+04  0.9118800E+02  0.7818608E-02  0.1180000E+00
       11   -1    0    0    0    0  0.00000000000E+00  0.00000000000E+00  0.54999999763E+01  0.55000000000E+01  0.51109989000E-03 0.  1.
     -623   -1    0    0    0    0  0.00000000000E+00  0.00000000000E+00  0.93234578044E-11  0.17124000000E+03  0.17124000000E+03 0. -1.
       11    1    1    2    0    0  0.61428785612E-01 -0.43522512159E-02  0.97462109166E+00  0.97656488332E+00  0.51109989000E-03 0.  1.
     -623    1    1    2    0    0 -0.39819949511E-02 -0.61919052729E-02  0.23322161268E-02  0.17124000017E+03  0.17124000000E+03 0. -1.
     -611    1    1    2    0    0 -0.30206867255E-01  0.10606834887E-01  0.24225520079E+01  0.24227635980E+01  0.51109989000E-03 0.  1.
      611    1    1    2    0    0 -0.27239923280E-01 -0.62678420849E-04  0.21004946507E+01  0.21006713346E+01  0.51109989000E-03 0. -1.
</event>
<event>
 6   3  0.4012498E+04  0.9118800E+02  0.7818608E-02  0.1180000E+00
       11   -1    0    0    0    0  0.00000000000E+00  0.00000000000E+00  0.54999999763E+01  0.55000000000E+01  0.51109989000E-03 0.  1.
     -623   -1    0    0    0    0  0.00000000000E+00  0.00000000000E+00  0.93234578044E-11  0.17124000000E+03  0.17124000000E+03 0.  1.
       11    1    1    2    0    0  0.21470048496E-01 -0.42046341047E-01  0.39261357851E-01  0.61404993458E-01  0.51109989000E-03 0.  1.
     -623    1    1    2    0    0  0.16764171426E-01 -0.13826042459E-01  0.27822326063E-01  0.17124000364E+03  0.17124000000E+03 0.  1.
     -611    1    1    2    0    0  0.24407613917E-01 -0.84900820131E-01  0.14435297146E+01  0.14462303341E+01  0.51109989000E-03 0. -1.
      611    1    1    2    0    0 -0.62641833839E-01  0.14077320364E+00  0.39893865777E+01  0.39923610335E+01  0.51109989000E-03 0.  1.
</event>
<event>
 6   3  0.8625335E+04  0.9118800E+02  0.7818608E-02  0.1180000E+00
       11   -1    0    0    0    0  0.00000000000E+00  0.00000000000E+00  0.54999999763E+01  0.55000000000E+01  0.51109989000E-03 0. -1.
     -623   -1    0    0    0    0  0.00000000000E+00  0.00000000000E+00  0.93234578044E-11  0.17124000000E+03  0.17124000000E+03 0.  1.
       11    1    1    2    0    0  0.17571108669E-02 -0.52455267356E-02  0.24096477876E+00  0.24102881325E+00  0.51109989000E-03 0. -1.
     -623    1    1    2    0    0 -0.59997690220E-01  0.86862514918E-03  0.39962103421E-03  0.17124001051E+03  0.17124000000E+03 0.  1.
     -611    1    1    2    0    0  0.16003460920E-01  0.85121978963E-04  0.14104752002E+01  0.14105660813E+01  0.51109989000E-03 0.  1.
      611    1    1    2    0    0  0.42237117130E-01  0.42917795095E-02  0.38481602585E+01  0.38483944743E+01  0.51109989000E-03 0. -1.
</event>
<event>
 6   3  0.4012498E+04  0.9118800E+02  0.7818608E-02  0.1180000E+00
       11   -1    0    0    0    0  0.00000000000E+00  0.00000000000E+00  0.54999999763E+01  0.55000000000E+01  0.51109989000E-03 0.  1.
     -623   -1    0    0    0    0  0.00000000000E+00  0.00000000000E+00  0.93234578044E-11  0.17124000000E+03  0.17124000000E+03 0.  1.
       11    1    1    2    0    0  0.18746670515E-02 -0.33069387578E-02  0.64435117139E+00  0.64436258699E+00  0.51109989000E-03 0.  1.
     -623    1    1    2    0    0 -0.41211526137E-02 -0.60922948340E-02  0.42709114472E-03  0.17124000016E+03  0.17124000000E+03 0.  1.
     -611    1    1    2    0    0  0.32460102672E-01  0.59437915652E-02  0.26658390225E+01  0.26660433121E+01  0.51109989000E-03 0.  1.
      611    1    1    2    0    0 -0.30213617110E-01  0.34554420255E-02  0.21893826907E+01  0.21895939419E+01  0.51109989000E-03 0. -1.
</event>
<event>
 6   3  0.4012498E+04  0.9118800E+02  0.7818608E-02  0.1180000E+00
       11   -1    0    0    0    0  0.00000000000E+00  0.00000000000E+00  0.54999999763E+01  0.55000000000E+01  0.51109989000E-03 0.  1.
     -623   -1    0    0    0    0  0.00000000000E+00  0.00000000000E+00  0.93234578044E-11  0.17124000000E+03  0.17124000000E+03 0. -1.
       11    1    1    2    0    0  0.43848532781E-01 -0.19436532713E-01  0.41841480496E+00  0.42115517671E+00  0.51109989000E-03 0.  1.
     -623    1    1    2    0    0  0.97768310444E-02 -0.47057926264E-02  0.30842831609E-02  0.17124000037E+03  0.17124000000E+03 0. -1.
     -611    1    1    2    0    0 -0.45233505146E-01  0.19229555092E-01  0.43767501088E+01  0.43770261162E+01  0.51109989000E-03 0.  1.
      611    1    1    2    0    0 -0.83918588520E-02  0.49127703249E-02  0.70175079558E+00  0.70181835180E+00  0.51109989000E-03 0. -1.
</event>
<event>
 6   3  0.4012498E+04  0.9118800E+02  0.7818608E-02  0.1180000E+00
       11   -1    0    0    0    0  0.00000000000E+00  0.00000000000E+00  0.54999999763E+01  0.55000000000E+01  0.51109989000E-03 0.  1.
     -623   -1    0    0    0    0  0.00000000000E+00  0.00000000000E+00  0.93234578044E-11  0.17124000000E+03  0.17124000000E+03 0. -1.
       11    1    1    2    0    0 -0.93519610887E-02 -0.27197325094E-02  0.59277360356E-01  0.60074310612E-01  0.51109989000E-03 0.  1.
     -623    1    1    2    0    0  0.21737464942E-02 -0.36580767922E-02  0.14756361328E-02  0.17124000006E+03  0.17124000000E+03 0. -1.
     -611    1    1    2    0    0 -0.36037436821E-01  0.18117480055E-01  0.29504611121E+01  0.29507368530E+01  0.51109989000E-03 0.  1.
      611    1    1    2    0    0  0.43215651416E-01 -0.11739670753E-01  0.24887858677E+01  0.24891887772E+01  0.51109989000E-03 0. -1.
</event>
<event>
 6   3  0.4012498E+04  0.9118800E+02  0.7818608E-02  0.1180000E+00
       11   -1    0    0    0    0  0.00000000000E+00  0.00000000000E+00  0.54999999763E+01  0.55000000000E+01  0.51109989000E-03 0.  1.
     -623   -1    0    0    0    0  0.00000000000E+00  0.00000000000E+00  0.93234578044E-11  0.17124000000E+03  0.17124000000E+03 0. -1.
       11    1    1    2    0    0  0.83492235162E-02 -0.46535878096E-02  0.10013492304E+01  0.10013949809E+01  0.51109989000E-03 0.  1.
     -623    1    1    2    0    0 -0.11003411354E-01  0.82202963790E-02  0.83417073659E-03  0.17124000055E+03  0.17124000000E+03 0. -1.
     -611    1    1    2    0    0 -0.25065924336E-01  0.30628877573E-01  0.23959346555E+01  0.23962615808E+01  0.51109989000E-03 0. -1.
      611    1    1    2    0    0  0.27720112173E-01 -0.34195586142E-01  0.21018819197E+01  0.21023428855E+01  0.51109989000E-03 0.  1.
</event>
<event>
 6   3  0.4012498E+04  0.9118800E+02  0.7818608E-02  0.1180000E+00
       11   -1    0    0    0    0  0.00000000000E+00  0.00000000000E+00  0.54999999763E+01  0.55000000000E+01  0.51109989000E-03 0. -1.
     -623   -1    0    0    0    0  0.00000000000E+00  0.00000000000E+00  0.93234578044E-11  0.17124000000E+03  0.17124000000E+03 0.  1.
       11    1    1    2    0    0 -0.31520291013E-01 -0.36145760014E-02  0.87528723809E+00  0.87586220622E+00  0.51109989000E-03 0. -1.
     -623    1    1    2    0    0 -0.16307916100E-01  0.64146260545E-03  0.82431255252E-03  0.17124000078E+03  0.17124000000E+03 0.  1.
     -611    1    1    2    0    0  0.40711373855E-01  0.27530242887E-02  0.39233289514E+01  0.39235411706E+01  0.51109989000E-03 0. -1.
      611    1    1    2    0    0  0.71168308970E-02  0.22008896048E-03  0.70055924588E+00  0.70059561512E+00  0.51109989000E-03 0.  1.
</event>
<event>
 6   3  0.4012498E+04  0.9118800E+02  0.7818608E-02  0.1180000E+00
       11   -1    0    0    0    0  0.00000000000E+00  0.00000000000E+00  0.54999999763E+01  0.55000000000E+01  0.51109989000E-03 0. -1.
     -623   -1    0    0    0    0  0.00000000000E+00  0.00000000000E+00  0.93234578044E-11  0.17124000000E+03  0.17124000000E+03 0.  1.
       11    1    1    2    0    0 -0.27331094647E-02  0.23696797505E-02  0.77524691731E+00  0.77525552516E+00  0.51109989000E-03 0. -1.
     -623    1    1    2    0    0 -0.55074578453E-01  0.28485757231E-01  0.47520227617E-03  0.17124001123E+03  0.17124000000E+03 0.  1.
     -611    1    1    2    0    0  0.79848868026E-02 -0.34348421822E-02  0.66533288427E+00  0.66538985916E+00  0.51109989000E-03 0.  1.
      611    1    1    2    0    0  0.49822799934E-01 -0.27420594169E-01  0.40589448759E+01  0.40593432926E+01  0.51109989000E-03 0. -1.
</event>
<event>
 6   3  0.4012498E+04  0.9118800E+02  0.7818608E-02  0.1180000E+00
       11   -1    0    0    0    0  0.00000000000E+00  0.00000000000E+00  0.54999999763E+01  0.55000000000E+01  0.51109989000E-03 0.  1.
     -623   -1    0    0    0    0  0.00000000000E+00  0.00000000000E+00  0.93234578044E-11  0.17124000000E+03  0.17124000000E+03 0.  1.
       11    1    1    2    0    0  0.15108593990E-03  0.57282586099E-02  0.12892121251E+00  0.12904951001E+00  0.51109989000E-03 0.  1.
     -623    1    1    2    0    0 -0.10385310186E-01  0.49976269976E-03  0.50431490839E-03  0.17124000032E+03  0.17124000000E+03 0.  1.
     -611    1    1    2    0    0  0.35671622064E-01  0.42583161776E-02  0.29058956927E+01  0.29061177946E+01  0.51109989000E-03 0. -1.
      611    1    1    2    0    0 -0.25437397817E-01 -0.10486337488E-01  0.24646787565E+01  0.24648323794E+01  0.51109989000E-03 0.  1.
</event>
<event>
 6   3  0.4012498E+04  0.9118800E+02  0.7818608E-02  0.1180000E+00
       11   -1    0    0    0    0  0.00000000000E+00  0.00000000000E+00  0.54999999763E+01  0.55000000000E+01  0.51109989000E-03 0.  1.
     -623   -1    0    0    0    0  0.00000000000E+00  0.00000000000E+00  0.93234578044E-11  0.17124000000E+03  0.17124000000E+03 0.  1.
       11    1    1    2    0    0  0.45162375070E-01  0.11634207758E-01  0.24068453554E+00  0.24516178695E+00  0.51109989000E-03 0.  1.
     -623    1    1    2    0    0 -0.53588971113E-02 -0.33017514843E-02  0.65828148282E-02  0.17124000024E+03  0.17124000000E+03 0.  1.
     -611    1    1    2    0    0 -0.80891694603E-01 -0.28643204115E-01  0.44288093814E+01  0.44296406962E+01  0.51109989000E-03 0.  1.
      611    1    1    2    0    0  0.41088216644E-01  0.20310747841E-01  0.82392324452E+00  0.82519727466E+00  0.51109989000E-03 0. -1.
</event>
<event>
 6   3  0.4012498E+04  0.9118800E+02  0.7818608E-02  0.1180000E+00
       11   -1    0    0    0    0  0.00000000000E+00  0.00000000000E+00  0.54999999763E+01  0.55000000000E+01  0.51109989000E-03 0.  1.
     -623   -1    0    0    0    0  0.00000000000E+00  0.00000000000E+00  0.93234578044E-11  0.17124000000E+03  0.17124000000E+03 0.  1.
       11    1    1    2    0    0  0.79772189944E-02  0.81654107779E-02  0.41503833818E-01  0.43048105662E-01  0.51109989000E-03 0.  1.
     -623    1    1    2    0    0 -0.77046608933E-02  0.69040122690E-03  0.20972935605E-02  0.17124000019E+03  0.17124000000E+03 0.  1.
     -611    1    1    2    0    0 -0.31835509326E-01  0.17216571576E-01  0.28824936553E+01  0.28827209099E+01  0.51109989000E-03 0. -1.
      611    1    1    2    0    0  0.31562951225E-01 -0.26072383581E-01  0.25739051937E+01  0.25742307971E+01  0.51109989000E-03 0.  1.
</event>
<event>
 6   3  0.4012498E+04  0.9118800E+02  0.7818608E-02  0.1180000E+00
       11   -1    0    0    0    0  0.00000000000E+00  0.00000000000E+00  0.54999999763E+01  0.55000000000E+01  0.51109989000E-03 0. -1.
     -623   -1    0    0    0    0  0.00000000000E+00  0.00000000000E+00  0.93234578044E-11  0.17124000000E+03  0.17124000000E+03 0.  1.
       11    1    1    2    0    0 -0.53892548460E-02  0.15636570139E-02  0.11116938824E+00  0.11131209816E+00  0.51109989000E-03 0. -1.
     -623    1    1    2    0    0  0.25962796579E-01  0.28168096281E-01  0.18239014016E-02  0.17124000429E+03  0.17124000000E+03 0.  1.
     -611    1    1    2    0    0  0.30463355656E-01 -0.54237558036E-01  0.15338952952E+01  0.15351562678E+01  0.51109989000E-03 0.  1.
      611    1    1    2    0    0 -0.51036897389E-01  0.24505804741E-01  0.38531113914E+01  0.38535273393E+01  0.51109989000E-03 0. -1.
</event>
<event>
 6   3  0.4012498E+04  0.9118800E+02  0.7818608E-02  0.1180000E+00
       11   -1    0    0    0    0  0.00000000000E+00  0.00000000000E+00  0.54999999763E+01  0.55000000000E+01  0.51109989000E-03 0.  1.
     -623   -1    0    0    0    0  0.00000000000E+00  0.00000000000E+00  0.93234578044E-11  0.17124000000E+03  0.17124000000E+03 0. -1.
       11    1    1    2    0    0 -0.32638114076E-01 -0.44701643794E-01  0.88289814607E+00  0.88463149447E+00  0.51109989000E-03 0.  1.
     -623    1    1    2    0    0  0.90590408110E-03  0.72658017925E-03  0.23199844759E-02  0.17124000002E+03  0.17124000000E+03 0. -1.
     -611    1    1    2    0    0 -0.12157314012E-01  0.46857486038E-02  0.52251186227E+00  0.52267452966E+00  0.51109989000E-03 0. -1.
      611    1    1    2    0    0  0.43889524006E-01  0.39289315010E-01  0.40922699833E+01  0.40926939561E+01  0.51109989000E-03 0.  1.
</event>
<event>
 6   3  0.4012498E+04  0.9118800E+02  0.7818608E-02  0.1180000E+00
       11   -1    0    0    0    0  0.00000000000E+00  0.00000000000E+00  0.54999999763E+01  0.55000000000E+01  0.51109989000E-03 0. -1.
     -623   -1    0    0    0    0  0.00000000000E+00  0.00000000000E+00  0.93234578044E-11  0.17124000000E+03  0.17124000000E+03 0. -1.
       11    1    1    2    0    0  0.39548732050E-01 -0.23015944321E-01  0.32018833515E+00  0.32344190682E+00  0.51109989000E-03 0. -1.
     -623    1    1    2    0    0 -0.43146230534E-01 -0.44653177272E-01  0.62061465382E-02  0.17124001137E+03  0.17124000000E+03 0. -1.
     -611    1    1    2    0    0 -0.35828325331E-01  0.76545584238E-01  0.13068983647E+01  0.13096283794E+01  0.51109989000E-03 0.  1.
      611    1    1    2    0    0  0.39425823815E-01 -0.88764626447E-02  0.38667071299E+01  0.38669183437E+01  0.51109989000E-03 0. -1.
</event>
<event>
 6   3  0.4012498E+04  0.9118800E+02  0.7818608E-02  0.1180000E+00
       11   -1    0    0    0    0  0.00000000000E+00  0.00000000000E+00  0.54999999763E+01  0.55000000000E+01  0.51109989000E-03 0. -1.
     -623   -1    0    0    0    0  0.00000000000E+00  0.00000000000E+00  0.93234578044E-11  0.17124000000E+03  0.17124000000E+03 0.  1.
       11    1    1    2    0    0 -0.73148238838E-01  0.30499775766E-01  0.90134329136E+00  0.90482091669E+00  0.51109989000E-03 0. -1.
     -623    1    1    2    0    0  0.50412986418E-02  0.20576731776E-01  0.42682008102E-02  0.17124000136E+03  0.17124000000E+03 0.  1.
     -611    1    1    2    0    0  0.46646106543E-01 -0.36154950209E-01  0.31839447315E+01  0.31844916948E+01  0.51109989000E-03 0. -1.
      611    1    1    2    0    0  0.21460836851E-01 -0.14921559731E-01  0.14104439682E+01  0.14106862405E+01  0.51109989000E-03 0.  1.
</event>
<event>
 6   3  0.4012498E+04  0.9118800E+02  0.7818608E-02  0.1180000E+00
       11   -1    0    0    0    0  0.00000000000E+00  0.00000000000E+00  0.54999999763E+01  0.55000000000E+01  0.51109989000E-03 0. -1.
     -623   -1    0    0    0    0  0.00000000000E+00  0.00000000000E+00  0.93234578044E-11  0.17124000000E+03  0.17124000000E+03 0.  1.
       11    1    1    2    0    0  0.37772056557E-01  0.14487959533E-01  0.21059769211E+00  0.21444877797E+00  0.51109989000E-03 0. -1.
     -623    1    1    2    0    0 -0.16893726226E-01 -0.12185892219E-01  0.46701861985E-02  0.17124000133E+03  0.17124000000E+03 0.  1.
     -611    1    1    2    0    0 -0.53390508085E-01 -0.12382026972E-01  0.24478744053E+01  0.24484879469E+01  0.51109989000E-03 0. -1.
      611    1    1    2    0    0  0.32512177754E-01  0.10079959658E-01  0.28368576926E+01  0.28370619445E+01  0.51109989000E-03 0.  1.
</event>
<event>
 6   3  0.4012498E+04  0.9118800E+02  0.7818608E-02  0.1180000E+00
       11   -1    0    0    0    0  0.00000000000E+00  0.00000000000E+00  0.54999999763E+01  0.55000000000E+01  0.51109989000E-03 0.  1.
     -623   -1    0    0    0    0  0.00000000000E+00  0.00000000000E+00  0.93234578044E-11  0.17124000000E+03  0.17124000000E+03 0. -1.
       11    1    1    2    0    0  0.38675564676E-01  0.27406409657E-02  0.61883674754E+00  0.62005039452E+00  0.51109989000E-03 0.  1.
     -623    1    1    2    0    0  0.14697908192E-01  0.93621496070E-02  0.15221204303E-02  0.17124000089E+03  0.17124000000E+03 0. -1.
     -611    1    1    2    0    0 -0.24244191429E-01 -0.48454493628E-02  0.22949598090E+01  0.22950930364E+01  0.51109989000E-03 0.  1.
      611    1    1    2    0    0 -0.29129282134E-01 -0.72573413674E-02  0.25846813628E+01  0.25848557392E+01  0.51109989000E-03 0. -1.
</event>
<event>
 6   3  0.4012498E+04  0.9118800E+02  0.7818608E-02  0.1180000E+00
       11   -1    0    0    0    0  0.00000000000E+00  0.00000000000E+00  0.54999999763E+01  0.55000000000E+01  0.51109989000E-03 0.  1.
     -623   -1    0    0    0    0  0.00000000000E+00  0.00000000000E+00  0.93234578044E-11  0.17124000000E+03  0.17124000000E+03 0.  1.
       11    1    1    2    0    0 -0.60922100924E-02 -0.93392368515E-02  0.33907619931E+00  0.33925988052E+00  0.51109989000E-03 0.  1.
     -623    1    1    2    0    0 -0.89253779353E-04  0.28817684138E-02  0.20732282078E-02  0.17124000004E+03  0.17124000000E+03 0.  1.
     -611    1    1    2    0    0 -0.66022364785E-01 -0.56968765108E-02  0.25699600399E+01  0.25708143214E+01  0.51109989000E-03 0. -1.
      611    1    1    2    0    0  0.72203828657E-01  0.12154344949E-01  0.25888905089E+01  0.25899257613E+01  0.51109989000E-03 0.  1.
</event>
<event>
 6   3  0.4012498E+04  0.9118800E+02  0.7818608E-02  0.1180000E+00
       11   -1    0    0    0    0  0.00000000000E+00  0.00000000000E+00  0.54999999763E+01  0.55000000000E+01  0.51109989000E-03 0. -1.
     -623   -1    0    0    0    0  0.00000000000E+00  0.00000000000E+00  0.93234578044E-11  0.17124000000E+03  0.17124000000E+03 0. -1.
       11    1    1    2    0    0 -0.61638070863E-01 -0.57254331286E-01  0.53024224540E+00  0.53687466905E+00  0.51109989000E-03 0. -1.
     -623    1    1    2    0    0 -0.89101676397E-03  0.16985155981E-01  0.71964149794E-02  0.17124000100E+03  0.17124000000E+03 0. -1.
     -611    1    1    2    0    0  0.49037306599E-01  0.28963844081E-01  0.39346411880E+01  0.39350533798E+01  0.51109989000E-03 0. -1.
      611    1    1    2    0    0  0.13491781056E-01  0.11305331241E-01  0.10279201300E+01  0.10280709575E+01  0.51109989000E-03 0.  1.
</event>
<event>
 6   3  0.4012498E+04  0.9118800E+02  0.7818608E-02  0.1180000E+00
       11   -1    0    0    0    0  0.00000000000E+00  0.00000000000E+00  0.54999999763E+01  0.55000000000E+01  0.51109989000E-03 0. -1.
     -623   -1    0    0    0    0  0.00000000000E+00  0.00000000000E+00  0.93234578044E-11  0.17124000000E+03  0.17124000000E+03 0.  1.
       11    1    1    2    0    0 -0.23006237286E-01 -0.19528951319E-01  0.32904252116E+00  0.33042383214E+00  0.51109989000E-03 0. -1.
     -623    1    1    2    0    0  0.34854782137E-01  0.18443294822E-01  0.67131638919E-02  0.17124000467E+03  0.17124000000E+03 0.  1.
     -611    1    1    2    0    0 -0.11388775734E+00  0.19187294257E-01  0.36267520580E+01  0.36285905425E+01  0.51109989000E-03 0. -1.
      611    1    1    2    0    0  0.10203921248E+00 -0.18101637761E-01  0.15374922332E+01  0.15409809533E+01  0.51109989000E-03 0.  1.
</event>
<event>
 6   3  0.4012498E+04  0.9118800E+02  0.7818608E-02  0.1180000E+00
       11   -1    0    0    0    0  0.00000000000E+00  0.00000000000E+00  0.54999999763E+01  0.55000000000E+01  0.51109989000E-03 0.  1.
     -623   -1    0    0    0    0  0.00000000000E+00  0.00000000000E+00  0.93234578044E-11  0.17124000000E+03  0.17124000000E+03 0. -1.
       11    1    1    2    0    0 -0.91948538629E-02 -0.11068904758E-01  0.59647615787E+00  0.59664992594E+00  0.51109989000E-03 0.  1.
     -623    1    1    2    0    0  0.39401491513E-02 -0.24985090358E-02  0.10893470172E-02  0.17124000007E+03  0.17124000000E+03 0. -1.
     -611    1    1    2    0    0  0.39416874277E-01  0.36110396333E-01  0.25631315481E+01  0.25636889914E+01  0.51109989000E-03 0.  1.
      611    1    1    2    0    0 -0.34162169565E-01 -0.22542982540E-01  0.23393029233E+01  0.23396610156E+01  0.51109989000E-03 0. -1.
</event>
<event>
 6   3  0.4012498E+04  0.9118800E+02  0.7818608E-02  0.1180000E+00
       11   -1    0    0    0    0  0.00000000000E+00  0.00000000000E+00  0.54999999763E+01  0.55000000000E+01  0.51109989000E-03 0.  1.
     -623   -1    0    0    0    0  0.00000000000E+00  0.00000000000E+00  0.93234578044E-11  0.17124000000E+03  0.17124000000E+03 0.  1.
       11    1    1    2    0    0 -0.20751014536E-01 -0.12402371722E+00  0.42628141698E+00  0.44444189128E+00  0.51109989000E-03 0.  1.
     -623    1    1    2    0    0 -0.36950657150E-01  0.29770100837E-01  0.19376349926E-01  0.17124000767E+03  0.17124000000E+03 0.  1.
     -611    1    1    2    0    0  0.22340066342E-01  0.35814757308E-01  0.19206231698E+01  0.19210870353E+01  0.51109989000E-03 0.  1.
      611    1    1    2    0    0  0.35361608534E-01  0.58438864287E-01  0.31337193189E+01  0.31344636823E+01  0.51109989000E-03 0.  1.
</event>
<event>
 6   3  0.4012498E+04  0.9118800E+02  0.7818608E-02  0.1180000E+00
       11   -1    0    0    0    0  0.00000000000E+00  0.00000000000E+00  0.54999999763E+01  0.55000000000E+01  0.51109989000E-03 0.  1.
     -623   -1    0    0    0    0  0.00000000000E+00  0.00000000000E+00  0.93234578044E-11  0.17124000000E+03  0.17124000000E+03 0. -1.
       11    1    1    2    0    0 -0.44688734880E-01 -0.17089561371E-01  0.10726974504E+01  0.10737640418E+01  0.51109989000E-03 0.  1.
     -623    1    1    2    0    0 -0.47788223328E-02 -0.40085580778E-02  0.18355888106E-02  0.17124000012E+03  0.17124000000E+03 0. -1.
     -611    1    1    2    0    0  0.63149878821E-01  0.11291352559E-01  0.31139870681E+01  0.31146478329E+01  0.51109989000E-03 0.  1.
      611    1    1    2    0    0 -0.13682321608E-01  0.98067668902E-02  0.13114798690E+01  0.13115880019E+01  0.51109989000E-03 0. -1.
</event>
<event>
 6   3  0.4012498E+04  0.9118800E+02  0.7818608E-02  0.1180000E+00
       11   -1    0    0    0    0  0.00000000000E+00  0.00000000000E+00  0.54999999763E+01  0.55000000000E+01  0.51109989000E-03 0. -1.
     -623   -1    0    0    0    0  0.00000000000E+00  0.00000000000E+00  0.93234578044E-11  0.17124000000E+03  0.17124000000E+03 0.  1.
       11    1    1    2    0    0 -0.77074283521E-02 -0.18891192921E-01  0.51053875172E+00  0.51094653326E+00  0.51109989000E-03 0. -1.
     -623    1    1    2    0    0  0.30573194395E-02  0.90866729396E-03  0.10890523199E-02  0.17124000003E+03  0.17124000000E+03 0.  1.
     -611    1    1    2    0    0 -0.28432302880E-01  0.32515038338E-01  0.20232439098E+01  0.20237049695E+01  0.51109989000E-03 0.  1.
      611    1    1    2    0    0  0.33082411792E-01 -0.14532512711E-01  0.29651282624E+01  0.29653484641E+01  0.51109989000E-03 0. -1.
</event>
<event>
 6   3  0.4012498E+04  0.9118800E+02  0.7818608E-02  0.1180000E+00
       11   -1    0    0    0    0  0.00000000000E+00  0.00000000000E+00  0.54999999763E+01  0.55000000000E+01  0.51109989000E-03 0.  1.
     -623   -1    0    0    0    0  0.00000000000E+00  0.00000000000E+00  0.93234578044E-11  0.17124000000E+03  0.17124000000E+03 0. -1.
       11    1    1    2    0    0 -0.58449469363E-02  0.26778500066E-01  0.52160045471E+00  0.52232034907E+00  0.51109989000E-03 0.  1.
     -623    1    1    2    0    0  0.66568727602E-01 -0.18152093216E-01  0.11192298782E-02  0.17124001390E+03  0.17124000000E+03 0. -1.
     -611    1    1    2    0    0 -0.38987942435E-01 -0.19656761333E-02  0.33168968307E+01  0.33171265834E+01  0.51109989000E-03 0.  1.
      611    1    1    2    0    0 -0.21735838321E-01 -0.66607307300E-02  0.16603834684E+01  0.16605391701E+01  0.51109989000E-03 0. -1.
</event>
<event>
 6   3  0.4012498E+04  0.9118800E+02  0.7818608E-02  0.1180000E+00
       11   -1    0    0    0    0  0.00000000000E+00  0.00000000000E+00  0.54999999763E+01  0.55000000000E+01  0.51109989000E-03 0.  1.
     -623   -1    0    0    0    0  0.00000000000E+00  0.00000000000E+00  0.93234578044E-11  0.17124000000E+03  0.17124000000E+03 0.  1.
       11    1    1    2    0    0 -0.53700062337E-01 -0.86252077081E-02  0.10614399797E+01  0.10628326221E+01  0.51109989000E-03 0.  1.
     -623    1    1    2    0    0  0.52291596547E-02 -0.24319441601E-03  0.16802714129E-02  0.17124000009E+03  0.17124000000E+03 0.  1.
     -611    1    1    2    0    0  0.66075921306E-02 -0.25626273035E-02  0.65787162220E+00  0.65790999373E+00  0.51109989000E-03 0. -1.
      611    1    1    2    0    0  0.41863310556E-01  0.11431029428E-01  0.37790081034E+01  0.37792572963E+01  0.51109989000E-03 0.  1.
</event>
<event>
 6   3  0.4012498E+04  0.9118800E+02  0.7818608E-02  0.1180000E+00
       11   -1    0    0    0    0  0.00000000000E+00  0.00000000000E+00  0.54999999763E+01  0.55000000000E+01  0.51109989000E-03 0. -1.
     -623   -1    0    0    0    0  0.00000000000E+00  0.00000000000E+00  0.93234578044E-11  0.17124000000E+03  0.17124000000E+03 0. -1.
       11    1    1    2    0    0  0.32591715856E-01 -0.29813502053E-01  0.14878628147E+00  0.15520529510E+00  0.51109989000E-03 0. -1.
     -623    1    1    2    0    0 -0.22272359277E-01  0.90870517309E-03  0.76197461316E-02  0.17124000162E+03  0.17124000000E+03 0. -1.
     -611    1    1    2    0    0 -0.55374560359E-01 -0.54738538283E-02  0.29819460648E+01  0.29824652386E+01  0.51109989000E-03 0.  1.
      611    1    1    2    0    0  0.45055203780E-01  0.34378650708E-01  0.23616478838E+01  0.23623278459E+01  0.51109989000E-03 0. -1.
</event>
<event>
 6   3  0.4012498E+04  0.9118800E+02  0.7818608E-02  0.1180000E+00
       11   -1    0    0    0    0  0.00000000000E+00  0.00000000000E+00  0.54999999763E+01  0.55000000000E+01  0.51109989000E-03 0.  1.
     -623   -1    0    0    0    0  0.00000000000E+00  0.00000000000E+00  0.93234578044E-11  0.17124000000E+03  0.17124000000E+03 0.  1.
       11    1    1    2    0    0  0.10910775855E-01 -0.49584026259E-01  0.13980415687E+00  0.14873830774E+00  0.51109989000E-03 0.  1.
     -623    1    1    2    0    0  0.46552967000E-02  0.24699702696E-01  0.10180084643E-01  0.17124000215E+03  0.17124000000E+03 0.  1.
     -611    1    1    2    0    0 -0.53810846408E-01 -0.15145893311E-01  0.19800263805E+01  0.19808154215E+01  0.51109989000E-03 0. -1.
      611    1    1    2    0    0  0.38244773854E-01  0.40030216874E-01  0.33699893542E+01  0.33704441235E+01  0.51109989000E-03 0.  1.
</event>
<event>
 6   3  0.4012498E+04  0.9118800E+02  0.7818608E-02  0.1180000E+00
       11   -1    0    0    0    0  0.00000000000E+00  0.00000000000E+00  0.54999999763E+01  0.55000000000E+01  0.51109989000E-03 0.  1.
     -623   -1    0    0    0    0  0.00000000000E+00  0.00000000000E+00  0.93234578044E-11  0.17124000000E+03  0.17124000000E+03 0.  1.
       11    1    1    2    0    0 -0.14099223659E-01  0.52250012262E-02  0.95430849114E-03  0.15075167464E-01  0.51109989000E-03 0.  1.
     -623    1    1    2    0    0  0.21905134079E-01  0.49205388883E-02  0.15052664584E-01  0.17124000213E+03  0.17124000000E+03 0.  1.
     -611    1    1    2    0    0 -0.47738661410E-01  0.20266839681E-02  0.41533993280E+01  0.41536741960E+01  0.51109989000E-03 0.  1.
      611    1    1    2    0    0  0.39932750989E-01 -0.12172224083E-01  0.13305936753E+01  0.13312485033E+01  0.51109989000E-03 0. -1.
</event>
<event>
 6   3  0.4012498E+04  0.9118800E+02  0.7818608E-02  0.1180000E+00
       11   -1    0    0    0    0  0.00000000000E+00  0.00000000000E+00  0.54999999763E+01  0.55000000000E+01  0.51109989000E-03 0.  1.
     -623   -1    0    0    0    0  0.00000000000E+00  0.00000000000E+00  0.93234578044E-11  0.17124000000E+03  0.17124000000E+03 0.  1.
       11    1    1    2    0    0  0.52710715312E-01 -0.41145459581E-02  0.10220002543E+01  0.10233670554E+01  0.51109989000E-03 0.  1.
     -623    1    1    2    0    0  0.26011375453E-02 -0.49864593391E-02  0.17180982617E-02  0.17124000010E+03  0.17124000000E+03 0.  1.
     -611    1    1    2    0    0 -0.76028860607E-02  0.12728682042E-02  0.61421830476E+00  0.61426688923E+00  0.51109989000E-03 0.  1.
      611    1    1    2    0    0 -0.47708968058E-01  0.78281373005E-02  0.38620634210E+01  0.38623660565E+01  0.51109989000E-03 0.  1.
</event>
<event>
 6   3  0.4012498E+04  0.9118800E+02  0.7818608E-02  0.1180000E+00
       11   -1    0    0    0    0  0.00000000000E+00  0.00000000000E+00  0.54999999763E+01  0.55000000000E+01  0.51109989000E-03 0. -1.
     -623   -1    0    0    0    0  0.00000000000E+00  0.00000000000E+00  0.93234578044E-11  0.17124000000E+03  0.17124000000E+03 0. -1.
       11    1    1    2    0    0 -0.34003325596E-02  0.75879706051E-02  0.24454480658E+00  0.24468666332E+00  0.51109989000E-03 0. -1.
     -623    1    1    2    0    0  0.12879783373E-01  0.82239424049E-02  0.15082816467E-02  0.17124000069E+03  0.17124000000E+03 0. -1.
     -611    1    1    2    0    0  0.52137013489E-01  0.52225369285E-02  0.28625108669E+01  0.28629904414E+01  0.51109989000E-03 0. -1.
      611    1    1    2    0    0 -0.61616464303E-01 -0.21034449938E-01  0.23914360211E+01  0.23923222067E+01  0.51109989000E-03 0.  1.
</event>
<event>
 6   3  0.4012498E+04  0.9118800E+02  0.7818608E-02  0.1180000E+00
       11   -1    0    0    0    0  0.00000000000E+00  0.00000000000E+00  0.54999999763E+01  0.55000000000E+01  0.51109989000E-03 0. -1.
     -623   -1    0    0    0    0  0.00000000000E+00  0.00000000000E+00  0.93234578044E-11  0.17124000000E+03  0.17124000000E+03 0.  1.
       11    1    1    2    0    0 -0.43114017015E-01 -0.18319221306E-01  0.88254242487E+00  0.88378493156E+00  0.51109989000E-03 0. -1.
     -623    1    1    2    0    0  0.19759018625E-01 -0.46432239890E-02  0.20148458773E-02  0.17124000121E+03  0.17124000000E+03 0.  1.
     -611    1    1    2    0    0 -0.19629526877E-01  0.13621226869E-01  0.53442853234E+00  0.53496259080E+00  0.51109989000E-03 0.  1.
      611    1    1    2    0    0  0.42984525266E-01  0.93412184249E-02  0.40810141730E+01  0.40812512627E+01  0.51109989000E-03 0. -1.
</event>
<event>
 6   3  0.4012498E+04  0.9118800E+02  0.7818608E-02  0.1180000E+00
       11   -1    0    0    0    0  0.00000000000E+00  0.00000000000E+00  0.54999999763E+01  0.55000000000E+01  0.51109989000E-03 0.  1.
     -623   -1    0    0    0    0  0.00000000000E+00  0.00000000000E+00  0.93234578044E-11  0.17124000000E+03  0.17124000000E+03 0.  1.
       11    1    1    2    0    0 -0.28953750601E-01  0.19155381890E-01  0.10736568364E+01  0.10742180932E+01  0.51109989000E-03 0.  1.
     -623    1    1    2    0    0 -0.16027030137E-01 -0.21018594682E-01  0.79649356807E-03  0.17124000204E+03  0.17124000000E+03 0.  1.
     -611    1    1    2    0    0  0.28189585238E-01 -0.17565250750E-02  0.27665259649E+01  0.27666701853E+01  0.51109989000E-03 0.  1.
      611    1    1    2    0    0  0.16791195781E-01  0.36197378786E-02  0.16590207091E+01  0.16591097074E+01  0.51109989000E-03 0. -1.
</event>
<event>
 6   3  0.4012498E+04  0.9118800E+02  0.7818608E-02  0.1180000E+00
       11   -1    0    0    0    0  0.00000000000E+00  0.00000000000E+00  0.54999999763E+01  0.55000000000E+01  0.51109989000E-03 0.  1.
     -623   -1    0    0    0    0  0.00000000000E+00  0.00000000000E+00  0.93234578044E-11  0.17124000000E+03  0.17124000000E+03 0. -1.
       11    1    1    2    0    0  0.40027267544E-01 -0.84395567143E-01  0.63556469583E+00  0.64239204362E+00  0.51109989000E-03 0.  1.
     -623    1    1    2    0    0  0.15321103524E-01  0.29818003065E-02  0.78261866904E-02  0.17124000089E+03  0.17124000000E+03 0. -1.
     -611    1    1    2    0    0 -0.25687063343E-01  0.36995405788E-01  0.22467997582E+01  0.22472511875E+01  0.51109989000E-03 0.  1.
      611    1    1    2    0    0 -0.29661314218E-01  0.44418370599E-01  0.26098099053E+01  0.26103564485E+01  0.51109989000E-03 0.  1.
</event>
<event>
 6   3  0.4012498E+04  0.9118800E+02  0.7818608E-02  0.1180000E+00
       11   -1    0    0    0    0  0.00000000000E+00  0.00000000000E+00  0.54999999763E+01  0.55000000000E+01  0.51109989000E-03 0. -1.
     -623   -1    0    0    0    0  0.00000000000E+00  0.00000000000E+00  0.93234578044E-11  0.17124000000E+03  0.17124000000E+03 0. -1.
       11    1    1    2    0    0  0.14092733315E-01  0.11956921862E-01  0.14546963821E+00  0.14663986490E+00  0.51109989000E-03 0. -1.
     -623    1    1    2    0    0 -0.19849767439E-01  0.13535146896E-01  0.38452735404E-02  0.17124000173E+03  0.17124000000E+03 0. -1.
     -611    1    1    2    0    0  0.63677830749E-01 -0.51192614563E-01  0.15555440926E+01  0.15576884269E+01  0.51109989000E-03 0.  1.
      611    1    1    2    0    0 -0.57920796625E-01  0.25700545804E-01  0.37951409718E+01  0.37956699796E+01  0.51109989000E-03 0. -1.
</event>
<event>
 6   3  0.4012498E+04  0.9118800E+02  0.7818608E-02  0.1180000E+00
       11   -1    0    0    0    0  0.00000000000E+00  0.00000000000E+00  0.54999999763E+01  0.55000000000E+01  0.51109989000E-03 0.  1.
     -623   -1    0    0    0    0  0.00000000000E+00  0.00000000000E+00  0.93234578044E-11  0.17124000000E+03  0.17124000000E+03 0. -1.
       11    1    1    2    0    0  0.99845830542E-02 -0.20451073323E-01  0.73831517643E+00  0.73866602689E+00  0.51109989000E-03 0.  1.
     -623    1    1    2    0    0  0.43305399762E-01 -0.20038193041E-01  0.82883429929E-03  0.17124000665E+03  0.17124000000E+03 0. -1.
     -611    1    1    2    0    0 -0.94427363781E-02  0.78365828567E-02  0.93997524422E+00  0.94005547616E+00  0.51109989000E-03 0. -1.
      611    1    1    2    0    0 -0.43847246019E-01  0.32652683189E-01  0.38208806839E+01  0.38212718093E+01  0.51109989000E-03 0.  1.
</event>
<event>
 6   3  0.4012498E+04  0.9118800E+02  0.7818608E-02  0.1180000E+00
       11   -1    0    0    0    0  0.00000000000E+00  0.00000000000E+00  0.54999999763E+01  0.55000000000E+01  0.51109989000E-03 0. -1.
     -623   -1    0    0    0    0  0.00000000000E+00  0.00000000000E+00  0.93234578044E-11  0.17124000000E+03  0.17124000000E+03 0.  1.
       11    1    1    2    0    0 -0.35848786177E-03 -0.99018495153E-03  0.15540128613E+00  0.15540569467E+00  0.51109989000E-03 0. -1.
     -623    1    1    2    0    0 -0.54258730842E-02  0.38467019535E-02  0.54590848515E-03  0.17124000013E+03  0.17124000000E+03 0.  1.
     -611    1    1    2    0    0 -0.28601522472E-01  0.19678803967E-01  0.22394173712E+01  0.22396865241E+01  0.51109989000E-03 0. -1.
      611    1    1    2    0    0  0.34385883418E-01 -0.22535320969E-01  0.31046354103E+01  0.31049076511E+01  0.51109989000E-03 0.  1.
</event>
<event>
 6   3  0.4012498E+04  0.9118800E+02  0.7818608E-02  0.1180000E+00
       11   -1    0    0    0    0  0.00000000000E+00  0.00000000000E+00  0.54999999763E+01  0.55000000000E+01  0.51109989000E-03 0. -1.
     -623   -1    0    0    0    0  0.00000000000E+00  0.00000000000E+00  0.93234578044E-11  0.17124000000E+03  0.17124000000E+03 0. -1.
       11    1    1    2    0    0  0.68063073572E-02 -0.24350256460E-01  0.51847903791E-01  0.57686455603E-01  0.51109989000E-03 0. -1.
     -623    1    1    2    0    0 -0.94935258147E-03  0.24022296541E-01  0.63644462711E-02  0.17124000181E+03  0.17124000000E+03 0. -1.
     -611    1    1    2    0    0 -0.36822692879E-01  0.16689702912E-01  0.27985389317E+01  0.27988309828E+01  0.51109989000E-03 0. -1.
      611    1    1    2    0    0  0.30965738104E-01 -0.16361742994E-01  0.26432486946E+01  0.26434807558E+01  0.51109989000E-03 0.  1.
</event>
<event>
 6   3  0.4012498E+04  0.9118800E+02  0.7818608E-02  0.1180000E+00
       11   -1    0    0    0    0  0.00000000000E+00  0.00000000000E+00  0.54999999763E+01  0.55000000000E+01  0.51109989000E-03 0.  1.
     -623   -1    0    0    0    0  0.00000000000E+00  0.00000000000E+00  0.93234578044E-11  0.17124000000E+03  0.17124000000E+03 0. -1.
       11    1    1    2    0    0  0.97648091192E-02 -0.14083868123E-02  0.22990504620E+00  0.23011720175E+00  0.51109989000E-03 0.  1.
     -623    1    1    2    0    0 -0.72906629871E-03 -0.56574076402E-02  0.23178372739E-02  0.17124000011E+03  0.17124000000E+03 0. -1.
     -611    1    1    2    0    0 -0.50191436510E-01 -0.52626188282E-01  0.32232283869E+01  0.32240487265E+01  0.51109989000E-03 0.  1.
      611    1    1    2    0    0  0.41155693689E-01  0.59691982735E-01  0.20445487058E+01  0.20458339609E+01  0.51109989000E-03 0. -1.
</event>
<event>
 6   3  0.4012498E+04  0.9118800E+02  0.7818608E-02  0.1180000E+00
       11   -1    0    0    0    0  0.00000000000E+00  0.00000000000E+00  0.54999999763E+01  0.55000000000E+01  0.51109989000E-03 0.  1.
     -623   -1    0    0    0    0  0.00000000000E+00  0.00000000000E+00  0.93234578044E-11  0.17124000000E+03  0.17124000000E+03 0.  1.
       11    1    1    2    0    0  0.27620060852E-03  0.18123232251E-02  0.27840415026E-01  0.27905388990E-01  0.51109989000E-03 0.  1.
     -623    1    1    2    0    0 -0.60405501362E-02 -0.57836946388E-02  0.62875739441E-02  0.17124000032E+03  0.17124000000E+03 0.  1.
     -611    1    1    2    0    0  0.73666909910E-01  0.10909901498E+00  0.32822048955E+01  0.32848437780E+01  0.51109989000E-03 0.  1.
      611    1    1    2    0    0 -0.67902560382E-01 -0.10512764357E+00  0.21836670918E+01  0.21872505133E+01  0.51109989000E-03 0. -1.
</event>
<event>
 6   3  0.4012498E+04  0.9118800E+02  0.7818608E-02  0.1180000E+00
       11   -1    0    0    0    0  0.00000000000E+00  0.00000000000E+00  0.54999999763E+01  0.55000000000E+01  0.51109989000E-03 0. -1.
     -623   -1    0    0    0    0  0.00000000000E+00  0.00000000000E+00  0.93234578044E-11  0.17124000000E+03  0.17124000000E+03 0. -1.
       11    1    1    2    0    0  0.73233838250E-02  0.11583006101E-01  0.31859581290E-01  0.34685618414E-01  0.51109989000E-03 0. -1.
     -623    1    1    2    0    0 -0.18638431516E-02  0.49616355050E-02  0.38283695272E-02  0.17124000012E+03  0.17124000000E+03 0. -1.
     -611    1    1    2    0    0  0.43069855678E-01 -0.31338452021E-01  0.31035629505E+01  0.31040200322E+01  0.51109989000E-03 0. -1.
      611    1    1    2    0    0 -0.48529396351E-01  0.14793810415E-01  0.23607490747E+01  0.23612942244E+01  0.51109989000E-03 0.  1.
</event>
<event>
 6   3  0.4012498E+04  0.9118800E+02  0.7818608E-02  0.1180000E+00
       11   -1    0    0    0    0  0.00000000000E+00  0.00000000000E+00  0.54999999763E+01  0.55000000000E+01  0.51109989000E-03 0.  1.
     -623   -1    0    0    0    0  0.00000000000E+00  0.00000000000E+00  0.93234578044E-11  0.17124000000E+03  0.17124000000E+03 0.  1.
       11    1    1    2    0    0  0.80342051396E-01 -0.21272461573E-01  0.55542527286E+00  0.56160916819E+00  0.51109989000E-03 0.  1.
     -623    1    1    2    0    0 -0.14711418711E-01 -0.15940486363E-01  0.67628198017E-02  0.17124000151E+03  0.17124000000E+03 0.  1.
     -611    1    1    2    0    0 -0.31058051374E-01  0.16725957029E-01  0.22202269470E+01  0.22205072208E+01  0.51109989000E-03 0.  1.
      611    1    1    2    0    0 -0.34572580852E-01  0.20486990647E-01  0.27175849021E+01  0.27178820691E+01  0.51109989000E-03 0.  1.
</event>
<event>
 6   3  0.4012498E+04  0.9118800E+02  0.7818608E-02  0.1180000E+00
       11   -1    0    0    0    0  0.00000000000E+00  0.00000000000E+00  0.54999999763E+01  0.55000000000E+01  0.51109989000E-03 0.  1.
     -623   -1    0    0    0    0  0.00000000000E+00  0.00000000000E+00  0.93234578044E-11  0.17124000000E+03  0.17124000000E+03 0.  1.
       11    1    1    2    0    0 -0.37672258930E-01 -0.61008689387E-01  0.66970110391E+00  0.67352883315E+00  0.51109989000E-03 0.  1.
     -623    1    1    2    0    0 -0.23566658392E-01  0.13448805365E-01  0.44581844213E-02  0.17124000221E+03  0.17124000000E+03 0.  1.
     -611    1    1    2    0    0  0.45380797399E-01  0.37931046388E-01  0.35333575708E+01  0.35338525953E+01  0.51109989000E-03 0.  1.
      611    1    1    2    0    0  0.15858120009E-01  0.96288377011E-02  0.12924831240E+01  0.12926163705E+01  0.51109989000E-03 0. -1.
</event>
<event>
 6   3  0.4012498E+04  0.9118800E+02  0.7818608E-02  0.1180000E+00
       11   -1    0    0    0    0  0.00000000000E+00  0.00000000000E+00  0.54999999763E+01  0.55000000000E+01  0.51109989000E-03 0.  1.
     -623   -1    0    0    0    0  0.00000000000E+00  0.00000000000E+00  0.93234578044E-11  0.17124000000E+03  0.17124000000E+03 0. -1.
       11    1    1    2    0    0 -0.25518237602E-02 -0.31620292799E-02  0.22241433671E+00  0.22245203670E+00  0.51109989000E-03 0.  1.
     -623    1    1    2    0    0  0.12568565299E-01 -0.51881025095E-02  0.26641153194E-02  0.17124000056E+03  0.17124000000E+03 0. -1.
     -611    1    1    2    0    0 -0.62138214658E-01  0.63901828083E-01  0.25325058059E+01  0.25340738978E+01  0.51109989000E-03 0.  1.
      611    1    1    2    0    0  0.52121473119E-01 -0.55551696294E-01  0.27424157182E+01  0.27434735048E+01  0.51109989000E-03 0. -1.
</event>
<event>
 6   3  0.4012498E+04  0.9118800E+02  0.7818608E-02  0.1180000E+00
       11   -1    0    0    0    0  0.00000000000E+00  0.00000000000E+00  0.54999999763E+01  0.55000000000E+01  0.51109989000E-03 0.  1.
     -623   -1    0    0    0    0  0.00000000000E+00  0.00000000000E+00  0.93234578044E-11  0.17124000000E+03  0.17124000000E+03 0.  1.
       11    1    1    2    0    0 -0.60292000862E-02  0.12385475450E-01  0.62481383936E+00  0.62496587613E+00  0.51109989000E-03 0.  1.
     -623    1    1    2    0    0  0.15312265589E-01 -0.14472712740E-01  0.14676981041E-02  0.17124000130E+03  0.17124000000E+03 0.  1.
     -611    1    1    2    0    0  0.37727890682E-01  0.37425152945E-01  0.26753816911E+01  0.26759094697E+01  0.51109989000E-03 0.  1.
      611    1    1    2    0    0 -0.47010956185E-01 -0.35337915655E-01  0.21983367477E+01  0.21991233517E+01  0.51109989000E-03 0. -1.
</event>
<event>
 6   3  0.4012498E+04  0.9118800E+02  0.7818608E-02  0.1180000E+00
       11   -1    0    0    0    0  0.00000000000E+00  0.00000000000E+00  0.54999999763E+01  0.55000000000E+01  0.51109989000E-03 0. -1.
     -623   -1    0    0    0    0  0.00000000000E+00  0.00000000000E+00  0.93234578044E-11  0.17124000000E+03  0.17124000000E+03 0. -1.
       11    1    1    2    0    0 -0.46144517954E-02  0.71259004832E-02  0.10459229494E-01  0.13480664965E-01  0.51109989000E-03 0. -1.
     -623    1    1    2    0    0  0.11871955150E-02 -0.50715259585E-02  0.40841339961E-02  0.17124000013E+03  0.17124000000E+03 0. -1.
     -611    1    1    2    0    0 -0.46415850831E-01  0.22871868851E-01  0.23791876505E+01  0.23797503422E+01  0.51109989000E-03 0.  1.
      611    1    1    2    0    0  0.49843107111E-01 -0.24926243376E-01  0.31062689622E+01  0.31067688648E+01  0.51109989000E-03 0. -1.
</event>
<event>
 6   3  0.4012498E+04  0.9118800E+02  0.7818608E-02  0.1180000E+00
       11   -1    0    0    0    0  0.00000000000E+00  0.00000000000E+00  0.54999999763E+01  0.55000000000E+01  0.51109989000E-03 0. -1.
     -623   -1    0    0    0    0  0.00000000000E+00  0.00000000000E+00  0.93234578044E-11  0.17124000000E+03  0.17124000000E+03 0.  1.
       11    1    1    2    0    0 -0.15445927940E-01 -0.20670230021E-01  0.65448921775E+00  0.65499788738E+00  0.51109989000E-03 0. -1.
     -623    1    1    2    0    0 -0.35508892872E-01  0.11799058036E-01  0.79018770103E-03  0.17124000409E+03  0.17124000000E+03 0.  1.
     -611    1    1    2    0    0  0.41649398433E-01  0.82613487867E-02  0.40476519910E+01  0.40478747292E+01  0.51109989000E-03 0. -1.
      611    1    1    2    0    0  0.93054226025E-02  0.60982323692E-03  0.79706860106E+00  0.79712331467E+00  0.51109989000E-03 0.  1.
</event>
<event>
 6   3  0.4012498E+04  0.9118800E+02  0.7818608E-02  0.1180000E+00
       11   -1    0    0    0    0  0.00000000000E+00  0.00000000000E+00  0.54999999763E+01  0.55000000000E+01  0.51109989000E-03 0.  1.
     -623   -1    0    0    0    0  0.00000000000E+00  0.00000000000E+00  0.93234578044E-11  0.17124000000E+03  0.17124000000E+03 0. -1.
       11    1    1    2    0    0 -0.73904468207E-02 -0.36870208378E-02  0.23421520887E-01  0.24840323894E-01  0.51109989000E-03 0.  1.
     -623    1    1    2    0    0  0.17114992176E-01 -0.48853086025E-03  0.17857619801E-02  0.17124000087E+03  0.17124000000E+03 0. -1.
     -611    1    1    2    0    0 -0.33405076220E-01  0.15740496858E-01  0.31162820657E+01  0.31165008962E+01  0.51109989000E-03 0.  1.
      611    1    1    2    0    0  0.23680530865E-01 -0.11564945160E-01  0.23585106277E+01  0.23586579145E+01  0.51109989000E-03 0. -1.
</event>
<event>
 6   3  0.4012498E+04  0.9118800E+02  0.7818608E-02  0.1180000E+00
       11   -1    0    0    0    0  0.00000000000E+00  0.00000000000E+00  0.54999999763E+01  0.55000000000E+01  0.51109989000E-03 0. -1.
     -623   -1    0    0    0    0  0.00000000000E+00  0.00000000000E+00  0.93234578044E-11  0.17124000000E+03  0.17124000000E+03 0. -1.
       11    1    1    2    0    0 -0.45890781326E-01 -0.59139678476E-02  0.48187671439E+00  0.48409334629E+00  0.51109989000E-03 0. -1.
     -623    1    1    2    0    0 -0.64224817499E-02 -0.23022977918E-02  0.24969402390E-02  0.17124000015E+03  0.17124000000E+03 0. -1.
     -611    1    1    2    0    0  0.36033275531E-01  0.63530983691E-02  0.35386219984E+01  0.35388111941E+01  0.51109989000E-03 0. -1.
      611    1    1    2    0    0  0.16279987043E-01  0.18631671915E-02  0.14770042751E+01  0.14770952574E+01  0.51109989000E-03 0.  1.
</event>
<event>
 6   3  0.4012498E+04  0.9118800E+02  0.7818608E-02  0.1180000E+00
       11   -1    0    0    0    0  0.00000000000E+00  0.00000000000E+00  0.54999999763E+01  0.55000000000E+01  0.51109989000E-03 0. -1.
     -623   -1    0    0    0    0  0.00000000000E+00  0.00000000000E+00  0.93234578044E-11  0.17124000000E+03  0.17124000000E+03 0. -1.
       11    1    1    2    0    0 -0.82580814765E-02 -0.93390961985E-03  0.24511886410E+00  0.24526024313E+00  0.51109989000E-03 0. -1.
     -623    1    1    2    0    0 -0.28350817312E-03  0.15088986118E-02  0.50297484864E-03  0.17124000001E+03  0.17124000000E+03 0. -1.
     -611    1    1    2    0    0 -0.25366702353E-01 -0.71108364866E-02  0.18748814954E+01  0.18750666433E+01  0.51109989000E-03 0. -1.
      611    1    1    2    0    0  0.33908292003E-01  0.65358474946E-02  0.33794966423E+01  0.33796731064E+01  0.51109989000E-03 0.  1.
</event>
<event>
 6   3  0.4012498E+04  0.9118800E+02  0.7818608E-02  0.1180000E+00
       11   -1    0    0    0    0  0.00000000000E+00  0.00000000000E+00  0.54999999763E+01  0.55000000000E+01  0.51109989000E-03 0.  1.
     -623   -1    0    0    0    0  0.00000000000E+00  0.00000000000E+00  0.93234578044E-11  0.17124000000E+03  0.17124000000E+03 0. -1.
       11    1    1    2    0    0 -0.45426450524E-01  0.13672372253E-01  0.10873508246E+01  0.10883853055E+01  0.51109989000E-03 0.  1.
     -623    1    1    2    0    0 -0.12784172381E-01  0.75856425101E-02  0.16488975532E-02  0.17124000065E+03  0.17124000000E+03 0. -1.
     -611    1    1    2    0    0  0.11305656726E-01 -0.15053800981E-01  0.54705572353E+00  0.54737981390E+00  0.51109989000E-03 0. -1.
      611    1    1    2    0    0  0.46904966185E-01 -0.62042137848E-02  0.38639445311E+01  0.38642342279E+01  0.51109989000E-03 0.  1.
</event>
<event>
 6   3  0.4012498E+04  0.9118800E+02  0.7818608E-02  0.1180000E+00
       11   -1    0    0    0    0  0.00000000000E+00  0.00000000000E+00  0.54999999763E+01  0.55000000000E+01  0.51109989000E-03 0. -1.
     -623   -1    0    0    0    0  0.00000000000E+00  0.00000000000E+00  0.93234578044E-11  0.17124000000E+03  0.17124000000E+03 0.  1.
       11    1    1    2    0    0 -0.28752403098E-01 -0.12595966979E-01  0.22258737668E+00  0.22479048145E+00  0.51109989000E-03 0. -1.
     -623    1    1    2    0    0  0.16358636062E-02  0.15327226870E-01  0.50425814857E-02  0.17124000077E+03  0.17124000000E+03 0.  1.
     -611    1    1    2    0    0  0.68036842957E-01 -0.54393802342E-01  0.16995355395E+01  0.17017664378E+01  0.51109989000E-03 0. -1.
      611    1    1    2    0    0 -0.40920303465E-01  0.51662542451E-01  0.35728344785E+01  0.35734423126E+01  0.51109989000E-03 0.  1.
</event>
<event>
 6   3  0.4012498E+04  0.9118800E+02  0.7818608E-02  0.1180000E+00
       11   -1    0    0    0    0  0.00000000000E+00  0.00000000000E+00  0.54999999763E+01  0.55000000000E+01  0.51109989000E-03 0. -1.
     -623   -1    0    0    0    0  0.00000000000E+00  0.00000000000E+00  0.93234578044E-11  0.17124000000E+03  0.17124000000E+03 0.  1.
       11    1    1    2    0    0 -0.75399412103E-02  0.25258789344E-01  0.37293315491E+00  0.37386395441E+00  0.51109989000E-03 0. -1.
     -623    1    1    2    0    0  0.67766197367E-01 -0.39444360830E-01  0.13233608179E-02  0.17124001796E+03  0.17124000000E+03 0.  1.
     -611    1    1    2    0    0 -0.21254595481E-01  0.61937095730E-02  0.17429716918E+01  0.17431123599E+01  0.51109989000E-03 0. -1.
      611    1    1    2    0    0 -0.38971660465E-01  0.79918618627E-02  0.33827717509E+01  0.33830057109E+01  0.51109989000E-03 0. -1.
</event>
<event>
 6   3  0.4012498E+04  0.9118800E+02  0.7818608E-02  0.1180000E+00
       11   -1    0    0    0    0  0.00000000000E+00  0.00000000000E+00  0.54999999763E+01  0.55000000000E+01  0.51109989000E-03 0. -1.
     -623   -1    0    0    0    0  0.00000000000E+00  0.00000000000E+00  0.93234578044E-11  0.17124000000E+03  0.17124000000E+03 0.  1.
       11    1    1    2    0    0  0.66299781379E-01  0.21461778124E-01  0.41176976458E-01  0.80944879669E-01  0.51109989000E-03 0. -1.
     -623    1    1    2    0    0  0.80879020001E-01  0.22764612448E-01  0.41974698869E-01  0.17124002576E+03  0.17124000000E+03 0.  1.
     -611    1    1    2    0    0 -0.64079859848E-01 -0.17642744009E-01  0.23827413506E+01  0.23836682026E+01  0.51109989000E-03 0.  1.
      611    1    1    2    0    0 -0.83098944667E-01 -0.26583647505E-01  0.30341070657E+01  0.30353612754E+01  0.51109989000E-03 0. -1.
</event>
<event>
 6   3  0.4012498E+04  0.9118800E+02  0.7818608E-02  0.1180000E+00
       11   -1    0    0    0    0  0.00000000000E+00  0.00000000000E+00  0.54999999763E+01  0.55000000000E+01  0.51109989000E-03 0.  1.
     -623   -1    0    0    0    0  0.00000000000E+00  0.00000000000E+00  0.93234578044E-11  0.17124000000E+03  0.17124000000E+03 0.  1.
       11    1    1    2    0    0 -0.24384157749E-01  0.79449703066E-01  0.89810744466E+00  0.90194461352E+00  0.51109989000E-03 0.  1.
     -623    1    1    2    0    0  0.96512760712E-01 -0.72558538235E-03  0.51173293767E-02  0.17124002728E+03  0.17124000000E+03 0.  1.
     -611    1    1    2    0    0 -0.61568844778E-01 -0.63841908960E-01  0.39476955347E+01  0.39486917843E+01  0.51109989000E-03 0. -1.
      611    1    1    2    0    0 -0.10559758199E-01 -0.14882208739E-01  0.64907966844E+00  0.64933632721E+00  0.51109989000E-03 0.  1.
</event>
<event>
 6   3  0.4012498E+04  0.9118800E+02  0.7818608E-02  0.1180000E+00
       11   -1    0    0    0    0  0.00000000000E+00  0.00000000000E+00  0.54999999763E+01  0.55000000000E+01  0.51109989000E-03 0. -1.
     -623   -1    0    0    0    0  0.00000000000E+00  0.00000000000E+00  0.93234578044E-11  0.17124000000E+03  0.17124000000E+03 0. -1.
       11    1    1    2    0    0  0.26568032873E-02  0.24573358122E-02  0.26249186131E+00  0.26251730529E+00  0.51109989000E-03 0. -1.
     -623    1    1    2    0    0 -0.63966519974E-01  0.15316208891E-01  0.42754578856E-03  0.17124001263E+03  0.17124000000E+03 0. -1.
     -611    1    1    2    0    0  0.19456314894E-01 -0.64001571207E-02  0.17247325211E+01  0.17248542086E+01  0.51109989000E-03 0. -1.
      611    1    1    2    0    0  0.41853401280E-01 -0.11373387434E-01  0.35123480043E+01  0.35126158096E+01  0.51109989000E-03 0.  1.
</event>
<event>
 6   3  0.4012498E+04  0.9118800E+02  0.7818608E-02  0.1180000E+00
       11   -1    0    0    0    0  0.00000000000E+00  0.00000000000E+00  0.54999999763E+01  0.55000000000E+01  0.51109989000E-03 0.  1.
     -623   -1    0    0    0    0  0.00000000000E+00  0.00000000000E+00  0.93234578044E-11  0.17124000000E+03  0.17124000000E+03 0. -1.
       11    1    1    2    0    0 -0.62202007147E-01 -0.19456260358E-01  0.68162250163E+00  0.68473143035E+00  0.51109989000E-03 0.  1.
     -623    1    1    2    0    0  0.12965049244E-01  0.41642883098E-01  0.34174712959E-02  0.17124000559E+03  0.17124000000E+03 0. -1.
     -611    1    1    2    0    0  0.31082305121E-01 -0.14030912552E-01  0.30535822892E+01  0.30537727542E+01  0.51109989000E-03 0.  1.
      611    1    1    2    0    0  0.18154649465E-01 -0.81557086939E-02  0.17613773898E+01  0.17614899027E+01  0.51109989000E-03 0.  1.
</event>
<event>
 6   3  0.4012498E+04  0.9118800E+02  0.7818608E-02  0.1180000E+00
       11   -1    0    0    0    0  0.00000000000E+00  0.00000000000E+00  0.54999999763E+01  0.55000000000E+01  0.51109989000E-03 0. -1.
     -623   -1    0    0    0    0  0.00000000000E+00  0.00000000000E+00  0.93234578044E-11  0.17124000000E+03  0.17124000000E+03 0.  1.
       11    1    1    2    0    0  0.55949666380E-01  0.81650816475E-01  0.75064898776E+00  0.75714687151E+00  0.51109989000E-03 0. -1.
     -623    1    1    2    0    0  0.54565036127E-01 -0.10594841782E-02  0.84798379961E-02  0.17124000891E+03  0.17124000000E+03 0.  1.
     -611    1    1    2    0    0 -0.38042728266E-01 -0.26850282207E-01  0.16192859696E+01  0.16199554005E+01  0.51109989000E-03 0. -1.
      611    1    1    2    0    0 -0.72471985211E-01 -0.53741058090E-01  0.31215856515E+01  0.31228892921E+01  0.51109989000E-03 0. -1.
</event>
<event>
 6   3  0.4012498E+04  0.9118800E+02  0.7818608E-02  0.1180000E+00
       11   -1    0    0    0    0  0.00000000000E+00  0.00000000000E+00  0.54999999763E+01  0.55000000000E+01  0.51109989000E-03 0. -1.
     -623   -1    0    0    0    0  0.00000000000E+00  0.00000000000E+00  0.93234578044E-11  0.17124000000E+03  0.17124000000E+03 0. -1.
       11    1    1    2    0    0  0.17436738078E-02 -0.73634554186E-02  0.72032222796E+00  0.72036215488E+00  0.51109989000E-03 0. -1.
     -623    1    1    2    0    0 -0.56534093105E-01 -0.21665380235E-01  0.45568725840E-03  0.17124001070E+03  0.17124000000E+03 0. -1.
     -611    1    1    2    0    0  0.22817224428E-01  0.12811927176E-01  0.22075562994E+01  0.22077114502E+01  0.51109989000E-03 0.  1.
      611    1    1    2    0    0  0.31973194940E-01  0.16216908515E-01  0.25716657678E+01  0.25719156976E+01  0.51109989000E-03 0. -1.
</event>
<event>
 6   3  0.4012498E+04  0.9118800E+02  0.7818608E-02  0.1180000E+00
       11   -1    0    0    0    0  0.00000000000E+00  0.00000000000E+00  0.54999999763E+01  0.55000000000E+01  0.51109989000E-03 0. -1.
     -623   -1    0    0    0    0  0.00000000000E+00  0.00000000000E+00  0.93234578044E-11  0.17124000000E+03  0.17124000000E+03 0. -1.
       11    1    1    2    0    0  0.68312206577E-01  0.80273673705E-02  0.55238963291E+00  0.55665569607E+00  0.51109989000E-03 0. -1.
     -623    1    1    2    0    0  0.84090208924E-02 -0.77705230521E-02  0.48757802183E-02  0.17124000045E+03  0.17124000000E+03 0. -1.
     -611    1    1    2    0    0 -0.52536533908E-01 -0.29321903407E-02  0.36622932046E+01  0.36626712196E+01  0.51109989000E-03 0.  1.
      611    1    1    2    0    0 -0.24184693705E-01  0.26753460218E-02  0.12804413678E+01  0.12806726414E+01  0.51109989000E-03 0. -1.
</event>
<event>
 6   3  0.4012498E+04  0.9118800E+02  0.7818608E-02  0.1180000E+00
       11   -1    0    0    0    0  0.00000000000E+00  0.00000000000E+00  0.54999999763E+01  0.55000000000E+01  0.51109989000E-03 0.  1.
     -623   -1    0    0    0    0  0.00000000000E+00  0.00000000000E+00  0.93234578044E-11  0.17124000000E+03  0.17124000000E+03 0.  1.
       11    1    1    2    0    0  0.59463497093E-01 -0.51735881943E-01  0.83898319090E+00  0.84267761618E+00  0.51109989000E-03 0.  1.
     -623    1    1    2    0    0 -0.52073908816E-02 -0.55442178964E-02  0.43668980464E-02  0.17124000022E+03  0.17124000000E+03 0.  1.
     -611    1    1    2    0    0 -0.39886031684E-01  0.43103791250E-01  0.36067994098E+01  0.36072775158E+01  0.51109989000E-03 0.  1.
      611    1    1    2    0    0 -0.14370074474E-01  0.14176308533E-01  0.10498504730E+01  0.10500446389E+01  0.51109989000E-03 0. -1.
</event>
<event>
 6   3  0.4012498E+04  0.9118800E+02  0.7818608E-02  0.1180000E+00
       11   -1    0    0    0    0  0.00000000000E+00  0.00000000000E+00  0.54999999763E+01  0.55000000000E+01  0.51109989000E-03 0. -1.
     -623   -1    0    0    0    0  0.00000000000E+00  0.00000000000E+00  0.93234578044E-11  0.17124000000E+03  0.17124000000E+03 0.  1.
       11    1    1    2    0    0 -0.31213048613E-01 -0.10236104882E-01  0.53199937276E+00  0.53301278230E+00  0.51109989000E-03 0. -1.
     -623    1    1    2    0    0 -0.68608263958E-01 -0.85128112506E-02  0.20662647046E-02  0.17124001397E+03  0.17124000000E+03 0.  1.
     -611    1    1    2    0    0  0.30807799223E-01  0.64169063615E-02  0.15215724463E+01  0.15218979164E+01  0.51109989000E-03 0.  1.
      611    1    1    2    0    0  0.69013522083E-01  0.12332011412E-01  0.34443623270E+01  0.34450757677E+01  0.51109989000E-03 0. -1.
</event>
<event>
 6   3  0.4012498E+04  0.9118800E+02  0.7818608E-02  0.1180000E+00
       11   -1    0    0    0    0  0.00000000000E+00  0.00000000000E+00  0.54999999763E+01  0.55000000000E+01  0.51109989000E-03 0. -1.
     -623   -1    0    0    0    0  0.00000000000E+00  0.00000000000E+00  0.93234578044E-11  0.17124000000E+03  0.17124000000E+03 0. -1.
       11    1    1    2    0    0  0.30469172824E-01 -0.18092751658E-01  0.46227725973E+00  0.46363373932E+00  0.51109989000E-03 0. -1.
     -623    1    1    2    0    0  0.13317701860E-02  0.48005202245E-02  0.25154068998E-02  0.17124000009E+03  0.17124000000E+03 0. -1.
     -611    1    1    2    0    0  0.36235394718E-01  0.10254035129E-01  0.13306553717E+01  0.13311882393E+01  0.51109989000E-03 0. -1.
      611    1    1    2    0    0 -0.68036337728E-01  0.30381963043E-02  0.37045519381E+01  0.37051779305E+01  0.51109989000E-03 0.  1.
</event>
<event>
 6   3  0.4012498E+04  0.9118800E+02  0.7818608E-02  0.1180000E+00
       11   -1    0    0    0    0  0.00000000000E+00  0.00000000000E+00  0.54999999763E+01  0.55000000000E+01  0.51109989000E-03 0.  1.
     -623   -1    0    0    0    0  0.00000000000E+00  0.00000000000E+00  0.93234578044E-11  0.17124000000E+03  0.17124000000E+03 0. -1.
       11    1    1    2    0    0 -0.75590699226E-01 -0.16782491690E-01  0.50539188385E+00  0.51128937338E+00  0.51109989000E-03 0.  1.
     -623    1    1    2    0    0 -0.20383248179E-01 -0.26704935063E-01  0.70605414238E-02  0.17124000344E+03  0.17124000000E+03 0. -1.
     -611    1    1    2    0    0  0.11083576989E-01 -0.85317090107E-03  0.71289922677E+00  0.71298607443E+00  0.51109989000E-03 0. -1.
      611    1    1    2    0    0  0.84890370502E-01  0.44340597693E-01  0.42746483287E+01  0.42757211156E+01  0.51109989000E-03 0.  1.
</event>
<event>
 6   3  0.4012498E+04  0.9118800E+02  0.7818608E-02  0.1180000E+00
       11   -1    0    0    0    0  0.00000000000E+00  0.00000000000E+00  0.54999999763E+01  0.55000000000E+01  0.51109989000E-03 0.  1.
     -623   -1    0    0    0    0  0.00000000000E+00  0.00000000000E+00  0.93234578044E-11  0.17124000000E+03  0.17124000000E+03 0. -1.
       11    1    1    2    0    0  0.41441616653E-03 -0.87707781610E-02  0.21752658186E+00  0.21770432547E+00  0.51109989000E-03 0.  1.
     -623    1    1    2    0    0 -0.51055977955E-02 -0.95798751029E-02  0.10281743928E-02  0.17124000035E+03  0.17124000000E+03 0. -1.
     -611    1    1    2    0    0 -0.42009252374E-01  0.10778690282E-01  0.17698247034E+01  0.17703560940E+01  0.51109989000E-03 0.  1.
      611    1    1    2    0    0  0.46700434003E-01  0.75719629816E-02  0.35116205166E+01  0.35119392334E+01  0.51109989000E-03 0. -1.
</event>
<event>
 6   3  0.4012498E+04  0.9118800E+02  0.7818608E-02  0.1180000E+00
       11   -1    0    0    0    0  0.00000000000E+00  0.00000000000E+00  0.54999999763E+01  0.55000000000E+01  0.51109989000E-03 0.  1.
     -623   -1    0    0    0    0  0.00000000000E+00  0.00000000000E+00  0.93234578044E-11  0.17124000000E+03  0.17124000000E+03 0.  1.
       11    1    1    2    0    0 -0.41167304191E-01  0.29914631988E-01  0.10136971467E+01  0.10149737921E+01  0.51109989000E-03 0.  1.
     -623    1    1    2    0    0 -0.29561111585E-01 -0.30556813870E-01  0.18399425396E-02  0.17124000529E+03  0.17124000000E+03 0.  1.
     -611    1    1    2    0    0  0.39422125452E-01  0.92087953292E-03  0.24976248275E+01  0.24979361466E+01  0.51109989000E-03 0.  1.
      611    1    1    2    0    0  0.31306290337E-01 -0.27869765052E-03  0.19868380603E+01  0.19870847744E+01  0.51109989000E-03 0.  1.
</event>
<event>
 6   3  0.4012498E+04  0.9118800E+02  0.7818608E-02  0.1180000E+00
       11   -1    0    0    0    0  0.00000000000E+00  0.00000000000E+00  0.54999999763E+01  0.55000000000E+01  0.51109989000E-03 0. -1.
     -623   -1    0    0    0    0  0.00000000000E+00  0.00000000000E+00  0.93234578044E-11  0.17124000000E+03  0.17124000000E+03 0. -1.
       11    1    1    2    0    0 -0.20841511136E-01 -0.16601438548E-01  0.30711999182E+00  0.30827411009E+00  0.51109989000E-03 0. -1.
     -623    1    1    2    0    0  0.81045353857E-01 -0.48965761283E-01  0.19452904384E-02  0.17124002619E+03  0.17124000000E+03 0. -1.
     -611    1    1    2    0    0 -0.86381030829E-02  0.11558320276E-01  0.81369834450E+00  0.81382643644E+00  0.51109989000E-03 0.  1.
      611    1    1    2    0    0 -0.51565739121E-01  0.54008878991E-01  0.43772363049E+01  0.43778732182E+01  0.51109989000E-03 0. -1.
</event>
<event>
 6   3  0.4012498E+04  0.9118800E+02  0.7818608E-02  0.1180000E+00
       11   -1    0    0    0    0  0.00000000000E+00  0.00000000000E+00  0.54999999763E+01  0.55000000000E+01  0.51109989000E-03 0.  1.
     -623   -1    0    0    0    0  0.00000000000E+00  0.00000000000E+00  0.93234578044E-11  0.17124000000E+03  0.17124000000E+03 0. -1.
       11    1    1    2    0    0  0.12845551450E-01 -0.48085766934E-02  0.91824344946E+00  0.91834602645E+00  0.51109989000E-03 0.  1.
     -623    1    1    2    0    0 -0.51953620536E-03  0.32785054616E-02  0.53442124872E-03  0.17124000003E+03  0.17124000000E+03 0. -1.
     -611    1    1    2    0    0 -0.32016335850E-01  0.18320705512E-01  0.28356162719E+01  0.28358562370E+01  0.51109989000E-03 0.  1.
      611    1    1    2    0    0  0.19690320606E-01 -0.16790634280E-01  0.17456058334E+01  0.17457977033E+01  0.51109989000E-03 0. -1.
</event>
<event>
 6   3  0.4012498E+04  0.9118800E+02  0.7818608E-02  0.1180000E+00
       11   -1    0    0    0    0  0.00000000000E+00  0.00000000000E+00  0.54999999763E+01  0.55000000000E+01  0.51109989000E-03 0. -1.
     -623   -1    0    0    0    0  0.00000000000E+00  0.00000000000E+00  0.93234578044E-11  0.17124000000E+03  0.17124000000E+03 0.  1.
       11    1    1    2    0    0 -0.25509540118E-01 -0.29031302876E-02  0.24498452268E+00  0.24632669847E+00  0.51109989000E-03 0. -1.
     -623    1    1    2    0    0 -0.15765809249E-03  0.10536926655E-01  0.17770197198E-02  0.17124000033E+03  0.17124000000E+03 0.  1.
     -611    1    1    2    0    0  0.43566300436E-01 -0.16256220383E-01  0.40949590079E+01  0.40952230495E+01  0.51109989000E-03 0. -1.
      611    1    1    2    0    0 -0.17899102226E-01  0.86224240153E-02  0.11582794259E+01  0.11584499185E+01  0.51109989000E-03 0.  1.
</event>
<event>
 6   3  0.4012498E+04  0.9118800E+02  0.7818608E-02  0.1180000E+00
       11   -1    0    0    0    0  0.00000000000E+00  0.00000000000E+00  0.54999999763E+01  0.55000000000E+01  0.51109989000E-03 0. -1.
     -623   -1    0    0    0    0  0.00000000000E+00  0.00000000000E+00  0.93234578044E-11  0.17124000000E+03  0.17124000000E+03 0. -1.
       11    1    1    2    0    0 -0.52814514513E-01  0.33392966589E-01  0.21781004460E+00  0.22659642520E+00  0.51109989000E-03 0. -1.
     -623    1    1    2    0    0 -0.15727620802E-01 -0.26244624142E-01  0.92574589942E-02  0.17124000298E+03  0.17124000000E+03 0. -1.
     -611    1    1    2    0    0  0.35998528398E-01 -0.39855086573E-03  0.22916484363E+01  0.22919312533E+01  0.51109989000E-03 0. -1.
      611    1    1    2    0    0  0.32543606927E-01 -0.67497915818E-02  0.29812840371E+01  0.29814693387E+01  0.51109989000E-03 0.  1.
</event>
<event>
 6   3  0.4012498E+04  0.9118800E+02  0.7818608E-02  0.1180000E+00
       11   -1    0    0    0    0  0.00000000000E+00  0.00000000000E+00  0.54999999763E+01  0.55000000000E+01  0.51109989000E-03 0.  1.
     -623   -1    0    0    0    0  0.00000000000E+00  0.00000000000E+00  0.93234578044E-11  0.17124000000E+03  0.17124000000E+03 0.  1.
       11    1    1    2    0    0  0.34343245339E-01  0.53954388114E-02  0.15553651014E+00  0.15937514383E+00  0.51109989000E-03 0.  1.
     -623    1    1    2    0    0  0.31046373328E-01  0.79806699878E-03  0.42454979283E-02  0.17124000287E+03  0.17124000000E+03 0.  1.
     -611    1    1    2    0    0 -0.29103511538E-01 -0.27565977716E-02  0.23853477104E+01  0.23855268965E+01  0.51109989000E-03 0.  1.
      611    1    1    2    0    0 -0.36286087541E-01 -0.34369061834E-02  0.29548686581E+01  0.29550934910E+01  0.51109989000E-03 0.  1.
</event>
<event>
 6   3  0.4012498E+04  0.9118800E+02  0.7818608E-02  0.1180000E+00
       11   -1    0    0    0    0  0.00000000000E+00  0.00000000000E+00  0.54999999763E+01  0.55000000000E+01  0.51109989000E-03 0. -1.
     -623   -1    0    0    0    0  0.00000000000E+00  0.00000000000E+00  0.93234578044E-11  0.17124000000E+03  0.17124000000E+03 0.  1.
       11    1    1    2    0    0 -0.29613488756E-01  0.55880765624E-02  0.18681706415E+00  0.18923282484E+00  0.51109989000E-03 0. -1.
     -623    1    1    2    0    0 -0.36646276298E-02 -0.15769508484E-02  0.44672366926E-02  0.17124000010E+03  0.17124000000E+03 0.  1.
     -611    1    1    2    0    0  0.86392874377E-01 -0.10188560775E-01  0.40219733241E+01  0.40229140205E+01  0.51109989000E-03 0. -1.
      611    1    1    2    0    0 -0.53114757991E-01  0.61774350608E-02  0.12867423514E+01  0.12878530499E+01  0.51109989000E-03 0.  1.
</event>
<event>
 6   3  0.4012498E+04  0.9118800E+02  0.7818608E-02  0.1180000E+00
       11   -1    0    0    0    0  0.00000000000E+00  0.00000000000E+00  0.54999999763E+01  0.55000000000E+01  0.51109989000E-03 0. -1.
     -623   -1    0    0    0    0  0.00000000000E+00  0.00000000000E+00  0.93234578044E-11  0.17124000000E+03  0.17124000000E+03 0.  1.
       11    1    1    2    0    0 -0.26858830852E-01  0.14377035631E-01  0.46396813185E+00  0.46496750912E+00  0.51109989000E-03 0. -1.
     -623    1    1    2    0    0 -0.34421026727E-01 -0.16245361717E-01  0.13779022490E-02  0.17124000424E+03  0.17124000000E+03 0.  1.
     -611    1    1    2    0    0  0.31455872959E-01  0.23244332714E-02  0.26455585565E+01  0.26457466266E+01  0.51109989000E-03 0. -1.
      611    1    1    2    0    0  0.29823983583E-01 -0.45610721712E-03  0.23890953005E+01  0.23892815435E+01  0.51109989000E-03 0.  1.
</event>
<event>
 6   3  0.5741248E+04  0.9118800E+02  0.7818608E-02  0.1180000E+00
       11   -1    0    0    0    0  0.00000000000E+00  0.00000000000E+00  0.54999999763E+01  0.55000000000E+01  0.51109989000E-03 0.  1.
     -623   -1    0    0    0    0  0.00000000000E+00  0.00000000000E+00  0.93234578044E-11  0.17124000000E+03  0.17124000000E+03 0.  1.
       11    1    1    2    0    0  0.91622581430E-02  0.19230878984E-01  0.18698814988E+00  0.18819830791E+00  0.51109989000E-03 0.  1.
     -623    1    1    2    0    0  0.92667015736E-02  0.11416317993E-01  0.13789373077E-01  0.17124000119E+03  0.17124000000E+03 0.  1.
     -611    1    1    2    0    0 -0.10640062158E+00 -0.15643751233E+00  0.19764933116E+01  0.19855276024E+01  0.51109989000E-03 0. -1.
      611    1    1    2    0    0  0.87971661860E-01  0.12579031536E+00  0.33227291417E+01  0.33262729032E+01  0.51109989000E-03 0.  1.
</event>
<event>
 6   3  0.4012498E+04  0.9118800E+02  0.7818608E-02  0.1180000E+00
       11   -1    0    0    0    0  0.00000000000E+00  0.00000000000E+00  0.54999999763E+01  0.55000000000E+01  0.51109989000E-03 0.  1.
     -623   -1    0    0    0    0  0.00000000000E+00  0.00000000000E+00  0.93234578044E-11  0.17124000000E+03  0.17124000000E+03 0. -1.
       11    1    1    2    0    0 -0.13890224798E-01 -0.11380117579E-02  0.91330074597E-01  0.92388728560E-01  0.51109989000E-03 0.  1.
     -623    1    1    2    0    0  0.73347483745E-02 -0.19209848887E-01  0.28409470607E-02  0.17124000126E+03  0.17124000000E+03 0. -1.
     -611    1    1    2    0    0 -0.56711398208E-01  0.39130146883E-01  0.21233983068E+01  0.21245159406E+01  0.51109989000E-03 0. -1.
      611    1    1    2    0    0  0.63266874632E-01 -0.18782286238E-01  0.32824306478E+01  0.32830940727E+01  0.51109989000E-03 0.  1.
</event>
<event>
 6   3  0.4012498E+04  0.9118800E+02  0.7818608E-02  0.1180000E+00
       11   -1    0    0    0    0  0.00000000000E+00  0.00000000000E+00  0.54999999763E+01  0.55000000000E+01  0.51109989000E-03 0.  1.
     -623   -1    0    0    0    0  0.00000000000E+00  0.00000000000E+00  0.93234578044E-11  0.17124000000E+03  0.17124000000E+03 0.  1.
       11    1    1    2    0    0 -0.86297889606E-01  0.31120277914E-01  0.36456451365E+00  0.37592997125E+00  0.51109989000E-03 0.  1.
     -623    1    1    2    0    0 -0.29068442974E-01  0.36149992874E-01  0.13212814263E-01  0.17124000679E+03  0.17124000000E+03 0.  1.
     -611    1    1    2    0    0  0.10145335486E-01 -0.16460842552E-01  0.52595044938E+00  0.52630601706E+00  0.51109989000E-03 0. -1.
      611    1    1    2    0    0  0.10522099712E+00 -0.50809428252E-01  0.45962722002E+01  0.45977572202E+01  0.51109989000E-03 0.  1.
</event>
<event>
 6   3  0.4012498E+04  0.9118800E+02  0.7818608E-02  0.1180000E+00
       11   -1    0    0    0    0  0.00000000000E+00  0.00000000000E+00  0.54999999763E+01  0.55000000000E+01  0.51109989000E-03 0.  1.
     -623   -1    0    0    0    0  0.00000000000E+00  0.00000000000E+00  0.93234578044E-11  0.17124000000E+03  0.17124000000E+03 0.  1.
       11    1    1    2    0    0 -0.27579021852E-02 -0.55604716962E-03  0.10925276966E-01  0.11293277347E-01  0.51109989000E-03 0.  1.
     -623    1    1    2    0    0  0.31895032632E-02  0.58213434256E-02  0.12126310288E-02  0.17124000013E+03  0.17124000000E+03 0.  1.
     -611    1    1    2    0    0  0.47615638320E-01 -0.52817970497E-02  0.25163370266E+01  0.25167930863E+01  0.51109989000E-03 0.  1.
      611    1    1    2    0    0 -0.48047239398E-01  0.16500793619E-04  0.29715250418E+01  0.29719135035E+01  0.51109989000E-03 0. -1.
</event>
<event>
 6   3  0.4012498E+04  0.9118800E+02  0.7818608E-02  0.1180000E+00
       11   -1    0    0    0    0  0.00000000000E+00  0.00000000000E+00  0.54999999763E+01  0.55000000000E+01  0.51109989000E-03 0. -1.
     -623   -1    0    0    0    0  0.00000000000E+00  0.00000000000E+00  0.93234578044E-11  0.17124000000E+03  0.17124000000E+03 0. -1.
       11    1    1    2    0    0 -0.54435846982E-01 -0.20056885604E-01  0.49192123603E+00  0.49533049955E+00  0.51109989000E-03 0. -1.
     -623    1    1    2    0    0 -0.10903761967E-01 -0.10427773719E-01  0.39300451391E-02  0.17124000071E+03  0.17124000000E+03 0. -1.
     -611    1    1    2    0    0  0.36244232764E-01  0.17549233439E-01  0.28676115432E+01  0.28678943223E+01  0.51109989000E-03 0. -1.
      611    1    1    2    0    0  0.29095379311E-01  0.12935427342E-01  0.21365373912E+01  0.21367747077E+01  0.51109989000E-03 0.  1.
</event>
<event>
 6   3  0.4012498E+04  0.9118800E+02  0.7818608E-02  0.1180000E+00
       11   -1    0    0    0    0  0.00000000000E+00  0.00000000000E+00  0.54999999763E+01  0.55000000000E+01  0.51109989000E-03 0.  1.
     -623   -1    0    0    0    0  0.00000000000E+00  0.00000000000E+00  0.93234578044E-11  0.17124000000E+03  0.17124000000E+03 0. -1.
       11    1    1    2    0    0 -0.10180501738E-01  0.18249291961E-01  0.52066109090E+00  0.52108052360E+00  0.51109989000E-03 0.  1.
     -623    1    1    2    0    0 -0.61389497581E-02 -0.49163620208E-02  0.27880107358E-02  0.17124000020E+03  0.17124000000E+03 0. -1.
     -611    1    1    2    0    0  0.41721991507E-01  0.60587112038E-01  0.27969603155E+01  0.27979275885E+01  0.51109989000E-03 0.  1.
      611    1    1    2    0    0 -0.25402540011E-01 -0.73920041978E-01  0.21795905591E+01  0.21809916846E+01  0.51109989000E-03 0. -1.
</event>
<event>
 6   3  0.4012498E+04  0.9118800E+02  0.7818608E-02  0.1180000E+00
       11   -1    0    0    0    0  0.00000000000E+00  0.00000000000E+00  0.54999999763E+01  0.55000000000E+01  0.51109989000E-03 0. -1.
     -623   -1    0    0    0    0  0.00000000000E+00  0.00000000000E+00  0.93234578044E-11  0.17124000000E+03  0.17124000000E+03 0.  1.
       11    1    1    2    0    0  0.21725890902E-01 -0.18125281512E-01  0.10562870683E+01  0.10566660646E+01  0.51109989000E-03 0. -1.
     -623    1    1    2    0    0  0.24614983719E-02  0.21878661904E-02  0.82838880454E-03  0.17124000003E+03  0.17124000000E+03 0.  1.
     -611    1    1    2    0    0 -0.42656838418E-01  0.10666413004E-01  0.30640142254E+01  0.30643297494E+01  0.51109989000E-03 0.  1.
      611    1    1    2    0    0  0.18469449145E-01  0.52710023173E-02  0.13788702936E+01  0.13790041522E+01  0.51109989000E-03 0. -1.
</event>
<event>
 6   3  0.4012498E+04  0.9118800E+02  0.7818608E-02  0.1180000E+00
       11   -1    0    0    0    0  0.00000000000E+00  0.00000000000E+00  0.54999999763E+01  0.55000000000E+01  0.51109989000E-03 0. -1.
     -623   -1    0    0    0    0  0.00000000000E+00  0.00000000000E+00  0.93234578044E-11  0.17124000000E+03  0.17124000000E+03 0.  1.
       11    1    1    2    0    0  0.63540075292E-01 -0.22365868342E-01  0.93447073206E+00  0.93689560973E+00  0.51109989000E-03 0. -1.
     -623    1    1    2    0    0 -0.25610386914E-02 -0.59059812835E-02  0.29212582134E-02  0.17124000015E+03  0.17124000000E+03 0.  1.
     -611    1    1    2    0    0 -0.12482305872E-01  0.45721921014E-02  0.86789095853E+00  0.86799290897E+00  0.51109989000E-03 0.  1.
      611    1    1    2    0    0 -0.48496731574E-01  0.23699657917E-01  0.36947170908E+01  0.36951113987E+01  0.51109989000E-03 0. -1.
</event>
<event>
 6   3  0.4012498E+04  0.9118800E+02  0.7818608E-02  0.1180000E+00
       11   -1    0    0    0    0  0.00000000000E+00  0.00000000000E+00  0.54999999763E+01  0.55000000000E+01  0.51109989000E-03 0. -1.
     -623   -1    0    0    0    0  0.00000000000E+00  0.00000000000E+00  0.93234578044E-11  0.17124000000E+03  0.17124000000E+03 0.  1.
       11    1    1    2    0    0 -0.81566735778E-01  0.64941297750E-02  0.89591177445E+00  0.89964074771E+00  0.51109989000E-03 0. -1.
     -623    1    1    2    0    0  0.73757792340E-02  0.15851434004E-01  0.62872697945E-02  0.17124000101E+03  0.17124000000E+03 0.  1.
     -611    1    1    2    0    0  0.25408205876E-01 -0.64467939290E-01  0.12370953982E+01  0.12390346958E+01  0.51109989000E-03 0.  1.
      611    1    1    2    0    0  0.48782750667E-01  0.42122375511E-01  0.33607055338E+01  0.33613235485E+01  0.51109989000E-03 0. -1.
</event>
<event>
 6   3  0.4012498E+04  0.9118800E+02  0.7818608E-02  0.1180000E+00
       11   -1    0    0    0    0  0.00000000000E+00  0.00000000000E+00  0.54999999763E+01  0.55000000000E+01  0.51109989000E-03 0.  1.
     -623   -1    0    0    0    0  0.00000000000E+00  0.00000000000E+00  0.93234578044E-11  0.17124000000E+03  0.17124000000E+03 0.  1.
       11    1    1    2    0    0 -0.10512102328E+00  0.57546522461E-01  0.67560466629E+00  0.68615155623E+00  0.51109989000E-03 0.  1.
     -623    1    1    2    0    0 -0.24653416519E-02 -0.93571970815E-02  0.12036578647E-01  0.17124000070E+03  0.17124000000E+03 0.  1.
     -611    1    1    2    0    0  0.89766547333E-01 -0.38624839278E-01  0.36266033935E+01  0.36279198374E+01  0.51109989000E-03 0.  1.
      611    1    1    2    0    0  0.17819817539E-01 -0.95644860747E-02  0.11857553351E+01  0.11859279073E+01  0.51109989000E-03 0. -1.
</event>
<event>
 6   3  0.4012498E+04  0.9118800E+02  0.7818608E-02  0.1180000E+00
       11   -1    0    0    0    0  0.00000000000E+00  0.00000000000E+00  0.54999999763E+01  0.55000000000E+01  0.51109989000E-03 0. -1.
     -623   -1    0    0    0    0  0.00000000000E+00  0.00000000000E+00  0.93234578044E-11  0.17124000000E+03  0.17124000000E+03 0.  1.
       11    1    1    2    0    0  0.41636027445E-01  0.86746592296E-01  0.75725901001E+00  0.76334788892E+00  0.51109989000E-03 0. -1.
     -623    1    1    2    0    0 -0.11750636533E-02  0.32272977276E-02  0.75561122205E-02  0.17124000020E+03  0.17124000000E+03 0.  1.
     -611    1    1    2    0    0  0.74817700702E-02 -0.30414003516E-01  0.65284125600E+00  0.65359234638E+00  0.51109989000E-03 0.  1.
      611    1    1    2    0    0 -0.47942733861E-01 -0.59559886507E-01  0.40823435980E+01  0.40830595635E+01  0.51109989000E-03 0. -1.
</event>
<event>
 6   3  0.4012498E+04  0.9118800E+02  0.7818608E-02  0.1180000E+00
       11   -1    0    0    0    0  0.00000000000E+00  0.00000000000E+00  0.54999999763E+01  0.55000000000E+01  0.51109989000E-03 0. -1.
     -623   -1    0    0    0    0  0.00000000000E+00  0.00000000000E+00  0.93234578044E-11  0.17124000000E+03  0.17124000000E+03 0.  1.
       11    1    1    2    0    0 -0.79470300697E-02  0.12249404442E-01  0.18820123451E+00  0.18876750009E+00  0.51109989000E-03 0. -1.
     -623    1    1    2    0    0  0.44407862538E-02 -0.86288354538E-02  0.34778377693E-02  0.17124000031E+03  0.17124000000E+03 0.  1.
     -611    1    1    2    0    0 -0.31666708037E-01 -0.82995780611E-01  0.28036896447E+01  0.28050966053E+01  0.51109989000E-03 0.  1.
      611    1    1    2    0    0  0.35172951853E-01  0.79375211623E-01  0.25046312593E+01  0.25061355843E+01  0.51109989000E-03 0. -1.
</event>
<event>
 6   3  0.4012498E+04  0.9118800E+02  0.7818608E-02  0.1180000E+00
       11   -1    0    0    0    0  0.00000000000E+00  0.00000000000E+00  0.54999999763E+01  0.55000000000E+01  0.51109989000E-03 0. -1.
     -623   -1    0    0    0    0  0.00000000000E+00  0.00000000000E+00  0.93234578044E-11  0.17124000000E+03  0.17124000000E+03 0. -1.
       11    1    1    2    0    0 -0.32326075521E-02 -0.15606735601E-02  0.14109076070E+00  0.14113734244E+00  0.51109989000E-03 0. -1.
     -623    1    1    2    0    0 -0.48878791591E-03  0.37397112523E-02  0.12356482806E-02  0.17124000005E+03  0.17124000000E+03 0. -1.
     -611    1    1    2    0    0  0.44202064618E-01 -0.31252868028E-01  0.17304864627E+01  0.17313330769E+01  0.51109989000E-03 0. -1.
      611    1    1    2    0    0 -0.40480669150E-01  0.29073830336E-01  0.36271871046E+01  0.36275295347E+01  0.51109989000E-03 0.  1.
</event>
<event>
 6   3  0.4012498E+04  0.9118800E+02  0.7818608E-02  0.1180000E+00
       11   -1    0    0    0    0  0.00000000000E+00  0.00000000000E+00  0.54999999763E+01  0.55000000000E+01  0.51109989000E-03 0.  1.
     -623   -1    0    0    0    0  0.00000000000E+00  0.00000000000E+00  0.93234578044E-11  0.17124000000E+03  0.17124000000E+03 0. -1.
       11    1    1    2    0    0 -0.75832692595E-02  0.10370936106E-01  0.61278608014E-01  0.62613028292E-01  0.51109989000E-03 0.  1.
     -623    1    1    2    0    0 -0.39409342947E-03 -0.16520126409E-02  0.30673595226E-02  0.17124000004E+03  0.17124000000E+03 0. -1.
     -611    1    1    2    0    0  0.49142772913E-01  0.36119803816E-01  0.39712517406E+01  0.39717200683E+01  0.51109989000E-03 0.  1.
      611    1    1    2    0    0 -0.41165410224E-01 -0.44838727281E-01  0.14644022680E+01  0.14656668674E+01  0.51109989000E-03 0. -1.
</event>
<event>
 6   3  0.4012498E+04  0.9118800E+02  0.7818608E-02  0.1180000E+00
       11   -1    0    0    0    0  0.00000000000E+00  0.00000000000E+00  0.54999999763E+01  0.55000000000E+01  0.51109989000E-03 0. -1.
     -623   -1    0    0    0    0  0.00000000000E+00  0.00000000000E+00  0.93234578044E-11  0.17124000000E+03  0.17124000000E+03 0. -1.
       11    1    1    2    0    0  0.54691567550E-01 -0.30742734736E-01  0.92946207442E+00  0.93157731419E+00  0.51109989000E-03 0. -1.
     -623    1    1    2    0    0  0.35048524795E-01  0.16293129988E-01  0.32238536428E-02  0.17124000439E+03  0.17124000000E+03 0. -1.
     -611    1    1    2    0    0 -0.87793080960E-02 -0.12333487422E-01  0.71700641067E+00  0.71716640003E+00  0.51109989000E-03 0.  1.
      611    1    1    2    0    0 -0.80960784248E-01  0.26783092170E-01  0.38503076375E+01  0.38512518935E+01  0.51109989000E-03 0. -1.
</event>
<event>
 6   3  0.4012498E+04  0.9118800E+02  0.7818608E-02  0.1180000E+00
       11   -1    0    0    0    0  0.00000000000E+00  0.00000000000E+00  0.54999999763E+01  0.55000000000E+01  0.51109989000E-03 0. -1.
     -623   -1    0    0    0    0  0.00000000000E+00  0.00000000000E+00  0.93234578044E-11  0.17124000000E+03  0.17124000000E+03 0.  1.
       11    1    1    2    0    0  0.14657318386E-01 -0.73826211233E-02  0.10635569081E+00  0.10761567854E+00  0.51109989000E-03 0. -1.
     -623    1    1    2    0    0 -0.39238635784E-02 -0.13175504883E-01  0.22453634173E-02  0.17124000057E+03  0.17124000000E+03 0.  1.
     -611    1    1    2    0    0  0.40628566741E-01  0.25169584810E-01  0.33147803209E+01  0.33151248884E+01  0.51109989000E-03 0. -1.
      611    1    1    2    0    0 -0.51362021549E-01 -0.46114588037E-02  0.20766186010E+01  0.20772588664E+01  0.51109989000E-03 0.  1.
</event>
<event>
 6   3  0.4012498E+04  0.9118800E+02  0.7818608E-02  0.1180000E+00
       11   -1    0    0    0    0  0.00000000000E+00  0.00000000000E+00  0.54999999763E+01  0.55000000000E+01  0.51109989000E-03 0.  1.
     -623   -1    0    0    0    0  0.00000000000E+00  0.00000000000E+00  0.93234578044E-11  0.17124000000E+03  0.17124000000E+03 0. -1.
       11    1    1    2    0    0 -0.25389568866E-01 -0.55290507874E-03  0.62718515132E+00  0.62769929996E+00  0.51109989000E-03 0.  1.
     -623    1    1    2    0    0 -0.42437823643E-03  0.47548680178E-03  0.13484697609E-02  0.17124000001E+03  0.17124000000E+03 0. -1.
     -611    1    1    2    0    0  0.40730772461E-01 -0.29666102840E-01  0.37560568727E+01  0.37563948895E+01  0.51109989000E-03 0. -1.
      611    1    1    2    0    0 -0.14916825358E-01  0.29743521117E-01  0.11154094826E+01  0.11159058042E+01  0.51109989000E-03 0.  1.
</event>
<event>
 6   3  0.4012498E+04  0.9118800E+02  0.7818608E-02  0.1180000E+00
       11   -1    0    0    0    0  0.00000000000E+00  0.00000000000E+00  0.54999999763E+01  0.55000000000E+01  0.51109989000E-03 0. -1.
     -623   -1    0    0    0    0  0.00000000000E+00  0.00000000000E+00  0.93234578044E-11  0.17124000000E+03  0.17124000000E+03 0.  1.
       11    1    1    2    0    0  0.52070298165E-02  0.59324797762E-02  0.14113467406E+00  0.14135616336E+00  0.51109989000E-03 0. -1.
     -623    1    1    2    0    0 -0.41777456113E-03 -0.21804455297E-02  0.10050727933E-02  0.17124000002E+03  0.17124000000E+03 0.  1.
     -611    1    1    2    0    0 -0.47186729811E-01 -0.85970568725E-02  0.32248677536E+01  0.32252244552E+01  0.51109989000E-03 0. -1.
      611    1    1    2    0    0  0.42397474556E-01  0.48450226259E-02  0.21329924758E+01  0.21334193641E+01  0.51109989000E-03 0.  1.
</event>
<event>
 6   3  0.4012498E+04  0.9118800E+02  0.7818608E-02  0.1180000E+00
       11   -1    0    0    0    0  0.00000000000E+00  0.00000000000E+00  0.54999999763E+01  0.55000000000E+01  0.51109989000E-03 0. -1.
     -623   -1    0    0    0    0  0.00000000000E+00  0.00000000000E+00  0.93234578044E-11  0.17124000000E+03  0.17124000000E+03 0.  1.
       11    1    1    2    0    0 -0.17154037615E+00 -0.36925236249E-01  0.71100847290E+00  0.73234068813E+00  0.51109989000E-03 0. -1.
     -623    1    1    2    0    0  0.60294096477E-02  0.19505344504E-01  0.24255398053E-01  0.17124000293E+03  0.17124000000E+03 0.  1.
     -611    1    1    2    0    0  0.10901255351E+00  0.10650409975E-01  0.32899497740E+01  0.32917726144E+01  0.51109989000E-03 0. -1.
      611    1    1    2    0    0  0.56498413407E-01  0.67694818139E-02  0.14747863432E+01  0.14758837745E+01  0.51109989000E-03 0.  1.
</event>
