<event>
 5   1  0.0000000E+00  0.9118800E+02  0.7818608E-02  0.1180000E+00
       11   -1    0    0    0    0  0.00000000000E+00  0.00000000000E+00  0.10559998763E+01  0.10560000000E+01  0.51109989000E-03 0. -1.
     -623   -1    0    0    0    0  0.00000000000E+00  0.00000000000E+00  0.47855275298E-10  0.17124000000E+03  0.17124000000E+03 0. -1.
       11    1    1    2    0    0 -0.25001170916E-02  0.33296349153E-02  0.76123087438E+00  0.76124243339E+00  0.51109989000E-03 0. -1.
     -623    1    1    2    0    0 -0.40719066715E-03 -0.16990682478E-03  0.42711302062E-04  0.17124000000E+03  0.17124000000E+03 0. -1.
       22    1    1    2    0    0  0.29073077588E-02 -0.31597280905E-02  0.29472629068E+00  0.29475756604E+00  0.00000000000E+00 0. -1.
</event>
<event>
 5   1  0.0000000E+00  0.9118800E+02  0.7818608E-02  0.1180000E+00
       11   -1    0    0    0    0  0.00000000000E+00  0.00000000000E+00  0.10559998763E+01  0.10560000000E+01  0.51109989000E-03 0. -1.
     -623   -1    0    0    0    0  0.00000000000E+00  0.00000000000E+00  0.47855275298E-10  0.17124000000E+03  0.17124000000E+03 0. -1.
       11    1    1    2    0    0 -0.22848391157E-02 -0.42281433452E-02  0.89143648837E+00  0.89144959011E+00  0.51109989000E-03 0. -1.
     -623    1    1    2    0    0  0.25094039438E-03  0.24804312617E-03  0.73694307759E-04  0.17124000000E+03  0.17124000000E+03 0. -1.
       22    1    1    2    0    0  0.20338987213E-02  0.39801002190E-02  0.16448969368E+00  0.16455040951E+00  0.00000000000E+00 0.  1.
</event>
<event>
 5   1  0.0000000E+00  0.9118800E+02  0.7818608E-02  0.1180000E+00
       11   -1    0    0    0    0  0.00000000000E+00  0.00000000000E+00  0.10559998763E+01  0.10560000000E+01  0.51109989000E-03 0. -1.
     -623   -1    0    0    0    0  0.00000000000E+00  0.00000000000E+00  0.47855275298E-10  0.17124000000E+03  0.17124000000E+03 0. -1.
       11    1    1    2    0    0  0.11315255536E-02 -0.42399925464E-02  0.70646058165E+00  0.70647439623E+00  0.51109989000E-03 0. -1.
     -623    1    1    2    0    0 -0.53682783118E-02 -0.14985181721E-02  0.86574465675E-04  0.17124000009E+03  0.17124000000E+03 0. -1.
       22    1    1    2    0    0  0.42367527582E-02  0.57385107185E-02  0.34945272025E+00  0.34952551305E+00  0.00000000000E+00 0.  1.
</event>
<event>
 5   1  0.0000000E+00  0.9118800E+02  0.7818608E-02  0.1180000E+00
       11   -1    0    0    0    0  0.00000000000E+00  0.00000000000E+00  0.10559998763E+01  0.10560000000E+01  0.51109989000E-03 0. -1.
     -623   -1    0    0    0    0  0.00000000000E+00  0.00000000000E+00  0.47855275298E-10  0.17124000000E+03  0.17124000000E+03 0.  1.
       11    1    1    2    0    0 -0.41306384454E-03  0.28531913342E-02  0.79093147705E+00  0.79093689630E+00  0.51109989000E-03 0. -1.
     -623    1    1    2    0    0 -0.33127535207E-03  0.12102468920E-03  0.23028203641E-04  0.17124000000E+03  0.17124000000E+03 0.  1.
       22    1    1    2    0    0  0.74433919660E-03 -0.29742160234E-02  0.26504537111E+00  0.26506310333E+00  0.00000000000E+00 0.  1.
</event>
<event>
 5   1  0.0000000E+00  0.9118800E+02  0.7818608E-02  0.1180000E+00
       11   -1    0    0    0    0  0.00000000000E+00  0.00000000000E+00  0.10559998763E+01  0.10560000000E+01  0.51109989000E-03 0.  1.
     -623   -1    0    0    0    0  0.00000000000E+00  0.00000000000E+00  0.47855275298E-10  0.17124000000E+03  0.17124000000E+03 0.  1.
       11    1    1    2    0    0  0.18390477855E-02 -0.70472074165E-03  0.98836023563E+00  0.98836232998E+00  0.51109989000E-03 0.  1.
     -623    1    1    2    0    0 -0.20942355762E-02  0.14415366197E-02  0.64844110170E-05  0.17124000002E+03  0.17124000000E+03 0.  1.
       22    1    1    2    0    0  0.25518779066E-03 -0.73681587808E-03  0.67633156321E-01  0.67637651144E-01  0.00000000000E+00 0. -1.
</event>
<event>
 5   1  0.0000000E+00  0.9118800E+02  0.7818608E-02  0.1180000E+00
       11   -1    0    0    0    0  0.00000000000E+00  0.00000000000E+00  0.10559998763E+01  0.10560000000E+01  0.51109989000E-03 0. -1.
     -623   -1    0    0    0    0  0.00000000000E+00  0.00000000000E+00  0.47855275298E-10  0.17124000000E+03  0.17124000000E+03 0. -1.
       11    1    1    2    0    0  0.74692778251E-02 -0.12078039780E-01  0.59852130808E+00  0.59868997536E+00  0.51109989000E-03 0. -1.
     -623    1    1    2    0    0  0.17286807869E-03  0.40042578101E-03  0.38154502431E-03  0.17124000000E+03  0.17124000000E+03 0. -1.
       22    1    1    2    0    0 -0.76421459038E-02  0.11677613999E-01  0.45709702326E+00  0.45731002366E+00  0.00000000000E+00 0. -1.
</event>
<event>
 5   1  0.0000000E+00  0.9118800E+02  0.7818608E-02  0.1180000E+00
       11   -1    0    0    0    0  0.00000000000E+00  0.00000000000E+00  0.10559998763E+01  0.10560000000E+01  0.51109989000E-03 0.  1.
     -623   -1    0    0    0    0  0.00000000000E+00  0.00000000000E+00  0.47855275298E-10  0.17124000000E+03  0.17124000000E+03 0. -1.
       11    1    1    2    0    0 -0.38907535436E-03  0.47092943969E-02  0.73394057881E+00  0.73395596822E+00  0.51109989000E-03 0.  1.
     -623    1    1    2    0    0 -0.17647119480E-03  0.39594608613E-03  0.56231222896E-04  0.17124000000E+03  0.17124000000E+03 0. -1.
       22    1    1    2    0    0  0.56554654916E-03 -0.51052404830E-02  0.32200306633E+00  0.32204403123E+00  0.00000000000E+00 0. -1.
</event>
