<event>
 7   1  0.1909700E+02  0.9118800E+02  0.7818608E-02  0.1180000E+00
       11   -1    0    0    0    0  0.00000000000E+00  0.00000000000E+00  0.65999999802E+01  0.66000000000E+01  0.51109989000E-03 0. -1.
     -623   -1    0    0    0    0  0.00000000000E+00  0.00000000000E+00  0.75637274222E-11  0.17124000000E+03  0.17124000000E+03 0.  1.
      622    2    1    2    0    0 -0.78636361644E-03  0.13869102261E-03  0.65854843807E+01  0.65855527609E+01  0.30000000218E-01 0.  0.
     -611    1    3    3    0    0 -0.20382570771E-02  0.10505423903E-01  0.97876555254E+00  0.97882418568E+00  0.51109989000E-03 0.  1.
      611    1    3    3    0    0  0.12518934607E-02 -0.10366732881E-01  0.56067188282E+01  0.56067285752E+01  0.51109989000E-03 0. -1.
       11    1    1    2    0    0  0.90281604992E-03  0.79126827124E-03  0.14388195038E-01  0.14447233707E-01  0.51109989000E-03 0. -1.
     -623    1    1    2    0    0 -0.11645243314E-03 -0.92995929391E-03  0.12740165907E-03  0.17124000000E+03  0.17124000000E+03 0.  1.
</event>
<event>
 7   1  0.1909700E+02  0.9118800E+02  0.7818608E-02  0.1180000E+00
       11   -1    0    0    0    0  0.00000000000E+00  0.00000000000E+00  0.65999999802E+01  0.66000000000E+01  0.51109989000E-03 0.  1.
     -623   -1    0    0    0    0  0.00000000000E+00  0.00000000000E+00  0.75637274222E-11  0.17124000000E+03  0.17124000000E+03 0. -1.
      622    2    1    2    0    0 -0.46510460142E-02  0.12335554552E-01  0.61243369245E+01  0.61244245903E+01  0.29999999739E-01 0.  0.
     -611    1    3    3    0    0 -0.10840704331E-01  0.90305061359E-02  0.57728410664E+01  0.57728583310E+01  0.51109989000E-03 0. -1.
      611    1    3    3    0    0  0.61896583169E-02  0.33050484162E-02  0.35149585806E+00  0.35156625929E+00  0.51109989000E-03 0.  1.
       11    1    1    2    0    0  0.71492191528E-02 -0.82188881439E-02  0.47545029294E+00  0.47557533971E+00  0.51109989000E-03 0.  1.
     -623    1    1    2    0    0 -0.24981731370E-02 -0.41166664126E-02  0.21276067246E-03  0.17124000007E+03  0.17124000000E+03 0. -1.
</event>
<event>
 7   1  0.1909700E+02  0.9118800E+02  0.7818608E-02  0.1180000E+00
       11   -1    0    0    0    0  0.00000000000E+00  0.00000000000E+00  0.65999999802E+01  0.66000000000E+01  0.51109989000E-03 0. -1.
     -623   -1    0    0    0    0  0.00000000000E+00  0.00000000000E+00  0.75637274222E-11  0.17124000000E+03  0.17124000000E+03 0.  1.
      622    2    1    2    0    0 -0.62283091845E-03 -0.11777477998E-02  0.65925439504E+01  0.65926123436E+01  0.30000000027E-01 0.  0.
     -611    1    3    3    0    0 -0.12944906592E-01 -0.35866512286E-02  0.50267386872E+01  0.50267566607E+01  0.51109989000E-03 0. -1.
      611    1    3    3    0    0  0.12322075674E-01  0.24089034288E-02  0.15658052631E+01  0.15658556829E+01  0.51109989000E-03 0.  1.
       11    1    1    2    0    0 -0.16875022150E-03  0.55156480283E-04  0.73678049706E-02  0.73876443799E-02  0.51109989000E-03 0. -1.
     -623    1    1    2    0    0  0.79158114056E-03  0.11225913207E-02  0.88218357878E-04  0.17124000001E+03  0.17124000000E+03 0.  1.
</event>
<event>
 7   1  0.1909700E+02  0.9118800E+02  0.7818608E-02  0.1180000E+00
       11   -1    0    0    0    0  0.00000000000E+00  0.00000000000E+00  0.65999999802E+01  0.66000000000E+01  0.51109989000E-03 0.  1.
     -623   -1    0    0    0    0  0.00000000000E+00  0.00000000000E+00  0.75637274222E-11  0.17124000000E+03  0.17124000000E+03 0.  1.
      622    2    1    2    0    0  0.16223158054E-01  0.95340864542E-02  0.57841467205E+01  0.57842551270E+01  0.30000000162E-01 0.  0.
     -611    1    3    3    0    0 -0.35112650351E-02  0.11850335105E-01  0.35020980928E+01  0.35021199397E+01  0.51109989000E-03 0.  1.
      611    1    3    3    0    0  0.19734423089E-01 -0.23162486504E-02  0.22820486277E+01  0.22821351873E+01  0.51109989000E-03 0. -1.
       11    1    1    2    0    0 -0.15155187493E-01 -0.12038176216E-01  0.81551505343E+00  0.81574485042E+00  0.51109989000E-03 0.  1.
     -623    1    1    2    0    0 -0.10679705626E-02  0.25040897608E-02  0.33820565738E-03  0.17124000002E+03  0.17124000000E+03 0.  1.
</event>
<event>
 7   1  0.1909700E+02  0.9118800E+02  0.7818608E-02  0.1180000E+00
       11   -1    0    0    0    0  0.00000000000E+00  0.00000000000E+00  0.65999999802E+01  0.66000000000E+01  0.51109989000E-03 0.  1.
     -623   -1    0    0    0    0  0.00000000000E+00  0.00000000000E+00  0.75637274222E-11  0.17124000000E+03  0.17124000000E+03 0. -1.
      622    2    1    2    0    0  0.00000000000E+00  0.00000000000E+00  0.65375012357E+01  0.65375700690E+01  0.30000001053E-01 0.  0.
     -611    1    3    3    0    0  0.54197120666E-02 -0.67554410234E-02  0.60220622713E+00  0.60226871950E+00  0.51109989000E-03 0. -1.
      611    1    3    3    0    0 -0.54197120666E-02  0.67554410234E-02  0.59352950086E+01  0.59353013495E+01  0.51109989000E-03 0.  1.
       11    1    1    2    0    0 -0.11748563075E-03 -0.12349884682E-03  0.62717298815E-01  0.62719612936E-01  0.51109989000E-03 0.  1.
     -623    1    1    2    0    0  0.11748563075E-03  0.12349884682E-03  0.71124669762E-04  0.17124000000E+03  0.17124000000E+03 0. -1.
</event>
<event>
 7   1  0.1909700E+02  0.9118800E+02  0.7818608E-02  0.1180000E+00
       11   -1    0    0    0    0  0.00000000000E+00  0.00000000000E+00  0.65999999802E+01  0.66000000000E+01  0.51109989000E-03 0. -1.
     -623   -1    0    0    0    0  0.00000000000E+00  0.00000000000E+00  0.75637274222E-11  0.17124000000E+03  0.17124000000E+03 0.  1.
      622    2    1    2    0    0 -0.26456601197E-02 -0.30213358544E-03  0.65789866500E+01  0.65790555881E+01  0.30000005313E-01 0.  0.
     -611    1    3    3    0    0 -0.13229122358E-01  0.88582044903E-02  0.31376132066E+01  0.31376536414E+01  0.51109989000E-03 0.  1.
      611    1    3    3    0    0  0.10583462239E-01 -0.91603380758E-02  0.34413734433E+01  0.34414019468E+01  0.51109989000E-03 0. -1.
       11    1    1    2    0    0  0.13482957300E-02  0.22728150383E-03  0.20893471361E-01  0.20944400803E-01  0.51109989000E-03 0. -1.
     -623    1    1    2    0    0  0.12973643921E-02  0.74852081895E-04  0.11985278543E-03  0.17124000000E+03  0.17124000000E+03 0.  1.
</event>
<event>
 7   1  0.1909700E+02  0.9118800E+02  0.7818608E-02  0.1180000E+00
       11   -1    0    0    0    0  0.00000000000E+00  0.00000000000E+00  0.65999999802E+01  0.66000000000E+01  0.51109989000E-03 0. -1.
     -623   -1    0    0    0    0  0.00000000000E+00  0.00000000000E+00  0.75637274222E-11  0.17124000000E+03  0.17124000000E+03 0.  1.
      622    2    1    2    0    0  0.11955368138E-01  0.37311587275E-01  0.56162143414E+01  0.56164311279E+01  0.30000000128E-01 0.  0.
     -611    1    3    3    0    0  0.39330352760E-02  0.36476111658E-01  0.33232221547E+01  0.33234246985E+01  0.51109989000E-03 0.  1.
      611    1    3    3    0    0  0.80223328622E-02  0.83547561759E-03  0.22929921867E+01  0.22930064294E+01  0.51109989000E-03 0. -1.
       11    1    1    2    0    0 -0.51745703055E-03 -0.29849528404E-01  0.98311501370E+00  0.98356832680E+00  0.51109989000E-03 0. -1.
     -623    1    1    2    0    0 -0.11437911106E-01 -0.74620588675E-02  0.67062567036E-03  0.17124000055E+03  0.17124000000E+03 0.  1.
</event>
<event>
 7   1  0.1909700E+02  0.9118800E+02  0.7818608E-02  0.1180000E+00
       11   -1    0    0    0    0  0.00000000000E+00  0.00000000000E+00  0.65999999802E+01  0.66000000000E+01  0.51109989000E-03 0. -1.
     -623   -1    0    0    0    0  0.00000000000E+00  0.00000000000E+00  0.75637274222E-11  0.17124000000E+03  0.17124000000E+03 0.  1.
      622    2    1    2    0    0  0.16271188237E-01  0.14747039576E-01  0.51867180644E+01  0.51868513095E+01  0.30000000139E-01 0.  0.
     -611    1    3    3    0    0  0.13889617098E-01  0.41238149163E-02  0.46499801070E+01  0.46500027080E+01  0.51109989000E-03 0. -1.
      611    1    3    3    0    0  0.23815711396E-02  0.10623224660E-01  0.53673795740E+00  0.53684860149E+00  0.51109989000E-03 0.  1.
       11    1    1    2    0    0 -0.11962155609E-01  0.91888696672E-02  0.14130663573E+01  0.14131469562E+01  0.51109989000E-03 0. -1.
     -623    1    1    2    0    0 -0.43090326501E-02 -0.23935909264E-01  0.21555140796E-03  0.17124000173E+03  0.17124000000E+03 0.  1.
</event>
<event>
 7   1  0.1909700E+02  0.9118800E+02  0.7818608E-02  0.1180000E+00
       11   -1    0    0    0    0  0.00000000000E+00  0.00000000000E+00  0.65999999802E+01  0.66000000000E+01  0.51109989000E-03 0.  1.
     -623   -1    0    0    0    0  0.00000000000E+00  0.00000000000E+00  0.75637274222E-11  0.17124000000E+03  0.17124000000E+03 0. -1.
      622    2    1    2    0    0  0.30890593252E-02 -0.82104486222E-04  0.64079584746E+01  0.64080294445E+01  0.29999999994E-01 0.  0.
     -611    1    3    3    0    0 -0.26405933127E-02  0.11054171526E-01  0.11552759385E+01  0.11553319535E+01  0.51109989000E-03 0. -1.
      611    1    3    3    0    0  0.57296526379E-02 -0.11136276013E-01  0.52526825361E+01  0.52526974910E+01  0.51109989000E-03 0.  1.
       11    1    1    2    0    0 -0.39256846048E-02  0.68946298927E-03  0.19192848788E+00  0.19197054993E+00  0.51109989000E-03 0.  1.
     -623    1    1    2    0    0  0.83662527845E-03 -0.60735850301E-03  0.11301529750E-03  0.17124000000E+03  0.17124000000E+03 0. -1.
</event>
<event>
 7   1  0.1909700E+02  0.9118800E+02  0.7818608E-02  0.1180000E+00
       11   -1    0    0    0    0  0.00000000000E+00  0.00000000000E+00  0.65999999802E+01  0.66000000000E+01  0.51109989000E-03 0. -1.
     -623   -1    0    0    0    0  0.00000000000E+00  0.00000000000E+00  0.75637274222E-11  0.17124000000E+03  0.17124000000E+03 0. -1.
      622    2    1    2    0    0 -0.21964433453E-03 -0.46258616148E-03  0.65128443180E+01  0.65129134320E+01  0.29999998643E-01 0.  0.
     -611    1    3    3    0    0 -0.12956369173E-01  0.96028300006E-03  0.16155860883E+01  0.16156384062E+01  0.51109989000E-03 0.  1.
      611    1    3    3    0    0  0.12736724839E-01 -0.14228691615E-02  0.48972582297E+01  0.48972750258E+01  0.51109989000E-03 0. -1.
       11    1    1    2    0    0  0.34682723677E-03 -0.54418941164E-03  0.87082668649E-01  0.87086559427E-01  0.51109989000E-03 0. -1.
     -623    1    1    2    0    0 -0.12718290205E-03  0.10067755735E-02  0.72988012517E-04  0.17124000000E+03  0.17124000000E+03 0. -1.
</event>
<event>
 7   1  0.1909700E+02  0.9118800E+02  0.7818608E-02  0.1180000E+00
       11   -1    0    0    0    0  0.00000000000E+00  0.00000000000E+00  0.65999999802E+01  0.66000000000E+01  0.51109989000E-03 0.  1.
     -623   -1    0    0    0    0  0.00000000000E+00  0.00000000000E+00  0.75637274222E-11  0.17124000000E+03  0.17124000000E+03 0.  1.
      622    2    1    2    0    0  0.20600904910E-01 -0.27953829707E-01  0.55325850195E+01  0.55327753263E+01  0.29999999963E-01 0.  0.
     -611    1    3    3    0    0  0.19936927933E-01 -0.26034097975E-01  0.55089646489E+01  0.55090622632E+01  0.51109989000E-03 0.  1.
      611    1    3    3    0    0  0.66397697688E-03 -0.19197317319E-02  0.23620370562E-01  0.23713063149E-01  0.51109989000E-03 0. -1.
       11    1    1    2    0    0 -0.21078755052E-01  0.28815491422E-01  0.10666272058E+01  0.10672246735E+01  0.51109989000E-03 0.  1.
     -623    1    1    2    0    0  0.47785015923E-03 -0.86166173765E-03  0.78775946584E-03  0.17124000000E+03  0.17124000000E+03 0.  1.
</event>
<event>
 7   1  0.1909700E+02  0.9118800E+02  0.7818608E-02  0.1180000E+00
       11   -1    0    0    0    0  0.00000000000E+00  0.00000000000E+00  0.65999999802E+01  0.66000000000E+01  0.51109989000E-03 0. -1.
     -623   -1    0    0    0    0  0.00000000000E+00  0.00000000000E+00  0.75637274222E-11  0.17124000000E+03  0.17124000000E+03 0. -1.
      622    2    1    2    0    0  0.10232214107E-03  0.12820505311E-03  0.65916665233E+01  0.65917347930E+01  0.29999999224E-01 0.  0.
     -611    1    3    3    0    0  0.45497203278E-02  0.13341274529E-01  0.44789601940E+01  0.44789824034E+01  0.51109989000E-03 0. -1.
      611    1    3    3    0    0 -0.44473981868E-02 -0.13213069476E-01  0.21127063293E+01  0.21127523896E+01  0.51109989000E-03 0.  1.
       11    1    1    2    0    0  0.13561292914E-03  0.41147970727E-03  0.82379965352E-02  0.82651989755E-02  0.51109989000E-03 0. -1.
     -623    1    1    2    0    0 -0.23793507032E-03 -0.53968476052E-03  0.95453401431E-04  0.17124000000E+03  0.17124000000E+03 0. -1.
</event>
<event>
 7   1  0.1909700E+02  0.9118800E+02  0.7818608E-02  0.1180000E+00
       11   -1    0    0    0    0  0.00000000000E+00  0.00000000000E+00  0.65999999802E+01  0.66000000000E+01  0.51109989000E-03 0. -1.
     -623   -1    0    0    0    0  0.00000000000E+00  0.00000000000E+00  0.75637274222E-11  0.17124000000E+03  0.17124000000E+03 0. -1.
      622    2    1    2    0    0  0.75875377414E-02 -0.67224234784E-02  0.64322734745E+01  0.64323514217E+01  0.30000000009E-01 0.  0.
     -611    1    3    3    0    0  0.29499604595E-02  0.10116515045E-01  0.11324683432E+01  0.11325174858E+01  0.51109989000E-03 0.  1.
      611    1    3    3    0    0  0.46375772820E-02 -0.16838938524E-01  0.52998051313E+01  0.52998339359E+01  0.51109989000E-03 0. -1.
       11    1    1    2    0    0 -0.80584756825E-02  0.57451794004E-02  0.16735541655E+00  0.16764856930E+00  0.51109989000E-03 0. -1.
     -623    1    1    2    0    0  0.47093793502E-03  0.97724408331E-03  0.37108402057E-03  0.17124000000E+03  0.17124000000E+03 0. -1.
</event>
<event>
 7   1  0.1909700E+02  0.9118800E+02  0.7818608E-02  0.1180000E+00
       11   -1    0    0    0    0  0.00000000000E+00  0.00000000000E+00  0.65999999802E+01  0.66000000000E+01  0.51109989000E-03 0.  1.
     -623   -1    0    0    0    0  0.00000000000E+00  0.00000000000E+00  0.75637274222E-11  0.17124000000E+03  0.17124000000E+03 0. -1.
      622    2    1    2    0    0  0.93984771244E-03 -0.54704990794E-03  0.65910263002E+01  0.65910946642E+01  0.30000000258E-01 0.  0.
     -611    1    3    3    0    0  0.15375336451E-03 -0.54705559412E-03  0.65846262392E+01  0.65846262836E+01  0.51109989000E-03 0.  1.
      611    1    3    3    0    0  0.78609434793E-03  0.56861889963E-08  0.64000609518E-02  0.64683806017E-02  0.51109989000E-03 0.  1.
       11    1    1    2    0    0 -0.88121465074E-03  0.65160906540E-03  0.88228564067E-02  0.89053439312E-02  0.51109989000E-03 0.  1.
     -623    1    1    2    0    0 -0.58633060531E-04 -0.10455915814E-03  0.15083185658E-03  0.17124000000E+03  0.17124000000E+03 0. -1.
</event>
<event>
 7   1  0.1909700E+02  0.9118800E+02  0.7818608E-02  0.1180000E+00
       11   -1    0    0    0    0  0.00000000000E+00  0.00000000000E+00  0.65999999802E+01  0.66000000000E+01  0.51109989000E-03 0. -1.
     -623   -1    0    0    0    0  0.00000000000E+00  0.00000000000E+00  0.75637274222E-11  0.17124000000E+03  0.17124000000E+03 0.  1.
      622    2    1    2    0    0  0.61087584520E-02 -0.34601847714E-04  0.64747506619E+01  0.64748230441E+01  0.29999999562E-01 0.  0.
     -611    1    3    3    0    0 -0.33050970406E-02 -0.12889442552E-01  0.20221151816E+01  0.20221590270E+01  0.51109989000E-03 0.  1.
      611    1    3    3    0    0  0.94138554927E-02  0.12854840704E-01  0.44526354803E+01  0.44526640171E+01  0.51109989000E-03 0. -1.
       11    1    1    2    0    0 -0.60776533331E-02 -0.92857218615E-03  0.12502482866E+00  0.12517695124E+00  0.51109989000E-03 0. -1.
     -623    1    1    2    0    0 -0.31105120667E-04  0.96317403387E-03  0.22448780947E-03  0.17124000000E+03  0.17124000000E+03 0.  1.
</event>
<event>
 7   1  0.1909700E+02  0.9118800E+02  0.7818608E-02  0.1180000E+00
       11   -1    0    0    0    0  0.00000000000E+00  0.00000000000E+00  0.65999999802E+01  0.66000000000E+01  0.51109989000E-03 0. -1.
     -623   -1    0    0    0    0  0.00000000000E+00  0.00000000000E+00  0.75637274222E-11  0.17124000000E+03  0.17124000000E+03 0.  1.
      622    2    1    2    0    0 -0.35100293108E-02 -0.19508902528E-02  0.63782915176E+01  0.63783633332E+01  0.29999999986E-01 0.  0.
     -611    1    3    3    0    0 -0.97743155607E-02  0.26799614502E-02  0.77569983974E+00  0.77576621610E+00  0.51109989000E-03 0.  1.
      611    1    3    3    0    0  0.62642862499E-02 -0.46308517030E-02  0.56025916779E+01  0.56025971171E+01  0.51109989000E-03 0. -1.
       11    1    1    2    0    0  0.34196152073E-02  0.18861082604E-02  0.22160166803E+00  0.22163666589E+00  0.51109989000E-03 0. -1.
     -623    1    1    2    0    0  0.90414103944E-04  0.64781992663E-04  0.10679370520E-03  0.17124000000E+03  0.17124000000E+03 0.  1.
</event>
<event>
 7   1  0.1909700E+02  0.9118800E+02  0.7818608E-02  0.1180000E+00
       11   -1    0    0    0    0  0.00000000000E+00  0.00000000000E+00  0.65999999802E+01  0.66000000000E+01  0.51109989000E-03 0. -1.
     -623   -1    0    0    0    0  0.00000000000E+00  0.00000000000E+00  0.75637274222E-11  0.17124000000E+03  0.17124000000E+03 0. -1.
      622    2    1    2    0    0  0.87623335255E-02 -0.26655392717E-04  0.64579107563E+01  0.64579863824E+01  0.30000000007E-01 0.  0.
     -611    1    3    3    0    0 -0.20755162778E-02  0.11858313638E-01  0.14601102216E+01  0.14601599391E+01  0.51109989000E-03 0.  1.
      611    1    3    3    0    0  0.10837849803E-01 -0.11884969031E-01  0.49978005347E+01  0.49978264433E+01  0.51109989000E-03 0. -1.
       11    1    1    2    0    0 -0.83293879374E-02 -0.13230674708E-02  0.14176203599E+00  0.14201360949E+00  0.51109989000E-03 0. -1.
     -623    1    1    2    0    0 -0.43294559074E-03  0.13497228635E-02  0.32718602183E-03  0.17124000001E+03  0.17124000000E+03 0. -1.
</event>
<event>
 7   1  0.1909700E+02  0.9118800E+02  0.7818608E-02  0.1180000E+00
       11   -1    0    0    0    0  0.00000000000E+00  0.00000000000E+00  0.65999999802E+01  0.66000000000E+01  0.51109989000E-03 0. -1.
     -623   -1    0    0    0    0  0.00000000000E+00  0.00000000000E+00  0.75637274222E-11  0.17124000000E+03  0.17124000000E+03 0. -1.
      622    2    1    2    0    0  0.63468072657E-02 -0.60210380701E-03  0.65387924697E+01  0.65388643973E+01  0.29999999703E-01 0.  0.
     -611    1    3    3    0    0  0.10644175339E-01  0.69269990942E-02  0.58911055700E+01  0.58911192807E+01  0.51109989000E-03 0. -1.
      611    1    3    3    0    0 -0.42973680733E-02 -0.75291029012E-02  0.64768689969E+00  0.64774511655E+00  0.51109989000E-03 0.  1.
       11    1    1    2    0    0  0.94231198557E-03 -0.13142655758E-02  0.61111908031E-01  0.61135437928E-01  0.51109989000E-03 0. -1.
     -623    1    1    2    0    0 -0.72891192502E-02  0.19163693827E-02  0.95603602620E-04  0.17124000017E+03  0.17124000000E+03 0. -1.
</event>
<event>
 7   1  0.1909700E+02  0.9118800E+02  0.7818608E-02  0.1180000E+00
       11   -1    0    0    0    0  0.00000000000E+00  0.00000000000E+00  0.65999999802E+01  0.66000000000E+01  0.51109989000E-03 0. -1.
     -623   -1    0    0    0    0  0.00000000000E+00  0.00000000000E+00  0.75637274222E-11  0.17124000000E+03  0.17124000000E+03 0. -1.
      622    2    1    2    0    0  0.50324223655E-03  0.26113818980E-03  0.65978175680E+01  0.65978857964E+01  0.30000002058E-01 0.  0.
     -611    1    3    3    0    0 -0.29459257690E-02  0.38498540215E-02  0.17921985233E+00  0.17928613038E+00  0.51109989000E-03 0.  1.
      611    1    3    3    0    0  0.34491680056E-02 -0.35887158317E-02  0.64185977156E+01  0.64185996660E+01  0.51109989000E-03 0. -1.
       11    1    1    2    0    0  0.34884762247E-03 -0.75220818519E-04  0.20202163982E-02  0.21142016840E-02  0.51109989000E-03 0. -1.
     -623    1    1    2    0    0 -0.85208985899E-03 -0.18591737127E-03  0.16219618966E-03  0.17124000000E+03  0.17124000000E+03 0. -1.
</event>
<event>
 7   1  0.1909700E+02  0.9118800E+02  0.7818608E-02  0.1180000E+00
       11   -1    0    0    0    0  0.00000000000E+00  0.00000000000E+00  0.65999999802E+01  0.66000000000E+01  0.51109989000E-03 0. -1.
     -623   -1    0    0    0    0  0.00000000000E+00  0.00000000000E+00  0.75637274222E-11  0.17124000000E+03  0.17124000000E+03 0.  1.
      622    2    1    2    0    0  0.25476472681E-01 -0.22129729272E-01  0.63694297032E+01  0.63695897450E+01  0.30000000087E-01 0.  0.
     -611    1    3    3    0    0  0.25387205711E-01 -0.72281309917E-02  0.51693112431E+01  0.51693786614E+01  0.51109989000E-03 0. -1.
      611    1    3    3    0    0  0.89266969483E-04 -0.14901598280E-01  0.12001184602E+01  0.12002110836E+01  0.51109989000E-03 0.  1.
       11    1    1    2    0    0 -0.20635992528E-01  0.37647679328E-01  0.22637369758E+00  0.23040942715E+00  0.51109989000E-03 0. -1.
     -623    1    1    2    0    0 -0.48404801724E-02 -0.15517950039E-01  0.41965745547E-02  0.17124000082E+03  0.17124000000E+03 0.  1.
</event>
<event>
 7   1  0.1909700E+02  0.9118800E+02  0.7818608E-02  0.1180000E+00
       11   -1    0    0    0    0  0.00000000000E+00  0.00000000000E+00  0.65999999802E+01  0.66000000000E+01  0.51109989000E-03 0.  1.
     -623   -1    0    0    0    0  0.00000000000E+00  0.00000000000E+00  0.75637274222E-11  0.17124000000E+03  0.17124000000E+03 0. -1.
      622    2    1    2    0    0  0.51160704687E-02 -0.87247731000E-02  0.62542894238E+01  0.62543695520E+01  0.30000000079E-01 0.  0.
     -611    1    3    3    0    0  0.12137991360E-01  0.67621023601E-02  0.21570411581E+01  0.21570859686E+01  0.51109989000E-03 0. -1.
      611    1    3    3    0    0 -0.70219208909E-02 -0.15486875460E-01  0.40972482657E+01  0.40972835834E+01  0.51109989000E-03 0.  1.
       11    1    1    2    0    0 -0.97859121868E-02  0.31608013491E-02  0.34547688380E+00  0.34563028398E+00  0.51109989000E-03 0.  1.
     -623    1    1    2    0    0  0.46698417101E-02  0.55639717645E-02  0.23366278791E-03  0.17124000015E+03  0.17124000000E+03 0. -1.
</event>
<event>
 7   1  0.1909700E+02  0.9118800E+02  0.7818608E-02  0.1180000E+00
       11   -1    0    0    0    0  0.00000000000E+00  0.00000000000E+00  0.65999999802E+01  0.66000000000E+01  0.51109989000E-03 0. -1.
     -623   -1    0    0    0    0  0.00000000000E+00  0.00000000000E+00  0.75637274222E-11  0.17124000000E+03  0.17124000000E+03 0.  1.
      622    2    1    2    0    0  0.14771981637E-01  0.36240701366E-02  0.65180047325E+01  0.65180915181E+01  0.30000000848E-01 0.  0.
     -611    1    3    3    0    0 -0.77991518428E-02 -0.22951224165E-02  0.29036714935E+01  0.29036829196E+01  0.51109989000E-03 0.  1.
      611    1    3    3    0    0  0.22571133480E-01  0.59191925531E-02  0.36143332390E+01  0.36144085985E+01  0.51109989000E-03 0. -1.
       11    1    1    2    0    0 -0.86696834421E-02 -0.20018592768E-01  0.78947326899E-01  0.81907564445E-01  0.51109989000E-03 0. -1.
     -623    1    1    2    0    0 -0.61022981880E-02  0.16394522633E-01  0.30479240215E-02  0.17124000092E+03  0.17124000000E+03 0.  1.
</event>
<event>
 7   1  0.1909700E+02  0.9118800E+02  0.7818608E-02  0.1180000E+00
       11   -1    0    0    0    0  0.00000000000E+00  0.00000000000E+00  0.65999999802E+01  0.66000000000E+01  0.51109989000E-03 0.  1.
     -623   -1    0    0    0    0  0.00000000000E+00  0.00000000000E+00  0.75637274222E-11  0.17124000000E+03  0.17124000000E+03 0.  1.
      622    2    1    2    0    0  0.80134833585E-02  0.18097061673E-02  0.47258632166E+01  0.47259655768E+01  0.30000000248E-01 0.  0.
     -611    1    3    3    0    0  0.13125250180E-01 -0.17562710466E-02  0.44897551816E+01  0.44897747392E+01  0.51109989000E-03 0.  1.
      611    1    3    3    0    0 -0.51117668219E-02  0.35659772139E-02  0.23610803498E+00  0.23619083758E+00  0.51109989000E-03 0. -1.
       11    1    1    2    0    0 -0.74443361469E-02 -0.13384093774E-02  0.18740190893E+01  0.18740344228E+01  0.51109989000E-03 0.  1.
     -623    1    1    2    0    0 -0.56914720945E-03 -0.47129678941E-03  0.11767551952E-03  0.17124000000E+03  0.17124000000E+03 0.  1.
</event>
<event>
 7   1  0.1909700E+02  0.9118800E+02  0.7818608E-02  0.1180000E+00
       11   -1    0    0    0    0  0.00000000000E+00  0.00000000000E+00  0.65999999802E+01  0.66000000000E+01  0.51109989000E-03 0. -1.
     -623   -1    0    0    0    0  0.00000000000E+00  0.00000000000E+00  0.75637274222E-11  0.17124000000E+03  0.17124000000E+03 0. -1.
      622    2    1    2    0    0  0.27048108448E-02 -0.25981543611E-02  0.65858977442E+01  0.65859671395E+01  0.30000000113E-01 0.  0.
     -611    1    3    3    0    0 -0.15369365891E-02  0.95528273151E-02  0.52123528569E+01  0.52123618624E+01  0.51109989000E-03 0. -1.
      611    1    3    3    0    0  0.42417474339E-02 -0.12150981676E-01  0.13735448872E+01  0.13736052771E+01  0.51109989000E-03 0.  1.
       11    1    1    2    0    0 -0.25660608702E-05  0.38550239505E-02  0.13483247191E-01  0.14032832661E-01  0.51109989000E-03 0. -1.
     -623    1    1    2    0    0 -0.27022447842E-02 -0.12568695891E-02  0.61898810899E-03  0.17124000003E+03  0.17124000000E+03 0. -1.
</event>
<event>
 7   1  0.1909700E+02  0.9118800E+02  0.7818608E-02  0.1180000E+00
       11   -1    0    0    0    0  0.00000000000E+00  0.00000000000E+00  0.65999999802E+01  0.66000000000E+01  0.51109989000E-03 0. -1.
     -623   -1    0    0    0    0  0.00000000000E+00  0.00000000000E+00  0.75637274222E-11  0.17124000000E+03  0.17124000000E+03 0. -1.
      622    2    1    2    0    0 -0.11041797753E-01 -0.90893254573E-02  0.59690403623E+01  0.59691328837E+01  0.30000000247E-01 0.  0.
     -611    1    3    3    0    0  0.48093103068E-02 -0.36708309031E-02  0.27154787050E+00  0.27161574266E+00  0.51109989000E-03 0.  1.
      611    1    3    3    0    0 -0.15851108060E-01 -0.54184945543E-02  0.56974924918E+01  0.56975171411E+01  0.51109989000E-03 0. -1.
       11    1    1    2    0    0  0.77226503036E-02  0.84701655615E-02  0.63076274103E+00  0.63086708562E+00  0.51109989000E-03 0. -1.
     -623    1    1    2    0    0  0.33191474440E-02  0.61915989168E-03  0.19687966718E-03  0.17124000003E+03  0.17124000000E+03 0. -1.
</event>
<event>
 7   1  0.1909700E+02  0.9118800E+02  0.7818608E-02  0.1180000E+00
       11   -1    0    0    0    0  0.00000000000E+00  0.00000000000E+00  0.65999999802E+01  0.66000000000E+01  0.51109989000E-03 0. -1.
     -623   -1    0    0    0    0  0.00000000000E+00  0.00000000000E+00  0.75637274222E-11  0.17124000000E+03  0.17124000000E+03 0.  1.
      622    2    1    2    0    0  0.39736064324E-02 -0.26844042154E-02  0.62563346455E+01  0.62564084100E+01  0.29999999927E-01 0.  0.
     -611    1    3    3    0    0  0.78773337376E-02 -0.49727894160E-02  0.60501448140E+00  0.60508641115E+00  0.51109989000E-03 0. -1.
      611    1    3    3    0    0 -0.39037273052E-02  0.22883852006E-02  0.56513201641E+01  0.56513219988E+01  0.51109989000E-03 0.  1.
       11    1    1    2    0    0 -0.46264802028E-02  0.23224494378E-02  0.34355221094E+00  0.34359159034E+00  0.51109989000E-03 0. -1.
     -623    1    1    2    0    0  0.65287377168E-03  0.36195477673E-03  0.11312573301E-03  0.17124000000E+03  0.17124000000E+03 0.  1.
</event>
<event>
 7   1  0.1909700E+02  0.9118800E+02  0.7818608E-02  0.1180000E+00
       11   -1    0    0    0    0  0.00000000000E+00  0.00000000000E+00  0.65999999802E+01  0.66000000000E+01  0.51109989000E-03 0.  1.
     -623   -1    0    0    0    0  0.00000000000E+00  0.00000000000E+00  0.75637274222E-11  0.17124000000E+03  0.17124000000E+03 0.  1.
      622    2    1    2    0    0 -0.22236665306E-02 -0.22310783627E-02  0.64896025777E+01  0.64896726835E+01  0.29999999223E-01 0.  0.
     -611    1    3    3    0    0 -0.11492428845E-01  0.53248484866E-02  0.51773896487E+01  0.51774051672E+01  0.51109989000E-03 0.  1.
      611    1    3    3    0    0  0.92687623144E-02 -0.75559268494E-02  0.13122129290E+01  0.13122675163E+01  0.51109989000E-03 0. -1.
       11    1    1    2    0    0 -0.78433250526E-03  0.57031535211E-02  0.11017577697E+00  0.11032725951E+00  0.51109989000E-03 0.  1.
     -623    1    1    2    0    0  0.30079990343E-02 -0.34720751600E-02  0.22163030450E-03  0.17124000006E+03  0.17124000000E+03 0.  1.
</event>
<event>
 7   1  0.1909700E+02  0.9118800E+02  0.7818608E-02  0.1180000E+00
       11   -1    0    0    0    0  0.00000000000E+00  0.00000000000E+00  0.65999999802E+01  0.66000000000E+01  0.51109989000E-03 0. -1.
     -623   -1    0    0    0    0  0.00000000000E+00  0.00000000000E+00  0.75637274222E-11  0.17124000000E+03  0.17124000000E+03 0. -1.
      622    2    1    2    0    0 -0.45332578392E-02  0.72542589121E-02  0.42206938900E+01  0.42208091745E+01  0.29999999886E-01 0.  0.
     -611    1    3    3    0    0 -0.45881078442E-02  0.18289041047E-01  0.31979195038E+01  0.31979751334E+01  0.51109989000E-03 0.  1.
      611    1    3    3    0    0  0.54850004942E-04 -0.11034782135E-01  0.10227743862E+01  0.10228340412E+01  0.51109989000E-03 0. -1.
       11    1    1    2    0    0  0.43478151362E-02 -0.71342080064E-02  0.23791761061E+01  0.23791908300E+01  0.51109989000E-03 0. -1.
     -623    1    1    2    0    0  0.18544269798E-03 -0.12005089756E-03  0.12998882118E-03  0.17124000000E+03  0.17124000000E+03 0. -1.
</event>
<event>
 7   1  0.1909700E+02  0.9118800E+02  0.7818608E-02  0.1180000E+00
       11   -1    0    0    0    0  0.00000000000E+00  0.00000000000E+00  0.65999999802E+01  0.66000000000E+01  0.51109989000E-03 0.  1.
     -623   -1    0    0    0    0  0.00000000000E+00  0.00000000000E+00  0.75637274222E-11  0.17124000000E+03  0.17124000000E+03 0. -1.
      622    2    1    2    0    0  0.16802930594E-02  0.13894405555E-01  0.63672800970E+01  0.63673661518E+01  0.30000000068E-01 0.  0.
     -611    1    3    3    0    0 -0.31754757898E-02  0.14417241878E-01  0.61911335125E+01  0.61911511346E+01  0.51109989000E-03 0.  1.
      611    1    3    3    0    0  0.48557688492E-02 -0.52283632275E-03  0.17614658447E+00  0.17621501722E+00  0.51109989000E-03 0. -1.
       11    1    1    2    0    0 -0.25178281088E-02 -0.12895485807E-01  0.23226194638E+00  0.23263384528E+00  0.51109989000E-03 0.  1.
     -623    1    1    2    0    0  0.83753505008E-03 -0.99891974269E-03  0.45793953033E-03  0.17124000001E+03  0.17124000000E+03 0. -1.
</event>
<event>
 7   1  0.1909700E+02  0.9118800E+02  0.7818608E-02  0.1180000E+00
       11   -1    0    0    0    0  0.00000000000E+00  0.00000000000E+00  0.65999999802E+01  0.66000000000E+01  0.51109989000E-03 0. -1.
     -623   -1    0    0    0    0  0.00000000000E+00  0.00000000000E+00  0.75637274222E-11  0.17124000000E+03  0.17124000000E+03 0. -1.
      622    2    1    2    0    0 -0.61770825129E-02  0.60042211822E-02  0.43067174757E+01  0.43068305774E+01  0.30000000039E-01 0.  0.
     -611    1    3    3    0    0  0.28769703663E-02 -0.71816697691E-02  0.30671772457E+01  0.30671870453E+01  0.51109989000E-03 0.  1.
      611    1    3    3    0    0 -0.90540528792E-02  0.13185890951E-01  0.12395402300E+01  0.12396435321E+01  0.51109989000E-03 0. -1.
       11    1    1    2    0    0  0.53700489575E-03 -0.17979732056E-01  0.22930983052E+01  0.22931689117E+01  0.51109989000E-03 0. -1.
     -623    1    1    2    0    0  0.56400776160E-02  0.11975510875E-01  0.18420017762E-03  0.17124000051E+03  0.17124000000E+03 0. -1.
</event>
<event>
 7   1  0.1909700E+02  0.9118800E+02  0.7818608E-02  0.1180000E+00
       11   -1    0    0    0    0  0.00000000000E+00  0.00000000000E+00  0.65999999802E+01  0.66000000000E+01  0.51109989000E-03 0. -1.
     -623   -1    0    0    0    0  0.00000000000E+00  0.00000000000E+00  0.75637274222E-11  0.17124000000E+03  0.17124000000E+03 0. -1.
      622    2    1    2    0    0  0.39885853764E-03 -0.26706912213E-02  0.65325895664E+01  0.65326590095E+01  0.29999999802E-01 0.  0.
     -611    1    3    3    0    0 -0.25118306284E-02 -0.61940765271E-02  0.33166434999E+00  0.33173208792E+00  0.51109989000E-03 0.  1.
      611    1    3    3    0    0  0.29106891661E-02  0.35233853057E-02  0.62009252164E+01  0.62009269216E+01  0.51109989000E-03 0. -1.
       11    1    1    2    0    0 -0.68016081363E-02 -0.17809306186E-02  0.66970814417E-01  0.67340810752E-01  0.51109989000E-03 0. -1.
     -623    1    1    2    0    0  0.64027495986E-02  0.44516218406E-02  0.43959780450E-03  0.17124000018E+03  0.17124000000E+03 0. -1.
</event>
<event>
 7   1  0.1909700E+02  0.9118800E+02  0.7818608E-02  0.1180000E+00
       11   -1    0    0    0    0  0.00000000000E+00  0.00000000000E+00  0.65999999802E+01  0.66000000000E+01  0.51109989000E-03 0.  1.
     -623   -1    0    0    0    0  0.00000000000E+00  0.00000000000E+00  0.75637274222E-11  0.17124000000E+03  0.17124000000E+03 0. -1.
      622    2    1    2    0    0  0.22436908038E-03  0.11294772059E-02  0.65498997004E+01  0.65499685046E+01  0.29999999339E-01 0.  0.
     -611    1    3    3    0    0 -0.14551572210E-01  0.13865510395E-02  0.26016799483E+01  0.26017210622E+01  0.51109989000E-03 0. -1.
      611    1    3    3    0    0  0.14775941290E-01 -0.25707383365E-03  0.39482197522E+01  0.39482474425E+01  0.51109989000E-03 0.  1.
       11    1    1    2    0    0 -0.36448863355E-03 -0.10504228415E-02  0.50016527383E-01  0.50031494811E-01  0.51109989000E-03 0.  1.
     -623    1    1    2    0    0  0.14011955316E-03 -0.79054364446E-04  0.83751948104E-04  0.17124000000E+03  0.17124000000E+03 0. -1.
</event>
<event>
 7   1  0.1909700E+02  0.9118800E+02  0.7818608E-02  0.1180000E+00
       11   -1    0    0    0    0  0.00000000000E+00  0.00000000000E+00  0.65999999802E+01  0.66000000000E+01  0.51109989000E-03 0.  1.
     -623   -1    0    0    0    0  0.00000000000E+00  0.00000000000E+00  0.75637274222E-11  0.17124000000E+03  0.17124000000E+03 0. -1.
      622    2    1    2    0    0 -0.43203589023E-03 -0.20822796590E-03  0.65934591093E+01  0.65935273759E+01  0.30000000498E-01 0.  0.
     -611    1    3    3    0    0  0.14152914205E-01 -0.16613236990E-03  0.23109807454E+01  0.23110241452E+01  0.51109989000E-03 0.  1.
      611    1    3    3    0    0 -0.14584950095E-01 -0.42095596006E-04  0.42824783639E+01  0.42825032307E+01  0.51109989000E-03 0. -1.
       11    1    1    2    0    0  0.21472114139E-04 -0.15519882582E-03  0.64505145708E-02  0.64726275071E-02  0.51109989000E-03 0.  1.
     -623    1    1    2    0    0  0.41056377581E-03  0.36342679158E-03  0.90360603773E-04  0.17124000000E+03  0.17124000000E+03 0. -1.
</event>
<event>
 7   1  0.1909700E+02  0.9118800E+02  0.7818608E-02  0.1180000E+00
       11   -1    0    0    0    0  0.00000000000E+00  0.00000000000E+00  0.65999999802E+01  0.66000000000E+01  0.51109989000E-03 0. -1.
     -623   -1    0    0    0    0  0.00000000000E+00  0.00000000000E+00  0.75637274222E-11  0.17124000000E+03  0.17124000000E+03 0.  1.
      622    2    1    2    0    0  0.49495193519E-03 -0.49635834029E-02  0.26531281959E+01  0.26533024905E+01  0.29999997955E-01 0.  0.
     -611    1    3    3    0    0 -0.14742627013E-02 -0.10059202498E-01  0.30854594668E+00  0.30871382127E+00  0.51109989000E-03 0. -1.
      611    1    3    3    0    0  0.19692146365E-02  0.50956190947E-02  0.23445822492E+01  0.23445886692E+01  0.51109989000E-03 0.  1.
       11    1    1    2    0    0  0.10305910826E-02  0.40540201036E-02  0.39466952498E+01  0.39466974996E+01  0.51109989000E-03 0. -1.
     -623    1    1    2    0    0 -0.15255430179E-02  0.90956330052E-03  0.17653386536E-03  0.17124000001E+03  0.17124000000E+03 0.  1.
</event>
<event>
 7   1  0.1909700E+02  0.9118800E+02  0.7818608E-02  0.1180000E+00
       11   -1    0    0    0    0  0.00000000000E+00  0.00000000000E+00  0.65999999802E+01  0.66000000000E+01  0.51109989000E-03 0.  1.
     -623   -1    0    0    0    0  0.00000000000E+00  0.00000000000E+00  0.75637274222E-11  0.17124000000E+03  0.17124000000E+03 0.  1.
      622    2    1    2    0    0  0.00000000000E+00  0.00000000000E+00  0.65958862764E+01  0.65959545004E+01  0.29999999970E-01 0.  0.
     -611    1    3    3    0    0  0.31854490735E-03 -0.14604750180E-01  0.25575955113E+01  0.25576372810E+01  0.51109989000E-03 0.  1.
      611    1    3    3    0    0 -0.31854490735E-03  0.14604750180E-01  0.40382907650E+01  0.40383172194E+01  0.51109989000E-03 0. -1.
       11    1    1    2    0    0 -0.11211259544E-02 -0.50949983676E-03  0.42979923365E-02  0.45000525256E-02  0.51109989000E-03 0. -1.
     -623    1    1    2    0    0  0.11211259544E-02  0.50949983676E-03  0.27026433569E-03  0.17124000000E+03  0.17124000000E+03 0.  1.
</event>
<event>
 7   1  0.1909700E+02  0.9118800E+02  0.7818608E-02  0.1180000E+00
       11   -1    0    0    0    0  0.00000000000E+00  0.00000000000E+00  0.65999999802E+01  0.66000000000E+01  0.51109989000E-03 0.  1.
     -623   -1    0    0    0    0  0.00000000000E+00  0.00000000000E+00  0.75637274222E-11  0.17124000000E+03  0.17124000000E+03 0.  1.
      622    2    1    2    0    0  0.98225408790E-03  0.16578956944E-01  0.63248778545E+01  0.63249708063E+01  0.30000000134E-01 0.  0.
     -611    1    3    3    0    0  0.40794621066E-02  0.95588809769E-02  0.59724504135E+01  0.59724594781E+01  0.51109989000E-03 0.  1.
      611    1    3    3    0    0 -0.30972080187E-02  0.70200759669E-02  0.35242744101E+00  0.35251132828E+00  0.51109989000E-03 0. -1.
       11    1    1    2    0    0  0.18086741711E-02 -0.17962851406E-01  0.27443550797E+00  0.27502917043E+00  0.51109989000E-03 0.  1.
     -623    1    1    2    0    0 -0.27909282580E-02  0.13838944789E-02  0.68662422531E-03  0.17124000003E+03  0.17124000000E+03 0.  1.
</event>
<event>
 7   1  0.1909700E+02  0.9118800E+02  0.7818608E-02  0.1180000E+00
       11   -1    0    0    0    0  0.00000000000E+00  0.00000000000E+00  0.65999999802E+01  0.66000000000E+01  0.51109989000E-03 0.  1.
     -623   -1    0    0    0    0  0.00000000000E+00  0.00000000000E+00  0.75637274222E-11  0.17124000000E+03  0.17124000000E+03 0. -1.
      622    2    1    2    0    0  0.30657367380E-02  0.13619521895E-01  0.64955969350E+01  0.64956812139E+01  0.29999999939E-01 0.  0.
     -611    1    3    3    0    0 -0.73363563471E-02  0.17888739480E-01  0.51807130947E+01  0.51807491987E+01  0.51109989000E-03 0.  1.
      611    1    3    3    0    0  0.10402093085E-01 -0.42692175860E-02  0.13148838404E+01  0.13149320152E+01  0.51109989000E-03 0. -1.
       11    1    1    2    0    0 -0.83214570834E-02 -0.75780626323E-02  0.10370841136E+00  0.10431859608E+00  0.51109989000E-03 0.  1.
     -623    1    1    2    0    0  0.52557203448E-02 -0.60414592651E-02  0.69463243678E-03  0.17124000019E+03  0.17124000000E+03 0. -1.
</event>
<event>
 7   1  0.1909700E+02  0.9118800E+02  0.7818608E-02  0.1180000E+00
       11   -1    0    0    0    0  0.00000000000E+00  0.00000000000E+00  0.65999999802E+01  0.66000000000E+01  0.51109989000E-03 0. -1.
     -623   -1    0    0    0    0  0.00000000000E+00  0.00000000000E+00  0.75637274222E-11  0.17124000000E+03  0.17124000000E+03 0.  1.
      622    2    1    2    0    0  0.66116847074E-02 -0.51965294497E-02  0.60090023631E+01  0.60090831346E+01  0.29999999841E-01 0.  0.
     -611    1    3    3    0    0  0.64668242362E-02  0.93012415054E-02  0.10821922467E+01  0.10822516588E+01  0.51109989000E-03 0.  1.
      611    1    3    3    0    0  0.14486047128E-03 -0.14497770955E-01  0.49268101164E+01  0.49268314758E+01  0.51109989000E-03 0. -1.
       11    1    1    2    0    0 -0.74712075638E-02  0.50260109731E-02  0.59084803471E+00  0.59091686477E+00  0.51109989000E-03 0. -1.
     -623    1    1    2    0    0  0.85952285817E-03  0.17051847517E-03  0.14958404394E-03  0.17124000000E+03  0.17124000000E+03 0.  1.
</event>
<event>
 7   1  0.1909700E+02  0.9118800E+02  0.7818608E-02  0.1180000E+00
       11   -1    0    0    0    0  0.00000000000E+00  0.00000000000E+00  0.65999999802E+01  0.66000000000E+01  0.51109989000E-03 0. -1.
     -623   -1    0    0    0    0  0.00000000000E+00  0.00000000000E+00  0.75637274222E-11  0.17124000000E+03  0.17124000000E+03 0. -1.
      622    2    1    2    0    0  0.28023524756E-02 -0.64820693190E-02  0.53960539593E+01  0.53961419738E+01  0.30000000826E-01 0.  0.
     -611    1    3    3    0    0 -0.39709489636E-02 -0.11652611597E-01  0.95096067081E+00  0.95104048833E+00  0.51109989000E-03 0. -1.
      611    1    3    3    0    0  0.67733014392E-02  0.51705422779E-02  0.44450932885E+01  0.44451014855E+01  0.51109989000E-03 0.  1.
       11    1    1    2    0    0 -0.71738760518E-02  0.46044996334E-02  0.12038276696E+01  0.12038579590E+01  0.51109989000E-03 0. -1.
     -623    1    1    2    0    0  0.43715235757E-02  0.18775696868E-02  0.11835022862E-03  0.17124000007E+03  0.17124000000E+03 0. -1.
</event>
<event>
 7   1  0.1909700E+02  0.9118800E+02  0.7818608E-02  0.1180000E+00
       11   -1    0    0    0    0  0.00000000000E+00  0.00000000000E+00  0.65999999802E+01  0.66000000000E+01  0.51109989000E-03 0. -1.
     -623   -1    0    0    0    0  0.00000000000E+00  0.00000000000E+00  0.75637274222E-11  0.17124000000E+03  0.17124000000E+03 0. -1.
      622    2    1    2    0    0 -0.20704935937E-01 -0.25681396285E-01  0.37313165012E+01  0.37315829162E+01  0.30000004466E-01 0.  0.
     -611    1    3    3    0    0 -0.11460048655E-01 -0.88259580226E-02  0.29297532323E+01  0.29297889845E+01  0.51109989000E-03 0. -1.
      611    1    3    3    0    0 -0.92448872820E-02 -0.16855438262E-01  0.80156326889E+00  0.80179393176E+00  0.51109989000E-03 0.  1.
       11    1    1    2    0    0  0.20400380865E-01  0.26464959019E-01  0.28682223948E+01  0.28684170786E+01  0.51109989000E-03 0. -1.
     -623    1    1    2    0    0  0.30455508608E-03 -0.78356271703E-03  0.46108176492E-03  0.17124000000E+03  0.17124000000E+03 0. -1.
</event>
<event>
 7   1  0.1909700E+02  0.9118800E+02  0.7818608E-02  0.1180000E+00
       11   -1    0    0    0    0  0.00000000000E+00  0.00000000000E+00  0.65999999802E+01  0.66000000000E+01  0.51109989000E-03 0. -1.
     -623   -1    0    0    0    0  0.00000000000E+00  0.00000000000E+00  0.75637274222E-11  0.17124000000E+03  0.17124000000E+03 0. -1.
      622    2    1    2    0    0  0.82530445640E-03  0.12119777554E-03  0.65079092469E+01  0.65079784466E+01  0.29999998886E-01 0.  0.
     -611    1    3    3    0    0  0.27667535133E-02 -0.94459720488E-02  0.79843097458E+00  0.79849180566E+00  0.51109989000E-03 0.  1.
      611    1    3    3    0    0 -0.19414490569E-02  0.95671698244E-02  0.57094782723E+01  0.57094866409E+01  0.51109989000E-03 0. -1.
       11    1    1    2    0    0 -0.11451516079E-02  0.10464940778E-02  0.92007051733E-01  0.92021548087E-01  0.51109989000E-03 0. -1.
     -623    1    1    2    0    0  0.31984715139E-03 -0.11676918534E-02  0.83680588996E-04  0.17124000000E+03  0.17124000000E+03 0. -1.
</event>
<event>
 7   1  0.1909700E+02  0.9118800E+02  0.7818608E-02  0.1180000E+00
       11   -1    0    0    0    0  0.00000000000E+00  0.00000000000E+00  0.65999999802E+01  0.66000000000E+01  0.51109989000E-03 0. -1.
     -623   -1    0    0    0    0  0.00000000000E+00  0.00000000000E+00  0.75637274222E-11  0.17124000000E+03  0.17124000000E+03 0.  1.
      622    2    1    2    0    0  0.15729813454E-01  0.17731690987E-03  0.56377681252E+01  0.56378698896E+01  0.30000000049E-01 0.  0.
     -611    1    3    3    0    0  0.15730439790E-01  0.13147333889E-01  0.30241429353E+01  0.30242124683E+01  0.51109989000E-03 0. -1.
      611    1    3    3    0    0 -0.62633567878E-06 -0.12970016979E-01  0.26136251899E+01  0.26136574213E+01  0.51109989000E-03 0.  1.
       11    1    1    2    0    0 -0.23933717618E-01  0.43765947891E-02  0.96182203141E+00  0.96212985545E+00  0.51109989000E-03 0. -1.
     -623    1    1    2    0    0  0.82039041711E-02 -0.45539116989E-02  0.40982621544E-03  0.17124000026E+03  0.17124000000E+03 0.  1.
</event>
<event>
 7   1  0.1909700E+02  0.9118800E+02  0.7818608E-02  0.1180000E+00
       11   -1    0    0    0    0  0.00000000000E+00  0.00000000000E+00  0.65999999802E+01  0.66000000000E+01  0.51109989000E-03 0.  1.
     -623   -1    0    0    0    0  0.00000000000E+00  0.00000000000E+00  0.75637274222E-11  0.17124000000E+03  0.17124000000E+03 0. -1.
      622    2    1    2    0    0 -0.21606186445E-03  0.76798997811E-03  0.65962781993E+01  0.65963464675E+01  0.29999999978E-01 0.  0.
     -611    1    3    3    0    0 -0.20714774895E-02 -0.76045553156E-02  0.60113074704E+01  0.60113126591E+01  0.51109989000E-03 0.  1.
      611    1    3    3    0    0  0.18554156250E-02  0.83725452937E-02  0.58497072891E+00  0.58503380841E+00  0.51109989000E-03 0. -1.
       11    1    1    2    0    0 -0.66070761334E-03 -0.61882623424E-03  0.35025085838E-02  0.36535282992E-02  0.51109989000E-03 0.  1.
     -623    1    1    2    0    0  0.87676947785E-03 -0.14916374407E-03  0.21927056448E-03  0.17124000000E+03  0.17124000000E+03 0. -1.
</event>
<event>
 7   1  0.1909700E+02  0.9118800E+02  0.7818608E-02  0.1180000E+00
       11   -1    0    0    0    0  0.00000000000E+00  0.00000000000E+00  0.65999999802E+01  0.66000000000E+01  0.51109989000E-03 0. -1.
     -623   -1    0    0    0    0  0.00000000000E+00  0.00000000000E+00  0.75637274222E-11  0.17124000000E+03  0.17124000000E+03 0. -1.
      622    2    1    2    0    0  0.76054747261E-02  0.22883070236E-02  0.62631085098E+01  0.62631853944E+01  0.30000000310E-01 0.  0.
     -611    1    3    3    0    0  0.16662425375E-02 -0.65717917076E-02  0.34364274397E+00  0.34370999624E+00  0.51109989000E-03 0.  1.
      611    1    3    3    0    0  0.59392321886E-02  0.88600987311E-02  0.59194657658E+01  0.59194753982E+01  0.51109989000E-03 0. -1.
       11    1    1    2    0    0 -0.65972596828E-02 -0.39123278870E-02  0.33672686315E+00  0.33681459549E+00  0.51109989000E-03 0. -1.
     -623    1    1    2    0    0 -0.10082150425E-02  0.16240208637E-02  0.16460794547E-03  0.17124000001E+03  0.17124000000E+03 0. -1.
</event>
<event>
 7   1  0.1909700E+02  0.9118800E+02  0.7818608E-02  0.1180000E+00
       11   -1    0    0    0    0  0.00000000000E+00  0.00000000000E+00  0.65999999802E+01  0.66000000000E+01  0.51109989000E-03 0. -1.
     -623   -1    0    0    0    0  0.00000000000E+00  0.00000000000E+00  0.75637274222E-11  0.17124000000E+03  0.17124000000E+03 0.  1.
      622    2    1    2    0    0  0.36194728238E-03  0.24094420092E-02  0.65359283480E+01  0.65359976520E+01  0.30000000355E-01 0.  0.
     -611    1    3    3    0    0  0.60663751550E-04  0.15192999569E-01  0.47061892675E+01  0.47062138194E+01  0.51109989000E-03 0. -1.
      611    1    3    3    0    0  0.30128353083E-03 -0.12783557560E-01  0.18297390805E+01  0.18297838326E+01  0.51109989000E-03 0.  1.
       11    1    1    2    0    0 -0.28340676062E-03 -0.23035048849E-02  0.63958213686E-01  0.64002349757E-01  0.51109989000E-03 0. -1.
     -623    1    1    2    0    0 -0.78540521664E-04 -0.10593712361E-03  0.11342035205E-03  0.17124000000E+03  0.17124000000E+03 0.  1.
</event>
<event>
 7   1  0.1909700E+02  0.9118800E+02  0.7818608E-02  0.1180000E+00
       11   -1    0    0    0    0  0.00000000000E+00  0.00000000000E+00  0.65999999802E+01  0.66000000000E+01  0.51109989000E-03 0. -1.
     -623   -1    0    0    0    0  0.00000000000E+00  0.00000000000E+00  0.75637274222E-11  0.17124000000E+03  0.17124000000E+03 0.  1.
      622    2    1    2    0    0  0.29245866538E-01 -0.14653956824E-01  0.47618570906E+01  0.47620639444E+01  0.30000000058E-01 0.  0.
     -611    1    3    3    0    0 -0.57353256859E-02 -0.60611313147E-02  0.88868101935E+00  0.88872034221E+00  0.51109989000E-03 0.  1.
      611    1    3    3    0    0  0.34981192224E-01 -0.85928255090E-02  0.38731760713E+01  0.38733436022E+01  0.51109989000E-03 0. -1.
       11    1    1    2    0    0 -0.20033373236E-01  0.27967358374E-01  0.18376132201E+01  0.18379352865E+01  0.51109989000E-03 0. -1.
     -623    1    1    2    0    0 -0.92124933205E-02 -0.13313401541E-01  0.52966650133E-03  0.17124000077E+03  0.17124000000E+03 0.  1.
</event>
<event>
 7   1  0.1909700E+02  0.9118800E+02  0.7818608E-02  0.1180000E+00
       11   -1    0    0    0    0  0.00000000000E+00  0.00000000000E+00  0.65999999802E+01  0.66000000000E+01  0.51109989000E-03 0.  1.
     -623   -1    0    0    0    0  0.00000000000E+00  0.00000000000E+00  0.75637274222E-11  0.17124000000E+03  0.17124000000E+03 0. -1.
      622    2    1    2    0    0  0.62294354041E-02 -0.41318664323E-02  0.64435710475E+01  0.64436452201E+01  0.29999999919E-01 0.  0.
     -611    1    3    3    0    0  0.86720719212E-02 -0.15289018653E-01  0.49131876653E+01  0.49132191336E+01  0.51109989000E-03 0.  1.
      611    1    3    3    0    0 -0.24426365170E-02  0.11157152221E-01  0.15303833822E+01  0.15304260865E+01  0.51109989000E-03 0. -1.
       11    1    1    2    0    0 -0.47969886389E-02  0.46355345387E-02  0.15621156645E+00  0.15635476966E+00  0.51109989000E-03 0.  1.
     -623    1    1    2    0    0 -0.14324467685E-02 -0.50366810427E-03  0.21736288473E-03  0.17124000001E+03  0.17124000000E+03 0. -1.
</event>
<event>
 7   1  0.1909700E+02  0.9118800E+02  0.7818608E-02  0.1180000E+00
       11   -1    0    0    0    0  0.00000000000E+00  0.00000000000E+00  0.65999999802E+01  0.66000000000E+01  0.51109989000E-03 0. -1.
     -623   -1    0    0    0    0  0.00000000000E+00  0.00000000000E+00  0.75637274222E-11  0.17124000000E+03  0.17124000000E+03 0. -1.
      622    2    1    2    0    0  0.46006959630E-02  0.15805679992E-02  0.55386135788E+01  0.55386969622E+01  0.29999999771E-01 0.  0.
     -611    1    3    3    0    0  0.17377508570E-01 -0.68215598399E-03  0.31093693174E+01  0.31094179932E+01  0.51109989000E-03 0. -1.
      611    1    3    3    0    0 -0.12776812607E-01  0.22627239831E-02  0.24292442613E+01  0.24292789690E+01  0.51109989000E-03 0.  1.
       11    1    1    2    0    0 -0.50819131768E-02 -0.39984678917E-03  0.10612906766E+01  0.10613030421E+01  0.51109989000E-03 0. -1.
     -623    1    1    2    0    0  0.48121722139E-03 -0.11807212074E-02  0.95733964176E-04  0.17124000000E+03  0.17124000000E+03 0. -1.
</event>
<event>
 7   1  0.1909700E+02  0.9118800E+02  0.7818608E-02  0.1180000E+00
       11   -1    0    0    0    0  0.00000000000E+00  0.00000000000E+00  0.65999999802E+01  0.66000000000E+01  0.51109989000E-03 0.  1.
     -623   -1    0    0    0    0  0.00000000000E+00  0.00000000000E+00  0.75637274222E-11  0.17124000000E+03  0.17124000000E+03 0. -1.
      622    2    1    2    0    0  0.32218860696E-01 -0.43351440864E-01  0.52162459311E+01  0.52166118329E+01  0.29999999460E-01 0.  0.
     -611    1    3    3    0    0  0.32025403318E-01 -0.45439771611E-01  0.42512159879E+01  0.42515794755E+01  0.51109989000E-03 0.  1.
      611    1    3    3    0    0  0.19345737807E-03  0.20883307465E-02  0.96502994314E+00  0.96503235745E+00  0.51109989000E-03 0. -1.
       11    1    1    2    0    0 -0.32917037456E-01  0.49303858999E-01  0.13821171620E+01  0.13833880556E+01  0.51109989000E-03 0.  1.
     -623    1    1    2    0    0  0.69817676781E-03 -0.59524181454E-02  0.16368884852E-02  0.17124000011E+03  0.17124000000E+03 0. -1.
</event>
<event>
 7   1  0.1909700E+02  0.9118800E+02  0.7818608E-02  0.1180000E+00
       11   -1    0    0    0    0  0.00000000000E+00  0.00000000000E+00  0.65999999802E+01  0.66000000000E+01  0.51109989000E-03 0.  1.
     -623   -1    0    0    0    0  0.00000000000E+00  0.00000000000E+00  0.75637274222E-11  0.17124000000E+03  0.17124000000E+03 0.  1.
      622    2    1    2    0    0  0.15053017934E-03 -0.10425710465E-01  0.62081632191E+01  0.62082444599E+01  0.30000000014E-01 0.  0.
     -611    1    3    3    0    0 -0.22340986540E-02 -0.16858863653E-01  0.57873135911E+01  0.57873386004E+01  0.51109989000E-03 0.  1.
      611    1    3    3    0    0  0.23846288333E-02  0.64331531884E-02  0.42084962804E+00  0.42090585950E+00  0.51109989000E-03 0. -1.
       11    1    1    2    0    0  0.50148289404E-03  0.10812256887E-01  0.39160565615E+00  0.39175554563E+00  0.51109989000E-03 0.  1.
     -623    1    1    2    0    0 -0.65201307320E-03 -0.38654643486E-03  0.23111226858E-03  0.17124000000E+03  0.17124000000E+03 0.  1.
</event>
<event>
 7   1  0.1909700E+02  0.9118800E+02  0.7818608E-02  0.1180000E+00
       11   -1    0    0    0    0  0.00000000000E+00  0.00000000000E+00  0.65999999802E+01  0.66000000000E+01  0.51109989000E-03 0.  1.
     -623   -1    0    0    0    0  0.00000000000E+00  0.00000000000E+00  0.75637274222E-11  0.17124000000E+03  0.17124000000E+03 0. -1.
      622    2    1    2    0    0  0.17234808013E-02 -0.19474410704E-02  0.64863798421E+01  0.64864497392E+01  0.29999999575E-01 0.  0.
     -611    1    3    3    0    0 -0.12183038930E-01  0.50591132483E-02  0.39487962332E+01  0.39488183009E+01  0.51109989000E-03 0.  1.
      611    1    3    3    0    0  0.13906519731E-01 -0.70065543187E-02  0.25375836089E+01  0.25376314383E+01  0.51109989000E-03 0. -1.
       11    1    1    2    0    0 -0.24431363133E-02  0.51351329257E-03  0.11352165434E+00  0.11355025248E+00  0.51109989000E-03 0.  1.
     -623    1    1    2    0    0  0.71965551181E-03  0.14339277781E-02  0.98482974296E-04  0.17124000001E+03  0.17124000000E+03 0. -1.
</event>
<event>
 7   1  0.1909700E+02  0.9118800E+02  0.7818608E-02  0.1180000E+00
       11   -1    0    0    0    0  0.00000000000E+00  0.00000000000E+00  0.65999999802E+01  0.66000000000E+01  0.51109989000E-03 0.  1.
     -623   -1    0    0    0    0  0.00000000000E+00  0.00000000000E+00  0.75637274222E-11  0.17124000000E+03  0.17124000000E+03 0.  1.
      622    2    1    2    0    0 -0.36752926884E-02  0.27443360199E-02  0.56054167642E+01  0.56054989198E+01  0.30000000126E-01 0.  0.
     -611    1    3    3    0    0  0.55375419780E-02 -0.43850793649E-02  0.47207596739E+01  0.47207649860E+01  0.51109989000E-03 0.  1.
      611    1    3    3    0    0 -0.92128346664E-02  0.71294153848E-02  0.88465709033E+00  0.88473393378E+00  0.51109989000E-03 0. -1.
       11    1    1    2    0    0 -0.11533609498E-03 -0.15206747084E-02  0.99449973507E+00  0.99450103571E+00  0.51109989000E-03 0.  1.
     -623    1    1    2    0    0  0.37906287822E-02 -0.12236613106E-02  0.83482776016E-04  0.17124000005E+03  0.17124000000E+03 0.  1.
</event>
<event>
 7   1  0.1909700E+02  0.9118800E+02  0.7818608E-02  0.1180000E+00
       11   -1    0    0    0    0  0.00000000000E+00  0.00000000000E+00  0.65999999802E+01  0.66000000000E+01  0.51109989000E-03 0.  1.
     -623   -1    0    0    0    0  0.00000000000E+00  0.00000000000E+00  0.75637274222E-11  0.17124000000E+03  0.17124000000E+03 0.  1.
      622    2    1    2    0    0  0.30715678675E-02 -0.13533402290E-01  0.31793459281E+01  0.31795177493E+01  0.29999998601E-01 0.  0.
     -611    1    3    3    0    0 -0.59031561364E-02 -0.14673283132E-01  0.28587416783E+01  0.28587854758E+01  0.51109989000E-03 0.  1.
      611    1    3    3    0    0  0.89747240039E-02  0.11398808413E-02  0.32060424982E+00  0.32073227344E+00  0.51109989000E-03 0. -1.
       11    1    1    2    0    0 -0.58937507296E-02  0.13879739091E-01  0.34204489473E+01  0.34204822241E+01  0.51109989000E-03 0.  1.
     -623    1    1    2    0    0  0.28221828594E-02 -0.34633678876E-03  0.20510197645E-03  0.17124000002E+03  0.17124000000E+03 0.  1.
</event>
<event>
 7   1  0.1909700E+02  0.9118800E+02  0.7818608E-02  0.1180000E+00
       11   -1    0    0    0    0  0.00000000000E+00  0.00000000000E+00  0.65999999802E+01  0.66000000000E+01  0.51109989000E-03 0. -1.
     -623   -1    0    0    0    0  0.00000000000E+00  0.00000000000E+00  0.75637274222E-11  0.17124000000E+03  0.17124000000E+03 0. -1.
      622    2    1    2    0    0 -0.99861649955E-02 -0.30196551474E-02  0.38595281115E+01  0.38596588043E+01  0.29999999720E-01 0.  0.
     -611    1    3    3    0    0 -0.10866566796E-01 -0.15068679551E-01  0.28003563673E+01  0.28004180389E+01  0.51109989000E-03 0. -1.
      611    1    3    3    0    0  0.88040180096E-03  0.12049024403E-01  0.10591717442E+01  0.10592407654E+01  0.51109989000E-03 0.  1.
       11    1    1    2    0    0  0.90624405180E-02  0.44750104417E-02  0.27403224972E+01  0.27403411837E+01  0.51109989000E-03 0. -1.
     -623    1    1    2    0    0  0.92372448597E-03 -0.14553552917E-02  0.14936827596E-03  0.17124000001E+03  0.17124000000E+03 0. -1.
</event>
<event>
 7   1  0.1909700E+02  0.9118800E+02  0.7818608E-02  0.1180000E+00
       11   -1    0    0    0    0  0.00000000000E+00  0.00000000000E+00  0.65999999802E+01  0.66000000000E+01  0.51109989000E-03 0. -1.
     -623   -1    0    0    0    0  0.00000000000E+00  0.00000000000E+00  0.75637274222E-11  0.17124000000E+03  0.17124000000E+03 0.  1.
      622    2    1    2    0    0  0.00000000000E+00  0.00000000000E+00  0.65928574810E+01  0.65929257363E+01  0.29999999955E-01 0.  0.
     -611    1    3    3    0    0 -0.80755568751E-02 -0.65226609841E-02  0.91952837849E+00  0.91958711376E+00  0.51109989000E-03 0.  1.
      611    1    3    3    0    0  0.80755568751E-02  0.65226609841E-02  0.56733291025E+01  0.56733386225E+01  0.51109989000E-03 0. -1.
       11    1    1    2    0    0  0.34028379719E-03 -0.43172738238E-03  0.74122262453E-02  0.74501342118E-02  0.51109989000E-03 0.  1.
     -623    1    1    2    0    0 -0.34028379719E-03  0.43172738238E-03  0.10614053943E-03  0.17124000000E+03  0.17124000000E+03 0.  1.
</event>
<event>
 7   1  0.1909700E+02  0.9118800E+02  0.7818608E-02  0.1180000E+00
       11   -1    0    0    0    0  0.00000000000E+00  0.00000000000E+00  0.65999999802E+01  0.66000000000E+01  0.51109989000E-03 0.  1.
     -623   -1    0    0    0    0  0.00000000000E+00  0.00000000000E+00  0.75637274222E-11  0.17124000000E+03  0.17124000000E+03 0. -1.
      622    2    1    2    0    0 -0.17115308592E-02  0.28728015458E-02  0.60820714821E+01  0.60821463889E+01  0.29999999986E-01 0.  0.
     -611    1    3    3    0    0 -0.38742832140E-02  0.62500215860E-02  0.36970263947E+00  0.36977611563E+00  0.51109989000E-03 0. -1.
      611    1    3    3    0    0  0.21627523548E-02 -0.33772200402E-02  0.57123688426E+01  0.57123702732E+01  0.51109989000E-03 0.  1.
       11    1    1    2    0    0  0.22897359682E-02 -0.30577586305E-02  0.51783926439E+00  0.51785360647E+00  0.51109989000E-03 0.  1.
     -623    1    1    2    0    0 -0.57820510792E-03  0.18495708304E-03  0.89230181130E-04  0.17124000000E+03  0.17124000000E+03 0. -1.
</event>
<event>
 7   1  0.1909700E+02  0.9118800E+02  0.7818608E-02  0.1180000E+00
       11   -1    0    0    0    0  0.00000000000E+00  0.00000000000E+00  0.65999999802E+01  0.66000000000E+01  0.51109989000E-03 0. -1.
     -623   -1    0    0    0    0  0.00000000000E+00  0.00000000000E+00  0.75637274222E-11  0.17124000000E+03  0.17124000000E+03 0.  1.
      622    2    1    2    0    0  0.31997033430E-02  0.95980741612E-02  0.61775837569E+01  0.61776648852E+01  0.29999999827E-01 0.  0.
     -611    1    3    3    0    0  0.87123070776E-03 -0.95902255879E-02  0.34074854140E+01  0.34074990593E+01  0.51109989000E-03 0.  1.
      611    1    3    3    0    0  0.23284726352E-02  0.19188299749E-01  0.27700983429E+01  0.27701658259E+01  0.51109989000E-03 0. -1.
       11    1    1    2    0    0 -0.96454516807E-02 -0.68162339534E-02  0.42216948414E+00  0.42233497409E+00  0.51109989000E-03 0. -1.
     -623    1    1    2    0    0  0.64457483395E-02 -0.27818402025E-02  0.24674262510E-03  0.17124000014E+03  0.17124000000E+03 0.  1.
</event>
<event>
 7   1  0.1909700E+02  0.9118800E+02  0.7818608E-02  0.1180000E+00
       11   -1    0    0    0    0  0.00000000000E+00  0.00000000000E+00  0.65999999802E+01  0.66000000000E+01  0.51109989000E-03 0. -1.
     -623   -1    0    0    0    0  0.00000000000E+00  0.00000000000E+00  0.75637274222E-11  0.17124000000E+03  0.17124000000E+03 0. -1.
      622    2    1    2    0    0 -0.12328807320E-02 -0.50735590548E-03  0.65814686369E+01  0.65815371453E+01  0.30000000194E-01 0.  0.
     -611    1    3    3    0    0  0.56241538733E-02 -0.14991635201E-02  0.62145415224E+01  0.62145442692E+01  0.51109989000E-03 0. -1.
      611    1    3    3    0    0 -0.68570346053E-02  0.99180761458E-03  0.36692711445E+00  0.36699287615E+00  0.51109989000E-03 0.  1.
       11    1    1    2    0    0  0.12374149066E-02 -0.22715319834E-04  0.18414240010E-01  0.18462859136E-01  0.51109989000E-03 0. -1.
     -623    1    1    2    0    0 -0.45341756237E-05  0.53007122490E-03  0.11710867693E-03  0.17124000000E+03  0.17124000000E+03 0. -1.
</event>
<event>
 7   1  0.1909700E+02  0.9118800E+02  0.7818608E-02  0.1180000E+00
       11   -1    0    0    0    0  0.00000000000E+00  0.00000000000E+00  0.65999999802E+01  0.66000000000E+01  0.51109989000E-03 0.  1.
     -623   -1    0    0    0    0  0.00000000000E+00  0.00000000000E+00  0.75637274222E-11  0.17124000000E+03  0.17124000000E+03 0. -1.
      622    2    1    2    0    0 -0.37869880355E-02  0.28473961396E-02  0.57063116439E+01  0.57063924704E+01  0.29999998793E-01 0.  0.
     -611    1    3    3    0    0  0.23167023049E-02  0.15509711924E-01  0.24318216281E+01  0.24318722439E+01  0.51109989000E-03 0. -1.
      611    1    3    3    0    0 -0.61036903403E-02 -0.12662315784E-01  0.32744900157E+01  0.32745202265E+01  0.51109989000E-03 0.  1.
       11    1    1    2    0    0 -0.37398092342E-02 -0.38178311345E-02  0.89359123121E+00  0.89360735881E+00  0.51109989000E-03 0.  1.
     -623    1    1    2    0    0  0.75267972714E-02  0.97043499359E-03  0.97102512059E-04  0.17124000017E+03  0.17124000000E+03 0. -1.
</event>
<event>
 7   1  0.1909700E+02  0.9118800E+02  0.7818608E-02  0.1180000E+00
       11   -1    0    0    0    0  0.00000000000E+00  0.00000000000E+00  0.65999999802E+01  0.66000000000E+01  0.51109989000E-03 0. -1.
     -623   -1    0    0    0    0  0.00000000000E+00  0.00000000000E+00  0.75637274222E-11  0.17124000000E+03  0.17124000000E+03 0. -1.
      622    2    1    2    0    0  0.37772512509E-02 -0.28603248847E-03  0.65276413577E+01  0.65277113940E+01  0.30000000008E-01 0.  0.
     -611    1    3    3    0    0  0.15497949644E-01 -0.63179816023E-02  0.41007022077E+01  0.41007363925E+01  0.51109989000E-03 0. -1.
      611    1    3    3    0    0 -0.11720698393E-01  0.60319491139E-02  0.24269391500E+01  0.24269750015E+01  0.51109989000E-03 0.  1.
       11    1    1    2    0    0  0.25467414797E-02 -0.16821130989E-02  0.72222204762E-01  0.72288474042E-01  0.51109989000E-03 0. -1.
     -623    1    1    2    0    0 -0.63239927328E-02  0.19681455875E-02  0.13641400104E-03  0.17124000013E+03  0.17124000000E+03 0. -1.
</event>
<event>
 7   1  0.1909700E+02  0.9118800E+02  0.7818608E-02  0.1180000E+00
       11   -1    0    0    0    0  0.00000000000E+00  0.00000000000E+00  0.65999999802E+01  0.66000000000E+01  0.51109989000E-03 0. -1.
     -623   -1    0    0    0    0  0.00000000000E+00  0.00000000000E+00  0.75637274222E-11  0.17124000000E+03  0.17124000000E+03 0.  1.
      622    2    1    2    0    0 -0.30173978528E-03  0.19827750740E-02  0.63478956902E+01  0.63479668963E+01  0.30000000020E-01 0.  0.
     -611    1    3    3    0    0 -0.61067017887E-02  0.11008618068E-01  0.13293330294E+01  0.13293927358E+01  0.51109989000E-03 0.  1.
      611    1    3    3    0    0  0.58049620035E-02 -0.90258429945E-02  0.50185626608E+01  0.50185741606E+01  0.51109989000E-03 0. -1.
       11    1    1    2    0    0  0.18965348293E-03 -0.19639483864E-02  0.25202485878E+00  0.25203310045E+00  0.51109989000E-03 0. -1.
     -623    1    1    2    0    0  0.11208630250E-03 -0.18826688604E-04  0.79428019021E-04  0.17124000000E+03  0.17124000000E+03 0.  1.
</event>
<event>
 7   1  0.1909700E+02  0.9118800E+02  0.7818608E-02  0.1180000E+00
       11   -1    0    0    0    0  0.00000000000E+00  0.00000000000E+00  0.65999999802E+01  0.66000000000E+01  0.51109989000E-03 0. -1.
     -623   -1    0    0    0    0  0.00000000000E+00  0.00000000000E+00  0.75637274222E-11  0.17124000000E+03  0.17124000000E+03 0. -1.
      622    2    1    2    0    0 -0.14581518521E-03 -0.35329653033E-02  0.42825409334E+01  0.42826474697E+01  0.29999999987E-01 0.  0.
     -611    1    3    3    0    0  0.11936287101E-01 -0.67728969989E-02  0.32744583941E+01  0.32744871939E+01  0.51109989000E-03 0. -1.
      611    1    3    3    0    0 -0.12082102286E-01  0.32399316956E-02  0.10080825394E+01  0.10081602758E+01  0.51109989000E-03 0.  1.
       11    1    1    2    0    0  0.13337379778E-03  0.26918770987E-02  0.23173509032E+01  0.23173525269E+01  0.51109989000E-03 0. -1.
     -623    1    1    2    0    0  0.12441387480E-04  0.84108820574E-03  0.10814224086E-03  0.17124000000E+03  0.17124000000E+03 0. -1.
</event>
<event>
 7   1  0.1909700E+02  0.9118800E+02  0.7818608E-02  0.1180000E+00
       11   -1    0    0    0    0  0.00000000000E+00  0.00000000000E+00  0.65999999802E+01  0.66000000000E+01  0.51109989000E-03 0. -1.
     -623   -1    0    0    0    0  0.00000000000E+00  0.00000000000E+00  0.75637274222E-11  0.17124000000E+03  0.17124000000E+03 0. -1.
      622    2    1    2    0    0  0.44053195597E-02 -0.14534226255E-03  0.57895167117E+01  0.57895961157E+01  0.29999999724E-01 0.  0.
     -611    1    3    3    0    0  0.12696929562E-01  0.95287454625E-02  0.41242526654E+01  0.41242832490E+01  0.51109989000E-03 0. -1.
      611    1    3    3    0    0 -0.82916100022E-02 -0.96740877250E-02  0.16652640463E+01  0.16653128666E+01  0.51109989000E-03 0.  1.
       11    1    1    2    0    0 -0.76271182784E-03  0.71253635888E-03  0.81040301641E+00  0.81040384974E+00  0.51109989000E-03 0. -1.
     -623    1    1    2    0    0 -0.36426077280E-02 -0.56719409647E-03  0.80257250682E-04  0.17124000004E+03  0.17124000000E+03 0. -1.
</event>
<event>
 7   1  0.1909700E+02  0.9118800E+02  0.7818608E-02  0.1180000E+00
       11   -1    0    0    0    0  0.00000000000E+00  0.00000000000E+00  0.65999999802E+01  0.66000000000E+01  0.51109989000E-03 0. -1.
     -623   -1    0    0    0    0  0.00000000000E+00  0.00000000000E+00  0.75637274222E-11  0.17124000000E+03  0.17124000000E+03 0. -1.
      622    2    1    2    0    0 -0.10550102437E-01  0.77253833069E-01  0.45883999639E+01  0.45891604557E+01  0.30000000016E-01 0.  0.
     -611    1    3    3    0    0  0.58732858884E-02  0.19309321683E-02  0.26021176093E+00  0.26028570021E+00  0.51109989000E-03 0.  1.
      611    1    3    3    0    0 -0.16423388325E-01  0.75322900900E-01  0.43281882030E+01  0.43288747555E+01  0.51109989000E-03 0. -1.
       11    1    1    2    0    0  0.11305890907E-01 -0.76790877194E-01  0.20093408543E+01  0.20108395242E+01  0.51109989000E-03 0. -1.
     -623    1    1    2    0    0 -0.75578846384E-03 -0.46295592372E-03  0.22591590796E-02  0.17124000002E+03  0.17124000000E+03 0. -1.
</event>
<event>
 7   1  0.1909700E+02  0.9118800E+02  0.7818608E-02  0.1180000E+00
       11   -1    0    0    0    0  0.00000000000E+00  0.00000000000E+00  0.65999999802E+01  0.66000000000E+01  0.51109989000E-03 0. -1.
     -623   -1    0    0    0    0  0.00000000000E+00  0.00000000000E+00  0.75637274222E-11  0.17124000000E+03  0.17124000000E+03 0. -1.
      622    2    1    2    0    0  0.70678461260E-03 -0.45326878229E-03  0.65789523242E+01  0.65790207773E+01  0.30000002678E-01 0.  0.
     -611    1    3    3    0    0 -0.46100430524E-02  0.43929874187E-02  0.31732629562E+00  0.31739059525E+00  0.51109989000E-03 0.  1.
      611    1    3    3    0    0  0.53168276650E-02 -0.48462562009E-02  0.62616260285E+01  0.62616301821E+01  0.51109989000E-03 0. -1.
       11    1    1    2    0    0 -0.86569934432E-03  0.71011265328E-03  0.20943086055E-01  0.20979222357E-01  0.51109989000E-03 0. -1.
     -623    1    1    2    0    0  0.15891473172E-03 -0.25684387099E-03  0.10457000223E-03  0.17124000000E+03  0.17124000000E+03 0. -1.
</event>
<event>
 7   1  0.1909700E+02  0.9118800E+02  0.7818608E-02  0.1180000E+00
       11   -1    0    0    0    0  0.00000000000E+00  0.00000000000E+00  0.65999999802E+01  0.66000000000E+01  0.51109989000E-03 0. -1.
     -623   -1    0    0    0    0  0.00000000000E+00  0.00000000000E+00  0.75637274222E-11  0.17124000000E+03  0.17124000000E+03 0.  1.
      622    2    1    2    0    0 -0.41659559755E-03 -0.24894614174E-02  0.65483899390E+01  0.65484591442E+01  0.29999999629E-01 0.  0.
     -611    1    3    3    0    0  0.53542580834E-02 -0.21029769204E-02  0.62951536900E+01  0.62951563390E+01  0.51109989000E-03 0. -1.
      611    1    3    3    0    0 -0.57708536809E-02 -0.38648449706E-03  0.25323624894E+00  0.25330280520E+00  0.51109989000E-03 0.  1.
       11    1    1    2    0    0 -0.16355427359E-02  0.36569093370E-02  0.51382379139E-01  0.51540839085E-01  0.51109989000E-03 0. -1.
     -623    1    1    2    0    0  0.20521383335E-02 -0.11674479194E-02  0.22766185899E-03  0.17124000002E+03  0.17124000000E+03 0.  1.
</event>
<event>
 7   1  0.1909700E+02  0.9118800E+02  0.7818608E-02  0.1180000E+00
       11   -1    0    0    0    0  0.00000000000E+00  0.00000000000E+00  0.65999999802E+01  0.66000000000E+01  0.51109989000E-03 0.  1.
     -623   -1    0    0    0    0  0.00000000000E+00  0.00000000000E+00  0.75637274222E-11  0.17124000000E+03  0.17124000000E+03 0.  1.
      622    2    1    2    0    0 -0.33863192120E-01 -0.33042597351E-01  0.55240443289E+01  0.55243284005E+01  0.30000000432E-01 0.  0.
     -611    1    3    3    0    0 -0.24059554546E-02 -0.86992646603E-02  0.25740725452E+01  0.25740884202E+01  0.51109989000E-03 0. -1.
      611    1    3    3    0    0 -0.31457236665E-01 -0.24343332690E-01  0.29499717838E+01  0.29502399804E+01  0.51109989000E-03 0.  1.
       11    1    1    2    0    0  0.32291978846E-01  0.34773656774E-01  0.10746241691E+01  0.10756715787E+01  0.51109989000E-03 0.  1.
     -623    1    1    2    0    0  0.15712132711E-02 -0.17310594254E-02  0.13314825255E-02  0.17124000002E+03  0.17124000000E+03 0.  1.
</event>
<event>
 7   1  0.1909700E+02  0.9118800E+02  0.7818608E-02  0.1180000E+00
       11   -1    0    0    0    0  0.00000000000E+00  0.00000000000E+00  0.65999999802E+01  0.66000000000E+01  0.51109989000E-03 0. -1.
     -623   -1    0    0    0    0  0.00000000000E+00  0.00000000000E+00  0.75637274222E-11  0.17124000000E+03  0.17124000000E+03 0. -1.
      622    2    1    2    0    0 -0.34056389233E-02  0.13703869029E-01  0.23093483318E+01  0.23095863508E+01  0.29999999923E-01 0.  0.
     -611    1    3    3    0    0  0.81970775097E-02  0.24184142077E-02  0.17038312531E+01  0.17038527639E+01  0.51109989000E-03 0. -1.
      611    1    3    3    0    0 -0.11602716433E-01  0.11285454821E-01  0.60551707869E+00  0.60573358692E+00  0.51109989000E-03 0.  1.
       11    1    1    2    0    0  0.35331645552E-02 -0.99988223986E-02  0.42904004721E+01  0.42904136084E+01  0.51109989000E-03 0. -1.
     -623    1    1    2    0    0 -0.12752563125E-03 -0.37050466330E-02  0.25117596206E-03  0.17124000004E+03  0.17124000000E+03 0. -1.
</event>
<event>
 7   1  0.1909700E+02  0.9118800E+02  0.7818608E-02  0.1180000E+00
       11   -1    0    0    0    0  0.00000000000E+00  0.00000000000E+00  0.65999999802E+01  0.66000000000E+01  0.51109989000E-03 0. -1.
     -623   -1    0    0    0    0  0.00000000000E+00  0.00000000000E+00  0.75637274222E-11  0.17124000000E+03  0.17124000000E+03 0. -1.
      622    2    1    2    0    0  0.23405268026E-02 -0.67708904058E-03  0.64275832319E+01  0.64276537041E+01  0.30000000186E-01 0.  0.
     -611    1    3    3    0    0 -0.18789972062E-02 -0.54650158633E-02  0.61249953598E+01  0.61249981074E+01  0.51109989000E-03 0. -1.
      611    1    3    3    0    0  0.42195240089E-02  0.47879268228E-02  0.30258787216E+00  0.30265559672E+00  0.51109989000E-03 0.  1.
       11    1    1    2    0    0 -0.25417828183E-02  0.19451466389E-03  0.17232667716E+00  0.17234628913E+00  0.51109989000E-03 0. -1.
     -623    1    1    2    0    0  0.20125601354E-03  0.48257437732E-03  0.90065188785E-04  0.17124000000E+03  0.17124000000E+03 0. -1.
</event>
<event>
 7   1  0.1909700E+02  0.9118800E+02  0.7818608E-02  0.1180000E+00
       11   -1    0    0    0    0  0.00000000000E+00  0.00000000000E+00  0.65999999802E+01  0.66000000000E+01  0.51109989000E-03 0.  1.
     -623   -1    0    0    0    0  0.00000000000E+00  0.00000000000E+00  0.75637274222E-11  0.17124000000E+03  0.17124000000E+03 0. -1.
      622    2    1    2    0    0 -0.71118639755E-02 -0.24444002833E-01  0.25279826189E+01  0.25282887907E+01  0.29999999887E-01 0.  0.
     -611    1    3    3    0    0 -0.10430092689E-01 -0.30598620860E-01  0.20902420037E+01  0.20904920372E+01  0.51109989000E-03 0.  1.
      611    1    3    3    0    0  0.33182287130E-02  0.61546180266E-02  0.43774061514E+00  0.43779675345E+00  0.51109989000E-03 0. -1.
       11    1    1    2    0    0 -0.20265545749E-01  0.88929275157E-02  0.40716481379E+01  0.40717083143E+01  0.51109989000E-03 0.  1.
     -623    1    1    2    0    0  0.27377409725E-01  0.15551075317E-01  0.36922347570E-03  0.17124000290E+03  0.17124000000E+03 0. -1.
</event>
<event>
 7   1  0.1909700E+02  0.9118800E+02  0.7818608E-02  0.1180000E+00
       11   -1    0    0    0    0  0.00000000000E+00  0.00000000000E+00  0.65999999802E+01  0.66000000000E+01  0.51109989000E-03 0.  1.
     -623   -1    0    0    0    0  0.00000000000E+00  0.00000000000E+00  0.75637274222E-11  0.17124000000E+03  0.17124000000E+03 0. -1.
      622    2    1    2    0    0 -0.29793850432E-02 -0.36107937985E-03  0.65413223593E+01  0.65413918408E+01  0.29999999928E-01 0.  0.
     -611    1    3    3    0    0 -0.12809066092E-01  0.38847582760E-03  0.13692775692E+01  0.13693376303E+01  0.51109989000E-03 0. -1.
      611    1    3    3    0    0  0.98296810484E-02 -0.74955520745E-03  0.51720447901E+01  0.51720542105E+01  0.51109989000E-03 0.  1.
       11    1    1    2    0    0  0.15553514571E-02  0.17151752425E-03  0.58585028280E-01  0.58608150423E-01  0.51109989000E-03 0.  1.
     -623    1    1    2    0    0  0.14240335874E-02  0.18956185575E-03  0.92589950920E-04  0.17124000001E+03  0.17124000000E+03 0. -1.
</event>
<event>
 7   1  0.1909700E+02  0.9118800E+02  0.7818608E-02  0.1180000E+00
       11   -1    0    0    0    0  0.00000000000E+00  0.00000000000E+00  0.65999999802E+01  0.66000000000E+01  0.51109989000E-03 0.  1.
     -623   -1    0    0    0    0  0.00000000000E+00  0.00000000000E+00  0.75637274222E-11  0.17124000000E+03  0.17124000000E+03 0.  1.
      622    2    1    2    0    0  0.47958536170E-03  0.92378554520E-03  0.65916919794E+01  0.65917603290E+01  0.29999999895E-01 0.  0.
     -611    1    3    3    0    0  0.25482534742E-02 -0.84059592693E-02  0.63809596182E+00  0.63815661985E+00  0.51109989000E-03 0. -1.
      611    1    3    3    0    0 -0.20686681125E-02  0.93297448145E-02  0.59535960176E+01  0.59536037091E+01  0.51109989000E-03 0.  1.
       11    1    1    2    0    0  0.16830745377E-04 -0.74670114568E-03  0.81898139927E-02  0.82396675041E-02  0.51109989000E-03 0. -1.
     -623    1    1    2    0    0 -0.49641610727E-03 -0.17708439990E-03  0.11818415738E-03  0.17124000000E+03  0.17124000000E+03 0.  1.
</event>
<event>
 7   1  0.1909700E+02  0.9118800E+02  0.7818608E-02  0.1180000E+00
       11   -1    0    0    0    0  0.00000000000E+00  0.00000000000E+00  0.65999999802E+01  0.66000000000E+01  0.51109989000E-03 0. -1.
     -623   -1    0    0    0    0  0.00000000000E+00  0.00000000000E+00  0.75637274222E-11  0.17124000000E+03  0.17124000000E+03 0.  1.
      622    2    1    2    0    0  0.86061834734E-03 -0.12395285961E-01  0.59722530320E+01  0.59723413049E+01  0.30000000126E-01 0.  0.
     -611    1    3    3    0    0  0.13497241470E-01 -0.97155595368E-03  0.36801883579E+01  0.36802132723E+01  0.51109989000E-03 0.  1.
      611    1    3    3    0    0 -0.12636623122E-01 -0.11423730007E-01  0.22920646741E+01  0.22921280325E+01  0.51109989000E-03 0. -1.
       11    1    1    2    0    0 -0.22856708084E-02  0.12490748861E-01  0.62753001947E+00  0.62765868883E+00  0.51109989000E-03 0. -1.
     -623    1    1    2    0    0  0.14250524610E-02 -0.95462899103E-04  0.21692854969E-03  0.17124000001E+03  0.17124000000E+03 0.  1.
</event>
<event>
 7   1  0.1909700E+02  0.9118800E+02  0.7818608E-02  0.1180000E+00
       11   -1    0    0    0    0  0.00000000000E+00  0.00000000000E+00  0.65999999802E+01  0.66000000000E+01  0.51109989000E-03 0. -1.
     -623   -1    0    0    0    0  0.00000000000E+00  0.00000000000E+00  0.75637274222E-11  0.17124000000E+03  0.17124000000E+03 0. -1.
      622    2    1    2    0    0  0.15460205249E-01  0.24670997452E-01  0.25319253494E+01  0.25322704537E+01  0.30000000229E-01 0.  0.
     -611    1    3    3    0    0  0.52402387334E-03  0.72077152315E-03  0.13761422662E+01  0.13761426497E+01  0.51109989000E-03 0. -1.
      611    1    3    3    0    0  0.14936181375E-01  0.23950225929E-01  0.11557830832E+01  0.11561278041E+01  0.51109989000E-03 0.  1.
       11    1    1    2    0    0 -0.19541237977E-01 -0.24876590792E-01  0.40676064576E+01  0.40677294969E+01  0.51109989000E-03 0. -1.
     -623    1    1    2    0    0  0.40810327283E-02  0.20559334062E-03  0.46817326783E-03  0.17124000005E+03  0.17124000000E+03 0. -1.
</event>
<event>
 7   1  0.1909700E+02  0.9118800E+02  0.7818608E-02  0.1180000E+00
       11   -1    0    0    0    0  0.00000000000E+00  0.00000000000E+00  0.65999999802E+01  0.66000000000E+01  0.51109989000E-03 0.  1.
     -623   -1    0    0    0    0  0.00000000000E+00  0.00000000000E+00  0.75637274222E-11  0.17124000000E+03  0.17124000000E+03 0. -1.
      622    2    1    2    0    0  0.38163718464E-02  0.38632751805E-02  0.37860748349E+01  0.37861975840E+01  0.30000000157E-01 0.  0.
     -611    1    3    3    0    0  0.20937268778E-03 -0.12929658293E-01  0.13445233752E+01  0.13445856565E+01  0.51109989000E-03 0.  1.
      611    1    3    3    0    0  0.36069991586E-02  0.16792933474E-01  0.24415514597E+01  0.24416119275E+01  0.51109989000E-03 0. -1.
       11    1    1    2    0    0  0.75304901461E-03 -0.35395322537E-01  0.28135766733E+01  0.28137994516E+01  0.51109989000E-03 0.  1.
     -623    1    1    2    0    0 -0.45694208608E-02  0.31532047357E-01  0.34847206053E-03  0.17124000296E+03  0.17124000000E+03 0. -1.
</event>
<event>
 7   1  0.1909700E+02  0.9118800E+02  0.7818608E-02  0.1180000E+00
       11   -1    0    0    0    0  0.00000000000E+00  0.00000000000E+00  0.65999999802E+01  0.66000000000E+01  0.51109989000E-03 0.  1.
     -623   -1    0    0    0    0  0.00000000000E+00  0.00000000000E+00  0.75637274222E-11  0.17124000000E+03  0.17124000000E+03 0. -1.
      622    2    1    2    0    0 -0.45278243104E-03 -0.20268989873E-02  0.65414996786E+01  0.65415687994E+01  0.30000000212E-01 0.  0.
     -611    1    3    3    0    0  0.90367977236E-02 -0.78272683957E-02  0.54336675113E+01  0.54336806876E+01  0.51109989000E-03 0.  1.
      611    1    3    3    0    0 -0.94895801546E-02  0.58003694084E-02  0.11078321673E+01  0.11078881119E+01  0.51109989000E-03 0. -1.
       11    1    1    2    0    0  0.11538224899E-02  0.13987513877E-02  0.58400818153E-01  0.58431195379E-01  0.51109989000E-03 0.  1.
     -623    1    1    2    0    0 -0.70104005868E-03  0.62814760031E-03  0.99480950059E-04  0.17124000000E+03  0.17124000000E+03 0. -1.
</event>
<event>
 7   1  0.1909700E+02  0.9118800E+02  0.7818608E-02  0.1180000E+00
       11   -1    0    0    0    0  0.00000000000E+00  0.00000000000E+00  0.65999999802E+01  0.66000000000E+01  0.51109989000E-03 0.  1.
     -623   -1    0    0    0    0  0.00000000000E+00  0.00000000000E+00  0.75637274222E-11  0.17124000000E+03  0.17124000000E+03 0. -1.
      622    2    1    2    0    0 -0.25499605522E-02 -0.82706570488E-03  0.36605790263E+01  0.36607029372E+01  0.30000000173E-01 0.  0.
     -611    1    3    3    0    0 -0.92402091042E-02  0.22784570831E-02  0.34135184379E+01  0.34135317429E+01  0.51109989000E-03 0.  1.
      611    1    3    3    0    0  0.66902485521E-02 -0.31055227880E-02  0.24706058845E+00  0.24717119429E+00  0.51109989000E-03 0. -1.
       11    1    1    2    0    0  0.24558902907E-02  0.70972719238E-03  0.29392959033E+01  0.29392970594E+01  0.51109989000E-03 0.  1.
     -623    1    1    2    0    0  0.94070263725E-04  0.11733851324E-03  0.12504730571E-03  0.17124000000E+03  0.17124000000E+03 0. -1.
</event>
<event>
 7   1  0.1909700E+02  0.9118800E+02  0.7818608E-02  0.1180000E+00
       11   -1    0    0    0    0  0.00000000000E+00  0.00000000000E+00  0.65999999802E+01  0.66000000000E+01  0.51109989000E-03 0.  1.
     -623   -1    0    0    0    0  0.00000000000E+00  0.00000000000E+00  0.75637274222E-11  0.17124000000E+03  0.17124000000E+03 0. -1.
      622    2    1    2    0    0  0.71617774409E-03 -0.78093909054E-04  0.65961475725E+01  0.65962158332E+01  0.30000000131E-01 0.  0.
     -611    1    3    3    0    0  0.28022938037E-03 -0.14992349407E-01  0.35401737518E+01  0.35402055454E+01  0.51109989000E-03 0. -1.
      611    1    3    3    0    0  0.43594836372E-03  0.14914255498E-01  0.30559738207E+01  0.30560102878E+01  0.51109989000E-03 0.  1.
       11    1    1    2    0    0  0.21685018196E-03  0.90053578073E-03  0.36332742963E-02  0.37841632013E-02  0.51109989000E-03 0.  1.
     -623    1    1    2    0    0 -0.93302792594E-03 -0.82244187169E-03  0.21913440867E-03  0.17124000000E+03  0.17124000000E+03 0. -1.
</event>
<event>
 7   1  0.1909700E+02  0.9118800E+02  0.7818608E-02  0.1180000E+00
       11   -1    0    0    0    0  0.00000000000E+00  0.00000000000E+00  0.65999999802E+01  0.66000000000E+01  0.51109989000E-03 0. -1.
     -623   -1    0    0    0    0  0.00000000000E+00  0.00000000000E+00  0.75637274222E-11  0.17124000000E+03  0.17124000000E+03 0. -1.
      622    2    1    2    0    0  0.17192306783E-02  0.95327655781E-02  0.58738357164E+01  0.58739203138E+01  0.29999999445E-01 0.  0.
     -611    1    3    3    0    0  0.65510173827E-02  0.31557092526E-02  0.54708575766E+01  0.54708624328E+01  0.51109989000E-03 0. -1.
      611    1    3    3    0    0 -0.48317867044E-02  0.63770563255E-02  0.40297813987E+00  0.40305788101E+00  0.51109989000E-03 0.  1.
       11    1    1    2    0    0 -0.26371888333E-03 -0.52318735121E-03  0.72607902788E+00  0.72607944416E+00  0.51109989000E-03 0. -1.
     -623    1    1    2    0    0 -0.14555117946E-02 -0.90095782249E-02  0.85237087812E-04  0.17124000024E+03  0.17124000000E+03 0. -1.
</event>
<event>
 7   1  0.1909700E+02  0.9118800E+02  0.7818608E-02  0.1180000E+00
       11   -1    0    0    0    0  0.00000000000E+00  0.00000000000E+00  0.65999999802E+01  0.66000000000E+01  0.51109989000E-03 0.  1.
     -623   -1    0    0    0    0  0.00000000000E+00  0.00000000000E+00  0.75637274222E-11  0.17124000000E+03  0.17124000000E+03 0. -1.
      622    2    1    2    0    0  0.73817193893E-03  0.60062006586E-02  0.63429589506E+01  0.63430327816E+01  0.29999999873E-01 0.  0.
     -611    1    3    3    0    0 -0.40312019569E-03  0.16762924847E-02  0.22350330265E-01  0.22422554459E-01  0.51109989000E-03 0. -1.
      611    1    3    3    0    0  0.11412921346E-02  0.43299081739E-02  0.63206086203E+01  0.63206102271E+01  0.51109989000E-03 0.  1.
       11    1    1    2    0    0  0.22317356673E-02 -0.89109751615E-03  0.25695537375E+00  0.25696711855E+00  0.51109989000E-03 0.  1.
     -623    1    1    2    0    0 -0.29699076060E-02 -0.51151031403E-02  0.85658186352E-04  0.17124000010E+03  0.17124000000E+03 0. -1.
</event>
<event>
 7   1  0.1909700E+02  0.9118800E+02  0.7818608E-02  0.1180000E+00
       11   -1    0    0    0    0  0.00000000000E+00  0.00000000000E+00  0.65999999802E+01  0.66000000000E+01  0.51109989000E-03 0.  1.
     -623   -1    0    0    0    0  0.00000000000E+00  0.00000000000E+00  0.75637274222E-11  0.17124000000E+03  0.17124000000E+03 0. -1.
      622    2    1    2    0    0  0.12509878454E-02 -0.34709046171E-03  0.65627870719E+01  0.65628557683E+01  0.29999999129E-01 0.  0.
     -611    1    3    3    0    0  0.55441293305E-02  0.10796219774E-01  0.52559411136E+01  0.52559551507E+01  0.51109989000E-03 0.  1.
      611    1    3    3    0    0 -0.42931414851E-02 -0.11143310236E-01  0.13068459583E+01  0.13069006176E+01  0.51109989000E-03 0. -1.
       11    1    1    2    0    0  0.12170602261E-02  0.10725504830E-02  0.37105251911E-01  0.37144212738E-01  0.51109989000E-03 0.  1.
     -623    1    1    2    0    0 -0.24680480714E-02 -0.72546002130E-03  0.10765687520E-03  0.17124000002E+03  0.17124000000E+03 0. -1.
</event>
<event>
 7   1  0.1909700E+02  0.9118800E+02  0.7818608E-02  0.1180000E+00
       11   -1    0    0    0    0  0.00000000000E+00  0.00000000000E+00  0.65999999802E+01  0.66000000000E+01  0.51109989000E-03 0. -1.
     -623   -1    0    0    0    0  0.00000000000E+00  0.00000000000E+00  0.75637274222E-11  0.17124000000E+03  0.17124000000E+03 0. -1.
      622    2    1    2    0    0 -0.21073069589E-01  0.16278428325E-01  0.31900333311E+01  0.31902855225E+01  0.29999999674E-01 0.  0.
     -611    1    3    3    0    0 -0.27137468203E-01  0.19052880982E-01  0.27777097197E+01  0.27779076663E+01  0.51109989000E-03 0.  1.
      611    1    3    3    0    0  0.60643986131E-02 -0.27744526563E-02  0.41232361141E+00  0.41237785618E+00  0.51109989000E-03 0. -1.
       11    1    1    2    0    0  0.10611507468E+00 -0.52310428725E-01  0.34076363961E+01  0.34096895547E+01  0.51109989000E-03 0. -1.
     -623    1    1    2    0    0 -0.85042005101E-01  0.36032000404E-01  0.23302539084E-02  0.17124002492E+03  0.17124000000E+03 0. -1.
</event>
<event>
 7   1  0.1909700E+02  0.9118800E+02  0.7818608E-02  0.1180000E+00
       11   -1    0    0    0    0  0.00000000000E+00  0.00000000000E+00  0.65999999802E+01  0.66000000000E+01  0.51109989000E-03 0.  1.
     -623   -1    0    0    0    0  0.00000000000E+00  0.00000000000E+00  0.75637274222E-11  0.17124000000E+03  0.17124000000E+03 0. -1.
      622    2    1    2    0    0  0.55146651466E-02 -0.33390046385E-02  0.65602528995E+01  0.65603246616E+01  0.30000000043E-01 0.  0.
     -611    1    3    3    0    0  0.12332946267E-01  0.94097740226E-02  0.40851089480E+01  0.40851384338E+01  0.51109989000E-03 0. -1.
      611    1    3    3    0    0 -0.68182811202E-02 -0.12748778661E-01  0.24751439515E+01  0.24751862278E+01  0.51109989000E-03 0.  1.
       11    1    1    2    0    0 -0.87743787629E-02  0.71733234627E-02  0.38018659993E-01  0.39675257043E-01  0.51109989000E-03 0.  1.
     -623    1    1    2    0    0  0.32597136175E-02 -0.38343188249E-02  0.17284220672E-02  0.17124000008E+03  0.17124000000E+03 0. -1.
</event>
<event>
 7   1  0.1909700E+02  0.9118800E+02  0.7818608E-02  0.1180000E+00
       11   -1    0    0    0    0  0.00000000000E+00  0.00000000000E+00  0.65999999802E+01  0.66000000000E+01  0.51109989000E-03 0.  1.
     -623   -1    0    0    0    0  0.00000000000E+00  0.00000000000E+00  0.75637274222E-11  0.17124000000E+03  0.17124000000E+03 0. -1.
      622    2    1    2    0    0  0.10356628741E-02 -0.46408461799E-02  0.65035005761E+01  0.65035715075E+01  0.29999999562E-01 0.  0.
     -611    1    3    3    0    0  0.12965630859E-02  0.12753979186E-01  0.30729334488E+01  0.30729602319E+01  0.51109989000E-03 0. -1.
      611    1    3    3    0    0 -0.26090021179E-03 -0.17394825366E-01  0.34305671273E+01  0.34306112756E+01  0.51109989000E-03 0.  1.
       11    1    1    2    0    0  0.41602054329E-03  0.36943502917E-02  0.96355433270E-01  0.96428481476E-01  0.51109989000E-03 0.  1.
     -623    1    1    2    0    0 -0.14516834177E-02  0.94649588980E-03  0.14396866884E-03  0.17124000001E+03  0.17124000000E+03 0. -1.
</event>
<event>
 7   1  0.1909700E+02  0.9118800E+02  0.7818608E-02  0.1180000E+00
       11   -1    0    0    0    0  0.00000000000E+00  0.00000000000E+00  0.65999999802E+01  0.66000000000E+01  0.51109989000E-03 0.  1.
     -623   -1    0    0    0    0  0.00000000000E+00  0.00000000000E+00  0.75637274222E-11  0.17124000000E+03  0.17124000000E+03 0.  1.
      622    2    1    2    0    0 -0.51633786179E-02 -0.19382565396E-02  0.51025026518E+01  0.51025938236E+01  0.30000000067E-01 0.  0.
     -611    1    3    3    0    0  0.31377530274E-02 -0.53066913220E-02  0.23074188994E+00  0.23082479819E+00  0.51109989000E-03 0. -1.
      611    1    3    3    0    0 -0.83011316453E-02  0.33684347824E-02  0.48717607618E+01  0.48717690254E+01  0.51109989000E-03 0.  1.
       11    1    1    2    0    0 -0.31436995842E-02  0.64829412592E-02  0.14973884928E+01  0.14974059139E+01  0.51109989000E-03 0.  1.
     -623    1    1    2    0    0  0.83070782028E-02 -0.45446847193E-02  0.10883497834E-03  0.17124000026E+03  0.17124000000E+03 0.  1.
</event>
<event>
 7   1  0.1909700E+02  0.9118800E+02  0.7818608E-02  0.1180000E+00
       11   -1    0    0    0    0  0.00000000000E+00  0.00000000000E+00  0.65999999802E+01  0.66000000000E+01  0.51109989000E-03 0. -1.
     -623   -1    0    0    0    0  0.00000000000E+00  0.00000000000E+00  0.75637274222E-11  0.17124000000E+03  0.17124000000E+03 0.  1.
      622    2    1    2    0    0  0.72058028722E-02 -0.29139759182E-02  0.60286523292E+01  0.60287319829E+01  0.29999999065E-01 0.  0.
     -611    1    3    3    0    0  0.63933955665E-02 -0.42601814977E-02  0.60103985012E+01  0.60104034331E+01  0.51109989000E-03 0. -1.
      611    1    3    3    0    0  0.81240730563E-03  0.13462055795E-02  0.18253828002E-01  0.18328549722E-01  0.51109989000E-03 0.  1.
       11    1    1    2    0    0 -0.89021628137E-02 -0.23579575571E-02  0.57119346528E+00  0.57126792705E+00  0.51109989000E-03 0. -1.
     -623    1    1    2    0    0  0.16963599409E-02  0.52719334755E-02  0.15418526479E-03  0.17124000009E+03  0.17124000000E+03 0.  1.
</event>
<event>
 7   1  0.1909700E+02  0.9118800E+02  0.7818608E-02  0.1180000E+00
       11   -1    0    0    0    0  0.00000000000E+00  0.00000000000E+00  0.65999999802E+01  0.66000000000E+01  0.51109989000E-03 0. -1.
     -623   -1    0    0    0    0  0.00000000000E+00  0.00000000000E+00  0.75637274222E-11  0.17124000000E+03  0.17124000000E+03 0. -1.
      622    2    1    2    0    0 -0.28286755147E-02  0.57205889970E-02  0.63101287770E+01  0.63102033175E+01  0.29999998573E-01 0.  0.
     -611    1    3    3    0    0 -0.82158202664E-02  0.11325978084E-01  0.14347791880E+01  0.14348475031E+01  0.51109989000E-03 0.  1.
      611    1    3    3    0    0  0.53871447517E-02 -0.56053890874E-02  0.48753495889E+01  0.48753558144E+01  0.51109989000E-03 0. -1.
       11    1    1    2    0    0  0.15980881335E-02 -0.71547378950E-02  0.28970347795E+00  0.28979667099E+00  0.51109989000E-03 0. -1.
     -623    1    1    2    0    0  0.12305873816E-02  0.14341488972E-02  0.16772431692E-03  0.17124000001E+03  0.17124000000E+03 0. -1.
</event>
<event>
 7   1  0.1909700E+02  0.9118800E+02  0.7818608E-02  0.1180000E+00
       11   -1    0    0    0    0  0.00000000000E+00  0.00000000000E+00  0.65999999802E+01  0.66000000000E+01  0.51109989000E-03 0. -1.
     -623   -1    0    0    0    0  0.00000000000E+00  0.00000000000E+00  0.75637274222E-11  0.17124000000E+03  0.17124000000E+03 0.  1.
      622    2    1    2    0    0  0.25214562182E-01 -0.55119986488E-03  0.33913853771E+01  0.33916118372E+01  0.30000000222E-01 0.  0.
     -611    1    3    3    0    0  0.92758881308E-03  0.90325608017E-03  0.69015652342E-02  0.70405339522E-02  0.51109989000E-03 0. -1.
      611    1    3    3    0    0  0.24286973368E-01 -0.14544559450E-02  0.33844838119E+01  0.33845713032E+01  0.51109989000E-03 0. -1.
       11    1    1    2    0    0 -0.25543943677E-01 -0.22559856939E-04  0.32082864314E+01  0.32083881593E+01  0.51109989000E-03 0. -1.
     -623    1    1    2    0    0  0.32938148115E-03  0.57375972214E-03  0.32816976783E-03  0.17124000000E+03  0.17124000000E+03 0.  1.
</event>
<event>
 7   1  0.1909700E+02  0.9118800E+02  0.7818608E-02  0.1180000E+00
       11   -1    0    0    0    0  0.00000000000E+00  0.00000000000E+00  0.65999999802E+01  0.66000000000E+01  0.51109989000E-03 0.  1.
     -623   -1    0    0    0    0  0.00000000000E+00  0.00000000000E+00  0.75637274222E-11  0.17124000000E+03  0.17124000000E+03 0. -1.
      622    2    1    2    0    0 -0.21435689910E-02 -0.24589782090E-02  0.65755000187E+01  0.65755692634E+01  0.29999999414E-01 0.  0.
     -611    1    3    3    0    0  0.12530112983E-01  0.48026038337E-02  0.34795539562E+01  0.34795798689E+01  0.51109989000E-03 0.  1.
      611    1    3    3    0    0 -0.14673681974E-01 -0.72615820428E-02  0.30959460625E+01  0.30959893945E+01  0.51109989000E-03 0. -1.
       11    1    1    2    0    0  0.92658797875E-03  0.15810922304E-02  0.24356540828E-01  0.24430733131E-01  0.51109989000E-03 0. -1.
     -623    1    1    2    0    0  0.12169810112E-02  0.87788597744E-03  0.14342382378E-03  0.17124000001E+03  0.17124000000E+03 0. -1.
</event>
<event>
 7   1  0.1909700E+02  0.9118800E+02  0.7818608E-02  0.1180000E+00
       11   -1    0    0    0    0  0.00000000000E+00  0.00000000000E+00  0.65999999802E+01  0.66000000000E+01  0.51109989000E-03 0. -1.
     -623   -1    0    0    0    0  0.00000000000E+00  0.00000000000E+00  0.75637274222E-11  0.17124000000E+03  0.17124000000E+03 0.  1.
      622    2    1    2    0    0 -0.26085019393E-01  0.40064670790E-01  0.47932596109E+01  0.47935919000E+01  0.30000000542E-01 0.  0.
     -611    1    3    3    0    0  0.53969150708E-02  0.36668683396E-03  0.64428413961E+00  0.64430705019E+00  0.51109989000E-03 0.  1.
      611    1    3    3    0    0 -0.31481934464E-01  0.39697983956E-01  0.41489754713E+01  0.41492848498E+01  0.51109989000E-03 0. -1.
       11    1    1    2    0    0  0.28843417104E-01 -0.39226305478E-01  0.18057517052E+01  0.18064080735E+01  0.51109989000E-03 0. -1.
     -623    1    1    2    0    0 -0.27583977146E-02 -0.83836530724E-03  0.98866467077E-03  0.17124000003E+03  0.17124000000E+03 0.  1.
</event>
<event>
 7   1  0.1909700E+02  0.9118800E+02  0.7818608E-02  0.1180000E+00
       11   -1    0    0    0    0  0.00000000000E+00  0.00000000000E+00  0.65999999802E+01  0.66000000000E+01  0.51109989000E-03 0. -1.
     -623   -1    0    0    0    0  0.00000000000E+00  0.00000000000E+00  0.75637274222E-11  0.17124000000E+03  0.17124000000E+03 0. -1.
      622    2    1    2    0    0  0.19364272042E-02  0.71595754857E-03  0.65318542822E+01  0.65319235013E+01  0.29999999827E-01 0.  0.
     -611    1    3    3    0    0  0.15175833964E-01 -0.38835096199E-02  0.29307836468E+01  0.29308255548E+01  0.51109989000E-03 0. -1.
      611    1    3    3    0    0 -0.13239406760E-01  0.45994671685E-02  0.36010706355E+01  0.36010979464E+01  0.51109989000E-03 0.  1.
       11    1    1    2    0    0 -0.10884895229E-02 -0.18575840255E-02  0.68040514606E-01  0.68076488433E-01  0.51109989000E-03 0. -1.
     -623    1    1    2    0    0 -0.84793768260E-03  0.11416264764E-02  0.10517903570E-03  0.17124000001E+03  0.17124000000E+03 0. -1.
</event>
<event>
 7   1  0.1909700E+02  0.9118800E+02  0.7818608E-02  0.1180000E+00
       11   -1    0    0    0    0  0.00000000000E+00  0.00000000000E+00  0.65999999802E+01  0.66000000000E+01  0.51109989000E-03 0.  1.
     -623   -1    0    0    0    0  0.00000000000E+00  0.00000000000E+00  0.75637274222E-11  0.17124000000E+03  0.17124000000E+03 0. -1.
      622    2    1    2    0    0 -0.93368755680E-02 -0.13202563169E-02  0.47051235840E+01  0.47052286726E+01  0.30000005736E-01 0.  0.
     -611    1    3    3    0    0 -0.44642171624E-02  0.70425202482E-02  0.37016512006E+00  0.37025937349E+00  0.51109989000E-03 0. -1.
      611    1    3    3    0    0 -0.48726584056E-02 -0.83627765651E-02  0.43349584639E+01  0.43349692991E+01  0.51109989000E-03 0.  1.
       11    1    1    2    0    0  0.89389426499E-02  0.12069599037E-02  0.18947497866E+01  0.18947713257E+01  0.51109989000E-03 0.  1.
     -623    1    1    2    0    0  0.39793292046E-03  0.11329641349E-03  0.12660840261E-03  0.17124000000E+03  0.17124000000E+03 0. -1.
</event>
<event>
 7   1  0.1909700E+02  0.9118800E+02  0.7818608E-02  0.1180000E+00
       11   -1    0    0    0    0  0.00000000000E+00  0.00000000000E+00  0.65999999802E+01  0.66000000000E+01  0.51109989000E-03 0. -1.
     -623   -1    0    0    0    0  0.00000000000E+00  0.00000000000E+00  0.75637274222E-11  0.17124000000E+03  0.17124000000E+03 0.  1.
      622    2    1    2    0    0 -0.12263978244E-02  0.23619902888E-03  0.65191921081E+01  0.65192612543E+01  0.30000000047E-01 0.  0.
     -611    1    3    3    0    0  0.25368700087E-02  0.88480091507E-02  0.58027748488E+01  0.58027821715E+01  0.51109989000E-03 0. -1.
      611    1    3    3    0    0 -0.37632678331E-02 -0.86118101218E-02  0.71641725929E+00  0.71647908280E+00  0.51109989000E-03 0.  1.
       11    1    1    2    0    0  0.11917228547E-02  0.28268908487E-03  0.80727832278E-01  0.80738740658E-01  0.51109989000E-03 0. -1.
     -623    1    1    2    0    0  0.34674970527E-04 -0.51888811390E-03  0.80035632844E-04  0.17124000000E+03  0.17124000000E+03 0.  1.
</event>
<event>
 7   1  0.1909700E+02  0.9118800E+02  0.7818608E-02  0.1180000E+00
       11   -1    0    0    0    0  0.00000000000E+00  0.00000000000E+00  0.65999999802E+01  0.66000000000E+01  0.51109989000E-03 0.  1.
     -623   -1    0    0    0    0  0.00000000000E+00  0.00000000000E+00  0.75637274222E-11  0.17124000000E+03  0.17124000000E+03 0.  1.
      622    2    1    2    0    0 -0.13288932726E-01 -0.99607722303E-02  0.35704002044E+01  0.35705648618E+01  0.30000000292E-01 0.  0.
     -611    1    3    3    0    0 -0.91914006561E-03  0.52067253229E-02  0.23626681178E+01  0.23626740890E+01  0.51109989000E-03 0. -1.
      611    1    3    3    0    0 -0.12369792660E-01 -0.15167497553E-01  0.12077320866E+01  0.12078907728E+01  0.51109989000E-03 0.  1.
       11    1    1    2    0    0  0.14394925875E-01  0.10951190581E-01  0.30293810934E+01  0.30294351309E+01  0.51109989000E-03 0.  1.
     -623    1    1    2    0    0 -0.11059931472E-02 -0.99041834874E-03  0.21868175947E-03  0.17124000001E+03  0.17124000000E+03 0.  1.
</event>
<event>
 7   1  0.1909700E+02  0.9118800E+02  0.7818608E-02  0.1180000E+00
       11   -1    0    0    0    0  0.00000000000E+00  0.00000000000E+00  0.65999999802E+01  0.66000000000E+01  0.51109989000E-03 0.  1.
     -623   -1    0    0    0    0  0.00000000000E+00  0.00000000000E+00  0.75637274222E-11  0.17124000000E+03  0.17124000000E+03 0. -1.
      622    2    1    2    0    0  0.24621916418E-02  0.59023065505E-03  0.65569664132E+01  0.65570355309E+01  0.29999999927E-01 0.  0.
     -611    1    3    3    0    0 -0.46226187620E-02 -0.69563534551E-02  0.57042964977E+01  0.57043026353E+01  0.51109989000E-03 0.  1.
      611    1    3    3    0    0  0.70848104038E-02  0.75465841101E-02  0.85266991543E+00  0.85273289568E+00  0.51109989000E-03 0. -1.
       11    1    1    2    0    0 -0.36056236641E-02 -0.76972809794E-03  0.42802924384E-01  0.42964456949E-01  0.51109989000E-03 0. -1.
     -623    1    1    2    0    0  0.11434320193E-02  0.17949744217E-03  0.23063463352E-03  0.17124000000E+03  0.17124000000E+03 0. -1.
</event>
<event>
 7   1  0.1909700E+02  0.9118800E+02  0.7818608E-02  0.1180000E+00
       11   -1    0    0    0    0  0.00000000000E+00  0.00000000000E+00  0.65999999802E+01  0.66000000000E+01  0.51109989000E-03 0. -1.
     -623   -1    0    0    0    0  0.00000000000E+00  0.00000000000E+00  0.75637274222E-11  0.17124000000E+03  0.17124000000E+03 0.  1.
      622    2    1    2    0    0  0.41109075924E-02  0.59853676567E-02  0.64154965505E+01  0.64155708018E+01  0.29999999682E-01 0.  0.
     -611    1    3    3    0    0  0.51951785808E-02  0.65832345681E-02  0.47627734919E+00  0.47635144949E+00  0.51109989000E-03 0.  1.
      611    1    3    3    0    0 -0.10842709884E-02 -0.59786691149E-03  0.59392192013E+01  0.59392193523E+01  0.51109989000E-03 0. -1.
       11    1    1    2    0    0  0.52885426833E-03 -0.42631489489E-02  0.18437838091E+00  0.18442912648E+00  0.51109989000E-03 0. -1.
     -623    1    1    2    0    0 -0.46397618608E-02 -0.17222187079E-02  0.12504871001E-03  0.17124000007E+03  0.17124000000E+03 0.  1.
</event>
<event>
 7   1  0.1909700E+02  0.9118800E+02  0.7818608E-02  0.1180000E+00
       11   -1    0    0    0    0  0.00000000000E+00  0.00000000000E+00  0.65999999802E+01  0.66000000000E+01  0.51109989000E-03 0.  1.
     -623   -1    0    0    0    0  0.00000000000E+00  0.00000000000E+00  0.75637274222E-11  0.17124000000E+03  0.17124000000E+03 0.  1.
      622    2    1    2    0    0  0.18478060804E-02 -0.99742334493E-03  0.65151824768E+01  0.65152518843E+01  0.30000000252E-01 0.  0.
     -611    1    3    3    0    0  0.11779751157E-01 -0.10884700912E-01  0.34314497419E+01  0.34314872624E+01  0.51109989000E-03 0.  1.
      611    1    3    3    0    0 -0.99319450767E-02  0.98872775669E-02  0.30837327349E+01  0.30837646219E+01  0.51109989000E-03 0. -1.
       11    1    1    2    0    0 -0.17934098394E-02  0.74360096923E-03  0.84724339306E-01  0.84748121831E-01  0.51109989000E-03 0.  1.
     -623    1    1    2    0    0 -0.54396239193E-04  0.25382237472E-03  0.93170417392E-04  0.17124000000E+03  0.17124000000E+03 0.  1.
</event>
<event>
 7   1  0.1909700E+02  0.9118800E+02  0.7818608E-02  0.1180000E+00
       11   -1    0    0    0    0  0.00000000000E+00  0.00000000000E+00  0.65999999802E+01  0.66000000000E+01  0.51109989000E-03 0. -1.
     -623   -1    0    0    0    0  0.00000000000E+00  0.00000000000E+00  0.75637274222E-11  0.17124000000E+03  0.17124000000E+03 0.  1.
      622    2    1    2    0    0 -0.26362794052E-02 -0.10923425672E-01  0.57703939828E+01  0.57704829077E+01  0.29999999765E-01 0.  0.
     -611    1    3    3    0    0 -0.21937202357E-02 -0.16511815816E-02  0.52803869592E+01  0.52803876977E+01  0.51109989000E-03 0. -1.
      611    1    3    3    0    0 -0.44255916947E-03 -0.92722440907E-02  0.49000702367E+00  0.49009520997E+00  0.51109989000E-03 0.  1.
       11    1    1    2    0    0  0.35233730953E-02  0.10527665672E-01  0.82944263851E+00  0.82951708704E+00  0.51109989000E-03 0. -1.
     -623    1    1    2    0    0 -0.88709368898E-03  0.39576000473E-03  0.16335647562E-03  0.17124000000E+03  0.17124000000E+03 0.  1.
</event>
<event>
 7   1  0.1909700E+02  0.9118800E+02  0.7818608E-02  0.1180000E+00
       11   -1    0    0    0    0  0.00000000000E+00  0.00000000000E+00  0.65999999802E+01  0.66000000000E+01  0.51109989000E-03 0.  1.
     -623   -1    0    0    0    0  0.00000000000E+00  0.00000000000E+00  0.75637274222E-11  0.17124000000E+03  0.17124000000E+03 0. -1.
      622    2    1    2    0    0  0.17706790289E-01 -0.63498019524E-02  0.65406115079E+01  0.65407073584E+01  0.30000001370E-01 0.  0.
     -611    1    3    3    0    0  0.41734375470E-02  0.32589831926E-02  0.50590287129E+01  0.50590315098E+01  0.51109989000E-03 0.  1.
      611    1    3    3    0    0  0.13533352742E-01 -0.96087851449E-02  0.14815827950E+01  0.14816758486E+01  0.51109989000E-03 0. -1.
       11    1    1    2    0    0 -0.14185083128E-01  0.12079811714E-01  0.56286745370E-01  0.59292473053E-01  0.51109989000E-03 0.  1.
     -623    1    1    2    0    0 -0.35217071840E-02 -0.57300097536E-02  0.31017185382E-02  0.17124000016E+03  0.17124000000E+03 0. -1.
</event>
<event>
 7   1  0.1909700E+02  0.9118800E+02  0.7818608E-02  0.1180000E+00
       11   -1    0    0    0    0  0.00000000000E+00  0.00000000000E+00  0.65999999802E+01  0.66000000000E+01  0.51109989000E-03 0. -1.
     -623   -1    0    0    0    0  0.00000000000E+00  0.00000000000E+00  0.75637274222E-11  0.17124000000E+03  0.17124000000E+03 0. -1.
      622    2    1    2    0    0  0.17442872272E-02 -0.23500865378E-01  0.51393626983E+01  0.51395042833E+01  0.29999996510E-01 0.  0.
     -611    1    3    3    0    0 -0.92554983473E-02  0.27380289704E-02  0.12200697287E+01  0.12201080137E+01  0.51109989000E-03 0.  1.
      611    1    3    3    0    0  0.10999785575E-01 -0.26238894348E-01  0.39192929697E+01  0.39193962696E+01  0.51109989000E-03 0. -1.
       11    1    1    2    0    0  0.24783182693E-01  0.81370923134E-01  0.14580045945E+01  0.14604838555E+01  0.51109989000E-03 0. -1.
     -623    1    1    2    0    0 -0.26527469923E-01 -0.57870057720E-01  0.26326796325E-02  0.17124001185E+03  0.17124000000E+03 0. -1.
</event>
<event>
 7   1  0.1909700E+02  0.9118800E+02  0.7818608E-02  0.1180000E+00
       11   -1    0    0    0    0  0.00000000000E+00  0.00000000000E+00  0.65999999802E+01  0.66000000000E+01  0.51109989000E-03 0. -1.
     -623   -1    0    0    0    0  0.00000000000E+00  0.00000000000E+00  0.75637274222E-11  0.17124000000E+03  0.17124000000E+03 0.  1.
      622    2    1    2    0    0 -0.95853331684E-03 -0.20902561105E-02  0.65824823163E+01  0.65825510809E+01  0.29999999771E-01 0.  0.
     -611    1    3    3    0    0  0.36291003327E-02 -0.11841915474E-01  0.55214002652E+01  0.55214141804E+01  0.51109989000E-03 0. -1.
      611    1    3    3    0    0 -0.45876336495E-02  0.97516593637E-02  0.10610820511E+01  0.10611369005E+01  0.51109989000E-03 0.  1.
       11    1    1    2    0    0  0.15478235815E-02  0.13728073032E-02  0.17318289551E-01  0.17448917782E-01  0.51109989000E-03 0. -1.
     -623    1    1    2    0    0 -0.58929026481E-03  0.71744880695E-03  0.19937565836E-03  0.17124000000E+03  0.17124000000E+03 0.  1.
</event>
<event>
 7   1  0.1909700E+02  0.9118800E+02  0.7818608E-02  0.1180000E+00
       11   -1    0    0    0    0  0.00000000000E+00  0.00000000000E+00  0.65999999802E+01  0.66000000000E+01  0.51109989000E-03 0. -1.
     -623   -1    0    0    0    0  0.00000000000E+00  0.00000000000E+00  0.75637274222E-11  0.17124000000E+03  0.17124000000E+03 0. -1.
      622    2    1    2    0    0  0.71016366222E-02 -0.66293686506E-03  0.62753540041E+01  0.62754297661E+01  0.29999999725E-01 0.  0.
     -611    1    3    3    0    0  0.17248247504E-01  0.16892870691E-02  0.51008629356E+01  0.51008924028E+01  0.51109989000E-03 0. -1.
      611    1    3    3    0    0 -0.10146610881E-01 -0.23522239341E-02  0.11744910685E+01  0.11745373633E+01  0.51109989000E-03 0.  1.
       11    1    1    2    0    0 -0.58997496641E-02 -0.18867395785E-02  0.32451069116E+00  0.32457020308E+00  0.51109989000E-03 0. -1.
     -623    1    1    2    0    0 -0.12018869667E-02  0.25496764444E-02  0.13527741415E-03  0.17124000002E+03  0.17124000000E+03 0. -1.
</event>
<event>
 7   1  0.1909700E+02  0.9118800E+02  0.7818608E-02  0.1180000E+00
       11   -1    0    0    0    0  0.00000000000E+00  0.00000000000E+00  0.65999999802E+01  0.66000000000E+01  0.51109989000E-03 0. -1.
     -623   -1    0    0    0    0  0.00000000000E+00  0.00000000000E+00  0.75637274222E-11  0.17124000000E+03  0.17124000000E+03 0.  1.
      622    2    1    2    0    0  0.56036584498E-03 -0.71849943951E-03  0.65744590563E+01  0.65745275658E+01  0.29999999987E-01 0.  0.
     -611    1    3    3    0    0 -0.13590519795E-02 -0.11129906221E-01  0.55932852114E+01  0.55932964734E+01  0.51109989000E-03 0. -1.
      611    1    3    3    0    0  0.19194178245E-02  0.10411406781E-01  0.98117384484E+00  0.98123109234E+00  0.51109989000E-03 0.  1.
       11    1    1    2    0    0  0.19877556374E-05  0.67732683836E-03  0.25458300835E-01  0.25472437638E-01  0.51109989000E-03 0. -1.
     -623    1    1    2    0    0 -0.56235360025E-03  0.41172600666E-04  0.82627450688E-04  0.17124000000E+03  0.17124000000E+03 0.  1.
</event>
<event>
 7   1  0.1909700E+02  0.9118800E+02  0.7818608E-02  0.1180000E+00
       11   -1    0    0    0    0  0.00000000000E+00  0.00000000000E+00  0.65999999802E+01  0.66000000000E+01  0.51109989000E-03 0.  1.
     -623   -1    0    0    0    0  0.00000000000E+00  0.00000000000E+00  0.75637274222E-11  0.17124000000E+03  0.17124000000E+03 0. -1.
      622    2    1    2    0    0 -0.38501082815E-02  0.31174848586E-02  0.64112858527E+01  0.64113579550E+01  0.29999999765E-01 0.  0.
     -611    1    3    3    0    0 -0.15805592634E-01  0.76085497112E-02  0.39305166347E+01  0.39305558110E+01  0.51109989000E-03 0.  1.
      611    1    3    3    0    0  0.11955484352E-01 -0.44910648526E-02  0.24807692180E+01  0.24808021440E+01  0.51109989000E-03 0. -1.
       11    1    1    2    0    0  0.38742979298E-02 -0.30270513531E-02  0.18857726987E+00  0.18864204505E+00  0.51109989000E-03 0.  1.
     -623    1    1    2    0    0 -0.24189648357E-04 -0.90433505402E-04  0.13685776699E-03  0.17124000000E+03  0.17124000000E+03 0. -1.
</event>
<event>
 7   1  0.1909700E+02  0.9118800E+02  0.7818608E-02  0.1180000E+00
       11   -1    0    0    0    0  0.00000000000E+00  0.00000000000E+00  0.65999999802E+01  0.66000000000E+01  0.51109989000E-03 0.  1.
     -623   -1    0    0    0    0  0.00000000000E+00  0.00000000000E+00  0.75637274222E-11  0.17124000000E+03  0.17124000000E+03 0. -1.
      622    2    1    2    0    0  0.25541987291E-01 -0.27068017191E-01  0.59388306956E+01  0.59390230763E+01  0.29999998847E-01 0.  0.
     -611    1    3    3    0    0  0.21314326012E-01 -0.21349564588E-01  0.24593473496E+01  0.24595324254E+01  0.51109989000E-03 0. -1.
      611    1    3    3    0    0  0.42276612792E-02 -0.57184526032E-02  0.34794833459E+01  0.34794906509E+01  0.51109989000E-03 0.  1.
       11    1    1    2    0    0 -0.20199359236E-01  0.27384200887E-02  0.66066052211E+00  0.66097511281E+00  0.51109989000E-03 0.  1.
     -623    1    1    2    0    0 -0.53426280479E-02  0.24329597095E-01  0.50876414623E-03  0.17124000181E+03  0.17124000000E+03 0. -1.
</event>
<event>
 7   1  0.1909700E+02  0.9118800E+02  0.7818608E-02  0.1180000E+00
       11   -1    0    0    0    0  0.00000000000E+00  0.00000000000E+00  0.65999999802E+01  0.66000000000E+01  0.51109989000E-03 0. -1.
     -623   -1    0    0    0    0  0.00000000000E+00  0.00000000000E+00  0.75637274222E-11  0.17124000000E+03  0.17124000000E+03 0. -1.
      622    2    1    2    0    0 -0.98480741780E-03  0.99007087465E-03  0.65563389641E+01  0.65564077483E+01  0.29999999045E-01 0.  0.
     -611    1    3    3    0    0  0.13664192011E-02  0.13963424811E-01  0.19805110525E+01  0.19805608132E+01  0.51109989000E-03 0.  1.
      611    1    3    3    0    0 -0.23512266189E-02 -0.12973353936E-01  0.45758279116E+01  0.45758469351E+01  0.51109989000E-03 0. -1.
       11    1    1    2    0    0  0.11893486839E-02 -0.17149428139E-02  0.43539274000E-01  0.43592260567E-01  0.51109989000E-03 0.  1.
     -623    1    1    2    0    0 -0.20454126768E-03  0.72487194082E-03  0.12175270230E-03  0.17124000000E+03  0.17124000000E+03 0. -1.
</event>
<event>
 7   1  0.1909700E+02  0.9118800E+02  0.7818608E-02  0.1180000E+00
       11   -1    0    0    0    0  0.00000000000E+00  0.00000000000E+00  0.65999999802E+01  0.66000000000E+01  0.51109989000E-03 0. -1.
     -623   -1    0    0    0    0  0.00000000000E+00  0.00000000000E+00  0.75637274222E-11  0.17124000000E+03  0.17124000000E+03 0.  1.
      622    2    1    2    0    0 -0.18043294617E-02 -0.38888975528E-03  0.65174051776E+01  0.65174744845E+01  0.30000004103E-01 0.  0.
     -611    1    3    3    0    0  0.76517698494E-02 -0.12690617052E-02  0.58119677014E+01  0.58119728994E+01  0.51109989000E-03 0. -1.
      611    1    3    3    0    0 -0.94560993111E-02  0.88017194995E-03  0.70543747626E+00  0.70550158515E+00  0.51109989000E-03 0.  1.
       11    1    1    2    0    0  0.18040868529E-02  0.16002522289E-03  0.82504052464E-01  0.82525512605E-01  0.51109989000E-03 0. -1.
     -623    1    1    2    0    0  0.24260951135E-06  0.22886453255E-03  0.90747435630E-04  0.17124000000E+03  0.17124000000E+03 0.  1.
</event>
<event>
 7   1  0.1909700E+02  0.9118800E+02  0.7818608E-02  0.1180000E+00
       11   -1    0    0    0    0  0.00000000000E+00  0.00000000000E+00  0.65999999802E+01  0.66000000000E+01  0.51109989000E-03 0. -1.
     -623   -1    0    0    0    0  0.00000000000E+00  0.00000000000E+00  0.75637274222E-11  0.17124000000E+03  0.17124000000E+03 0. -1.
      622    2    1    2    0    0 -0.11493201204E-02  0.62789925045E-03  0.65618826612E+01  0.65619513694E+01  0.29999999568E-01 0.  0.
     -611    1    3    3    0    0 -0.75401347493E-03 -0.83706654360E-02  0.59129936314E+01  0.59129996265E+01  0.51109989000E-03 0. -1.
      611    1    3    3    0    0 -0.39530664545E-03  0.89985646865E-02  0.64888902985E+00  0.64895174298E+00  0.51109989000E-03 0.  1.
       11    1    1    2    0    0  0.13577210264E-02  0.12341436380E-02  0.38000915969E-01  0.38048618256E-01  0.51109989000E-03 0. -1.
     -623    1    1    2    0    0 -0.20840090566E-03 -0.18620428887E-02  0.11640100708E-03  0.17124000001E+03  0.17124000000E+03 0. -1.
</event>
<event>
 7   1  0.1909700E+02  0.9118800E+02  0.7818608E-02  0.1180000E+00
       11   -1    0    0    0    0  0.00000000000E+00  0.00000000000E+00  0.65999999802E+01  0.66000000000E+01  0.51109989000E-03 0. -1.
     -623   -1    0    0    0    0  0.00000000000E+00  0.00000000000E+00  0.75637274222E-11  0.17124000000E+03  0.17124000000E+03 0. -1.
      622    2    1    2    0    0  0.61308982009E-04 -0.13022840171E-02  0.65676444236E+01  0.65677130703E+01  0.30000000309E-01 0.  0.
     -611    1    3    3    0    0 -0.45628269507E-02 -0.81436824549E-02  0.60100545859E+01  0.60100618571E+01  0.51109989000E-03 0. -1.
      611    1    3    3    0    0  0.46241359327E-02  0.68413984377E-02  0.55758983766E+00  0.55765121326E+00  0.51109989000E-03 0.  1.
       11    1    1    2    0    0  0.25212643690E-03  0.53341647212E-03  0.32277491935E-01  0.32286929345E-01  0.51109989000E-03 0. -1.
     -623    1    1    2    0    0 -0.31343541890E-03  0.76886754467E-03  0.78066417948E-04  0.17124000000E+03  0.17124000000E+03 0. -1.
</event>
<event>
 7   1  0.1909700E+02  0.9118800E+02  0.7818608E-02  0.1180000E+00
       11   -1    0    0    0    0  0.00000000000E+00  0.00000000000E+00  0.65999999802E+01  0.66000000000E+01  0.51109989000E-03 0. -1.
     -623   -1    0    0    0    0  0.00000000000E+00  0.00000000000E+00  0.75637274222E-11  0.17124000000E+03  0.17124000000E+03 0.  1.
      622    2    1    2    0    0 -0.11274034241E-02  0.23293003588E-02  0.57576869725E+01  0.57577657099E+01  0.29999999905E-01 0.  0.
     -611    1    3    3    0    0 -0.25727744881E-03 -0.13625495889E-01  0.21436640199E+01  0.21437073988E+01  0.51109989000E-03 0. -1.
      611    1    3    3    0    0 -0.87012597530E-03  0.15954796247E-01  0.36140229527E+01  0.36140583111E+01  0.51109989000E-03 0.  1.
       11    1    1    2    0    0  0.53754611323E-03 -0.28978313369E-02  0.84222897610E+00  0.84223428794E+00  0.51109989000E-03 0. -1.
     -623    1    1    2    0    0  0.58985731091E-03  0.56853097805E-03  0.84031429724E-04  0.17124000000E+03  0.17124000000E+03 0.  1.
</event>
<event>
 7   1  0.1909700E+02  0.9118800E+02  0.7818608E-02  0.1180000E+00
       11   -1    0    0    0    0  0.00000000000E+00  0.00000000000E+00  0.65999999802E+01  0.66000000000E+01  0.51109989000E-03 0. -1.
     -623   -1    0    0    0    0  0.00000000000E+00  0.00000000000E+00  0.75637274222E-11  0.17124000000E+03  0.17124000000E+03 0. -1.
      622    2    1    2    0    0 -0.31310995522E-02  0.13290132540E-01  0.57330368911E+01  0.57331316422E+01  0.29999999745E-01 0.  0.
     -611    1    3    3    0    0  0.73660716518E-02 -0.60122987393E-03  0.41431108109E+00  0.41437730829E+00  0.51109989000E-03 0.  1.
      611    1    3    3    0    0 -0.10497171204E-01  0.13891362414E-01  0.53187258100E+01  0.53187543339E+01  0.51109989000E-03 0. -1.
       11    1    1    2    0    0  0.48392825137E-02 -0.87672055061E-02  0.86681029634E+00  0.86686829081E+00  0.51109989000E-03 0. -1.
     -623    1    1    2    0    0 -0.17081829623E-02 -0.45229270307E-02  0.15279404704E-03  0.17124000007E+03  0.17124000000E+03 0. -1.
</event>
<event>
 7   1  0.1909700E+02  0.9118800E+02  0.7818608E-02  0.1180000E+00
       11   -1    0    0    0    0  0.00000000000E+00  0.00000000000E+00  0.65999999802E+01  0.66000000000E+01  0.51109989000E-03 0.  1.
     -623   -1    0    0    0    0  0.00000000000E+00  0.00000000000E+00  0.75637274222E-11  0.17124000000E+03  0.17124000000E+03 0. -1.
      622    2    1    2    0    0  0.36628052945E-02  0.29205705889E-02  0.62432148828E+01  0.62432887182E+01  0.29999999760E-01 0.  0.
     -611    1    3    3    0    0  0.12176781738E-01  0.31013852068E-02  0.11866184423E+01  0.11866850810E+01  0.51109989000E-03 0. -1.
      611    1    3    3    0    0 -0.85139764432E-02 -0.18081461785E-03  0.50565964405E+01  0.50566036372E+01  0.51109989000E-03 0.  1.
       11    1    1    2    0    0  0.78312193742E-02 -0.39680276803E-02  0.35660247699E+00  0.35671089283E+00  0.51109989000E-03 0.  1.
     -623    1    1    2    0    0 -0.11494024669E-01  0.10474570915E-02  0.18262049475E-03  0.17124000039E+03  0.17124000000E+03 0. -1.
</event>
<event>
 7   1  0.1909700E+02  0.9118800E+02  0.7818608E-02  0.1180000E+00
       11   -1    0    0    0    0  0.00000000000E+00  0.00000000000E+00  0.65999999802E+01  0.66000000000E+01  0.51109989000E-03 0. -1.
     -623   -1    0    0    0    0  0.00000000000E+00  0.00000000000E+00  0.75637274222E-11  0.17124000000E+03  0.17124000000E+03 0. -1.
      622    2    1    2    0    0  0.37719531189E-03  0.74607969410E-02  0.61067535542E+01  0.61068318118E+01  0.30000000229E-01 0.  0.
     -611    1    3    3    0    0  0.36803259801E-02  0.87243330594E-02  0.60165973042E+01  0.60166047769E+01  0.51109989000E-03 0. -1.
      611    1    3    3    0    0 -0.33031306682E-02 -0.12635361185E-02  0.90156249951E-01  0.90227034884E-01  0.51109989000E-03 0.  1.
       11    1    1    2    0    0 -0.22116580551E-02  0.93456039773E-02  0.49307357343E+00  0.49316735677E+00  0.51109989000E-03 0. -1.
     -623    1    1    2    0    0  0.18344627434E-02 -0.16806400914E-01  0.17285579709E-03  0.17124000083E+03  0.17124000000E+03 0. -1.
</event>
<event>
 7   1  0.1909700E+02  0.9118800E+02  0.7818608E-02  0.1180000E+00
       11   -1    0    0    0    0  0.00000000000E+00  0.00000000000E+00  0.65999999802E+01  0.66000000000E+01  0.51109989000E-03 0. -1.
     -623   -1    0    0    0    0  0.00000000000E+00  0.00000000000E+00  0.75637274222E-11  0.17124000000E+03  0.17124000000E+03 0. -1.
      622    2    1    2    0    0  0.12912499989E-01  0.22105317200E-02  0.56344202811E+01  0.56345153761E+01  0.29999999476E-01 0.  0.
     -611    1    3    3    0    0 -0.67636744696E-03 -0.51582052557E-02  0.43335568944E+01  0.43335600472E+01  0.51109989000E-03 0. -1.
      611    1    3    3    0    0  0.13588867436E-01  0.73687369758E-02  0.13008633867E+01  0.13009553289E+01  0.51109989000E-03 0.  1.
       11    1    1    2    0    0 -0.10186552541E-01  0.79684384607E-03  0.96543037089E+00  0.96548457422E+00  0.51109989000E-03 0. -1.
     -623    1    1    2    0    0 -0.27259474520E-02 -0.30073755667E-02  0.14932669386E-03  0.17124000005E+03  0.17124000000E+03 0. -1.
</event>
<event>
 7   1  0.1909700E+02  0.9118800E+02  0.7818608E-02  0.1180000E+00
       11   -1    0    0    0    0  0.00000000000E+00  0.00000000000E+00  0.65999999802E+01  0.66000000000E+01  0.51109989000E-03 0. -1.
     -623   -1    0    0    0    0  0.00000000000E+00  0.00000000000E+00  0.75637274222E-11  0.17124000000E+03  0.17124000000E+03 0. -1.
      622    2    1    2    0    0  0.33341143825E-03  0.90022426152E-03  0.65870202969E+01  0.65870886826E+01  0.30000000687E-01 0.  0.
     -611    1    3    3    0    0 -0.87923819362E-03 -0.12074215003E-01  0.50040032046E+01  0.50040178750E+01  0.51109989000E-03 0. -1.
      611    1    3    3    0    0  0.12126496319E-02  0.12974439264E-01  0.15830170922E+01  0.15830708077E+01  0.51109989000E-03 0.  1.
       11    1    1    2    0    0 -0.68046886534E-03 -0.92126726944E-03  0.12850257460E-01  0.12911317159E-01  0.51109989000E-03 0. -1.
     -623    1    1    2    0    0  0.34705742710E-03  0.21043007952E-04  0.12942609002E-03  0.17124000000E+03  0.17124000000E+03 0. -1.
</event>
<event>
 7   1  0.1909700E+02  0.9118800E+02  0.7818608E-02  0.1180000E+00
       11   -1    0    0    0    0  0.00000000000E+00  0.00000000000E+00  0.65999999802E+01  0.66000000000E+01  0.51109989000E-03 0.  1.
     -623   -1    0    0    0    0  0.00000000000E+00  0.00000000000E+00  0.75637274222E-11  0.17124000000E+03  0.17124000000E+03 0. -1.
      622    2    1    2    0    0 -0.59845862797E-02  0.42423724888E-02  0.29792423016E+01  0.29794023737E+01  0.30000000274E-01 0.  0.
     -611    1    3    3    0    0  0.51370923193E-02  0.13771910462E-01  0.10302591539E+01  0.10303641301E+01  0.51109989000E-03 0.  1.
      611    1    3    3    0    0 -0.11121678599E-01 -0.95295379734E-02  0.19489831477E+01  0.19490382436E+01  0.51109989000E-03 0. -1.
       11    1    1    2    0    0  0.11445637877E-01 -0.64877166379E-02  0.36205735865E+01  0.36205975266E+01  0.51109989000E-03 0.  1.
     -623    1    1    2    0    0 -0.54610516022E-02  0.22453441523E-02  0.18409435280E-03  0.17124000010E+03  0.17124000000E+03 0. -1.
</event>
<event>
 7   1  0.1909700E+02  0.9118800E+02  0.7818608E-02  0.1180000E+00
       11   -1    0    0    0    0  0.00000000000E+00  0.00000000000E+00  0.65999999802E+01  0.66000000000E+01  0.51109989000E-03 0. -1.
     -623   -1    0    0    0    0  0.00000000000E+00  0.00000000000E+00  0.75637274222E-11  0.17124000000E+03  0.17124000000E+03 0. -1.
      622    2    1    2    0    0  0.24023333444E-03 -0.32166909497E-02  0.64160912723E+01  0.64161622189E+01  0.29999996437E-01 0.  0.
     -611    1    3    3    0    0 -0.42315351439E-02  0.84632601777E-02  0.51574808226E+01  0.51574895278E+01  0.51109989000E-03 0. -1.
      611    1    3    3    0    0  0.44717684784E-02 -0.11679951127E-01  0.12586104497E+01  0.12586726910E+01  0.51109989000E-03 0.  1.
       11    1    1    2    0    0  0.67108658302E-03  0.23797990305E-02  0.18382044405E+00  0.18383778358E+00  0.51109989000E-03 0. -1.
     -623    1    1    2    0    0 -0.91131991720E-03  0.83689191574E-03  0.88270830499E-04  0.17124000000E+03  0.17124000000E+03 0. -1.
</event>
<event>
 7   1  0.1909700E+02  0.9118800E+02  0.7818608E-02  0.1180000E+00
       11   -1    0    0    0    0  0.00000000000E+00  0.00000000000E+00  0.65999999802E+01  0.66000000000E+01  0.51109989000E-03 0.  1.
     -623   -1    0    0    0    0  0.00000000000E+00  0.00000000000E+00  0.75637274222E-11  0.17124000000E+03  0.17124000000E+03 0. -1.
      622    2    1    2    0    0  0.27872368465E-02 -0.70794252942E-03  0.62401242252E+01  0.62401970014E+01  0.30000000124E-01 0.  0.
     -611    1    3    3    0    0  0.11274208439E-01  0.75807924201E-02  0.16054212526E+01  0.16054788182E+01  0.51109989000E-03 0. -1.
      611    1    3    3    0    0 -0.84869715920E-02 -0.82887349495E-02  0.46347029727E+01  0.46347181832E+01  0.51109989000E-03 0.  1.
       11    1    1    2    0    0 -0.39763106847E-02  0.87824735724E-03  0.35977958725E+00  0.35980299469E+00  0.51109989000E-03 0.  1.
     -623    1    1    2    0    0  0.11890738383E-02 -0.17030482786E-03  0.96168059129E-04  0.17124000000E+03  0.17124000000E+03 0. -1.
</event>
<event>
 7   1  0.1909700E+02  0.9118800E+02  0.7818608E-02  0.1180000E+00
       11   -1    0    0    0    0  0.00000000000E+00  0.00000000000E+00  0.65999999802E+01  0.66000000000E+01  0.51109989000E-03 0. -1.
     -623   -1    0    0    0    0  0.00000000000E+00  0.00000000000E+00  0.75637274222E-11  0.17124000000E+03  0.17124000000E+03 0. -1.
      622    2    1    2    0    0 -0.92942969950E-02  0.65051527024E-02  0.56240834185E+01  0.56241748728E+01  0.30000000124E-01 0.  0.
     -611    1    3    3    0    0 -0.30914899701E-02  0.73844529226E-02  0.53930466985E+01  0.53930526644E+01  0.51109989000E-03 0. -1.
      611    1    3    3    0    0 -0.62028070249E-02 -0.87930022017E-03  0.23103672002E+00  0.23112220837E+00  0.51109989000E-03 0.  1.
       11    1    1    2    0    0  0.99438687539E-02 -0.61610155683E-02  0.97575487062E+00  0.97582512132E+00  0.51109989000E-03 0. -1.
     -623    1    1    2    0    0 -0.64957175189E-03 -0.34413713904E-03  0.16168681669E-03  0.17124000000E+03  0.17124000000E+03 0. -1.
</event>
<event>
 7   1  0.1909700E+02  0.9118800E+02  0.7818608E-02  0.1180000E+00
       11   -1    0    0    0    0  0.00000000000E+00  0.00000000000E+00  0.65999999802E+01  0.66000000000E+01  0.51109989000E-03 0.  1.
     -623   -1    0    0    0    0  0.00000000000E+00  0.00000000000E+00  0.75637274222E-11  0.17124000000E+03  0.17124000000E+03 0.  1.
      622    2    1    2    0    0  0.00000000000E+00  0.00000000000E+00  0.64594802811E+01  0.64595499457E+01  0.30000000036E-01 0.  0.
     -611    1    3    3    0    0  0.18818226234E-02  0.12748547329E-01  0.15804514486E+01  0.15805040682E+01  0.51109989000E-03 0.  1.
      611    1    3    3    0    0 -0.18818226234E-02 -0.12748547329E-01  0.48790288324E+01  0.48790458776E+01  0.51109989000E-03 0. -1.
       11    1    1    2    0    0  0.35807391000E-03  0.35799385561E-03  0.14073284355E+00  0.14073468248E+00  0.51109989000E-03 0.  1.
     -623    1    1    2    0    0 -0.35807391000E-03 -0.35799385561E-03  0.71481504757E-04  0.17124000000E+03  0.17124000000E+03 0.  1.
</event>
<event>
 7   1  0.1909700E+02  0.9118800E+02  0.7818608E-02  0.1180000E+00
       11   -1    0    0    0    0  0.00000000000E+00  0.00000000000E+00  0.65999999802E+01  0.66000000000E+01  0.51109989000E-03 0. -1.
     -623   -1    0    0    0    0  0.00000000000E+00  0.00000000000E+00  0.75637274222E-11  0.17124000000E+03  0.17124000000E+03 0.  1.
      622    2    1    2    0    0 -0.92700295118E-03 -0.77062848884E-02  0.64500965653E+01  0.64501710015E+01  0.30000000502E-01 0.  0.
     -611    1    3    3    0    0 -0.11084795955E-01 -0.11374183635E-01  0.52948378448E+01  0.52948616893E+01  0.51109989000E-03 0. -1.
      611    1    3    3    0    0  0.10157793004E-01  0.36678987465E-02  0.11552587205E+01  0.11553093122E+01  0.51109989000E-03 0.  1.
       11    1    1    2    0    0 -0.37800815750E-02  0.13566939498E-01  0.14916456122E+00  0.14982883037E+00  0.51109989000E-03 0. -1.
     -623    1    1    2    0    0  0.47070845264E-02 -0.58606546079E-02  0.73885209274E-03  0.17124000017E+03  0.17124000000E+03 0.  1.
</event>
<event>
 7   1  0.1909700E+02  0.9118800E+02  0.7818608E-02  0.1180000E+00
       11   -1    0    0    0    0  0.00000000000E+00  0.00000000000E+00  0.65999999802E+01  0.66000000000E+01  0.51109989000E-03 0.  1.
     -623   -1    0    0    0    0  0.00000000000E+00  0.00000000000E+00  0.75637274222E-11  0.17124000000E+03  0.17124000000E+03 0. -1.
      622    2    1    2    0    0 -0.80225438214E-02  0.22329490758E-01  0.48136303665E+01  0.48137823250E+01  0.29999999548E-01 0.  0.
     -611    1    3    3    0    0 -0.13950914400E-01  0.22826279430E-01  0.24803047078E+01  0.24804490262E+01  0.51109989000E-03 0.  1.
      611    1    3    3    0    0  0.59283705782E-02 -0.49678867220E-03  0.23333256587E+01  0.23333332988E+01  0.51109989000E-03 0. -1.
       11    1    1    2    0    0 -0.83031464380E-02 -0.46780017609E-01  0.17855830950E+01  0.17862151502E+01  0.51109989000E-03 0.  1.
     -623    1    1    2    0    0  0.16325690258E-01  0.24450526854E-01  0.78651951533E-03  0.17124000253E+03  0.17124000000E+03 0. -1.
</event>
<event>
 7   1  0.1909700E+02  0.9118800E+02  0.7818608E-02  0.1180000E+00
       11   -1    0    0    0    0  0.00000000000E+00  0.00000000000E+00  0.65999999802E+01  0.66000000000E+01  0.51109989000E-03 0. -1.
     -623   -1    0    0    0    0  0.00000000000E+00  0.00000000000E+00  0.75637274222E-11  0.17124000000E+03  0.17124000000E+03 0. -1.
      622    2    1    2    0    0 -0.36956445692E-02  0.51029253502E-02  0.37376468647E+01  0.37377725698E+01  0.30000000389E-01 0.  0.
     -611    1    3    3    0    0 -0.83341261666E-02 -0.10828953608E-01  0.14009602011E+01  0.14010269341E+01  0.51109989000E-03 0. -1.
      611    1    3    3    0    0  0.46384815974E-02  0.15931878958E-01  0.23366866637E+01  0.23367456356E+01  0.51109989000E-03 0.  1.
       11    1    1    2    0    0 -0.14800048939E-01 -0.24519233111E-01  0.28620819933E+01  0.28622253286E+01  0.51109989000E-03 0. -1.
     -623    1    1    2    0    0  0.18495693510E-01  0.19416307758E-01  0.27112040473E-03  0.17124000210E+03  0.17124000000E+03 0. -1.
</event>
<event>
 7   1  0.1909700E+02  0.9118800E+02  0.7818608E-02  0.1180000E+00
       11   -1    0    0    0    0  0.00000000000E+00  0.00000000000E+00  0.65999999802E+01  0.66000000000E+01  0.51109989000E-03 0. -1.
     -623   -1    0    0    0    0  0.00000000000E+00  0.00000000000E+00  0.75637274222E-11  0.17124000000E+03  0.17124000000E+03 0.  1.
      622    2    1    2    0    0 -0.14516637109E-02  0.13105284540E-02  0.64702858865E+01  0.64703557304E+01  0.30000000516E-01 0.  0.
     -611    1    3    3    0    0 -0.18542131132E-02  0.12359788950E-01  0.53616916478E+01  0.53617062387E+01  0.51109989000E-03 0. -1.
      611    1    3    3    0    0  0.40254940225E-03 -0.11049260496E-01  0.11085942387E+01  0.11086494917E+01  0.51109989000E-03 0.  1.
       11    1    1    2    0    0  0.10804187504E-02 -0.13183339823E-02  0.12963204870E+00  0.12964426165E+00  0.51109989000E-03 0. -1.
     -623    1    1    2    0    0  0.37124496218E-03  0.78055267542E-05  0.82037488641E-04  0.17124000000E+03  0.17124000000E+03 0.  1.
</event>
<event>
 7   1  0.1909700E+02  0.9118800E+02  0.7818608E-02  0.1180000E+00
       11   -1    0    0    0    0  0.00000000000E+00  0.00000000000E+00  0.65999999802E+01  0.66000000000E+01  0.51109989000E-03 0. -1.
     -623   -1    0    0    0    0  0.00000000000E+00  0.00000000000E+00  0.75637274222E-11  0.17124000000E+03  0.17124000000E+03 0. -1.
      622    2    1    2    0    0 -0.10191039636E-01 -0.94780582775E-02  0.49919753751E+01  0.49920849188E+01  0.30000000477E-01 0.  0.
     -611    1    3    3    0    0  0.52870980031E-02  0.76854378204E-02  0.19097475317E+01  0.19097703829E+01  0.51109989000E-03 0.  1.
      611    1    3    3    0    0 -0.15478137639E-01 -0.17163496098E-01  0.30822278434E+01  0.30823145359E+01  0.51109989000E-03 0. -1.
       11    1    1    2    0    0  0.10776484689E-01  0.10601113195E-01  0.16078439343E+01  0.16079150769E+01  0.51109989000E-03 0. -1.
     -623    1    1    2    0    0 -0.58544505366E-03 -0.11230549178E-02  0.18067129308E-03  0.17124000000E+03  0.17124000000E+03 0. -1.
</event>
<event>
 7   1  0.1909700E+02  0.9118800E+02  0.7818608E-02  0.1180000E+00
       11   -1    0    0    0    0  0.00000000000E+00  0.00000000000E+00  0.65999999802E+01  0.66000000000E+01  0.51109989000E-03 0.  1.
     -623   -1    0    0    0    0  0.00000000000E+00  0.00000000000E+00  0.75637274222E-11  0.17124000000E+03  0.17124000000E+03 0. -1.
      622    2    1    2    0    0  0.14979271583E-01  0.50970828012E-02  0.11199504903E+01  0.11204639483E+01  0.30000000036E-01 0.  0.
     -611    1    3    3    0    0  0.53855610481E-02  0.38525078878E-02  0.10248090585E+01  0.10248305780E+01  0.51109989000E-03 0. -1.
      611    1    3    3    0    0  0.95937105348E-02  0.12445749135E-02  0.95141431778E-01  0.95633370287E-01  0.51109989000E-03 0.  1.
       11    1    1    2    0    0 -0.14107831590E-01  0.92397918562E-02  0.54795094714E+01  0.54795354469E+01  0.51109989000E-03 0.  1.
     -623    1    1    2    0    0 -0.87144001470E-03 -0.14336874665E-01  0.54001693687E-03  0.17124000060E+03  0.17124000000E+03 0. -1.
</event>
<event>
 7   1  0.1909700E+02  0.9118800E+02  0.7818608E-02  0.1180000E+00
       11   -1    0    0    0    0  0.00000000000E+00  0.00000000000E+00  0.65999999802E+01  0.66000000000E+01  0.51109989000E-03 0. -1.
     -623   -1    0    0    0    0  0.00000000000E+00  0.00000000000E+00  0.75637274222E-11  0.17124000000E+03  0.17124000000E+03 0. -1.
      622    2    1    2    0    0  0.25713784430E-02  0.11484421778E-02  0.65440715709E+01  0.65441409411E+01  0.29999999796E-01 0.  0.
     -611    1    3    3    0    0 -0.31091160480E-02  0.14890213697E-01  0.31546079366E+01  0.31546446519E+01  0.51109989000E-03 0. -1.
      611    1    3    3    0    0  0.56804944911E-02 -0.13741771519E-01  0.33894636343E+01  0.33894962891E+01  0.51109989000E-03 0.  1.
       11    1    1    2    0    0 -0.49982904076E-02  0.34733056498E-02  0.55524026215E-01  0.55858978396E-01  0.51109989000E-03 0. -1.
     -623    1    1    2    0    0  0.24269119644E-02 -0.46217478277E-02  0.40438256682E-03  0.17124000008E+03  0.17124000000E+03 0. -1.
</event>
<event>
 7   1  0.1909700E+02  0.9118800E+02  0.7818608E-02  0.1180000E+00
       11   -1    0    0    0    0  0.00000000000E+00  0.00000000000E+00  0.65999999802E+01  0.66000000000E+01  0.51109989000E-03 0. -1.
     -623   -1    0    0    0    0  0.00000000000E+00  0.00000000000E+00  0.75637274222E-11  0.17124000000E+03  0.17124000000E+03 0. -1.
      622    2    1    2    0    0  0.28438636894E-04  0.20917265345E-01  0.50379387817E+01  0.50380715260E+01  0.29999999742E-01 0.  0.
     -611    1    3    3    0    0  0.76181525310E-03  0.28692217305E-01  0.40513982411E+01  0.40514999436E+01  0.51109989000E-03 0. -1.
      611    1    3    3    0    0 -0.73337661620E-03 -0.77749519596E-02  0.98654054057E+00  0.98657158237E+00  0.51109989000E-03 0.  1.
       11    1    1    2    0    0  0.58631855698E-02 -0.25819903700E-01  0.15617037839E+01  0.15619282999E+01  0.51109989000E-03 0. -1.
     -623    1    1    2    0    0 -0.58916242067E-02  0.49026383463E-02  0.35741247821E-03  0.17124000017E+03  0.17124000000E+03 0. -1.
</event>
<event>
 7   1  0.1909700E+02  0.9118800E+02  0.7818608E-02  0.1180000E+00
       11   -1    0    0    0    0  0.00000000000E+00  0.00000000000E+00  0.65999999802E+01  0.66000000000E+01  0.51109989000E-03 0.  1.
     -623   -1    0    0    0    0  0.00000000000E+00  0.00000000000E+00  0.75637274222E-11  0.17124000000E+03  0.17124000000E+03 0.  1.
      622    2    1    2    0    0 -0.55824501788E-03 -0.22616827626E-02  0.65924290980E+01  0.65924977693E+01  0.30000000091E-01 0.  0.
     -611    1    3    3    0    0 -0.19621367693E-02 -0.67351829978E-02  0.64208728072E+01  0.64208766598E+01  0.51109989000E-03 0.  1.
      611    1    3    3    0    0  0.14038917514E-02  0.44735002351E-02  0.17155629076E+00  0.17162110954E+00  0.51109989000E-03 0. -1.
       11    1    1    2    0    0  0.12773261420E-02  0.36124935048E-03  0.73661327460E-02  0.75022126791E-02  0.51109989000E-03 0.  1.
     -623    1    1    2    0    0 -0.71908112362E-03  0.19004334141E-02  0.20474368845E-03  0.17124000001E+03  0.17124000000E+03 0.  1.
</event>
<event>
 7   1  0.1909700E+02  0.9118800E+02  0.7818608E-02  0.1180000E+00
       11   -1    0    0    0    0  0.00000000000E+00  0.00000000000E+00  0.65999999802E+01  0.66000000000E+01  0.51109989000E-03 0. -1.
     -623   -1    0    0    0    0  0.00000000000E+00  0.00000000000E+00  0.75637274222E-11  0.17124000000E+03  0.17124000000E+03 0.  1.
      622    2    1    2    0    0  0.39245224055E-02  0.10926483563E-01  0.34682189472E+01  0.34683681258E+01  0.29999999814E-01 0.  0.
     -611    1    3    3    0    0 -0.10037729539E-01  0.14216347643E-01  0.21695764432E+01  0.21696462994E+01  0.51109989000E-03 0.  1.
      611    1    3    3    0    0  0.13962251945E-01 -0.32898640802E-02  0.12986425040E+01  0.12987218263E+01  0.51109989000E-03 0. -1.
       11    1    1    2    0    0 -0.48525026987E-02 -0.94279499072E-02  0.31316138727E+01  0.31316318656E+01  0.51109989000E-03 0. -1.
     -623    1    1    2    0    0  0.92798029376E-03 -0.14985336544E-02  0.16716085387E-03  0.17124000001E+03  0.17124000000E+03 0.  1.
</event>
<event>
 7   1  0.1909700E+02  0.9118800E+02  0.7818608E-02  0.1180000E+00
       11   -1    0    0    0    0  0.00000000000E+00  0.00000000000E+00  0.65999999802E+01  0.66000000000E+01  0.51109989000E-03 0. -1.
     -623   -1    0    0    0    0  0.00000000000E+00  0.00000000000E+00  0.75637274222E-11  0.17124000000E+03  0.17124000000E+03 0.  1.
      622    2    1    2    0    0  0.71036037106E-02 -0.31246801025E-02  0.59168097754E+01  0.59168909186E+01  0.29999999787E-01 0.  0.
     -611    1    3    3    0    0 -0.51482975967E-02 -0.13614631324E-01  0.32100022803E+01  0.32100353213E+01  0.51109989000E-03 0. -1.
      611    1    3    3    0    0  0.12251901307E-01  0.10489951221E-01  0.27068074951E+01  0.27068555974E+01  0.51109989000E-03 0.  1.
       11    1    1    2    0    0 -0.27311960121E-02 -0.17135508161E-03  0.68310332011E+00  0.68310899274E+00  0.51109989000E-03 0. -1.
     -623    1    1    2    0    0 -0.43724076998E-02  0.32960351847E-02  0.86883651316E-04  0.17124000009E+03  0.17124000000E+03 0.  1.
</event>
<event>
 7   1  0.1909700E+02  0.9118800E+02  0.7818608E-02  0.1180000E+00
       11   -1    0    0    0    0  0.00000000000E+00  0.00000000000E+00  0.65999999802E+01  0.66000000000E+01  0.51109989000E-03 0. -1.
     -623   -1    0    0    0    0  0.00000000000E+00  0.00000000000E+00  0.75637274222E-11  0.17124000000E+03  0.17124000000E+03 0.  1.
      622    2    1    2    0    0 -0.57199529556E-02  0.16453954430E-02  0.64976645689E+01  0.64977365501E+01  0.29999999888E-01 0.  0.
     -611    1    3    3    0    0 -0.45966478160E-02  0.14645454359E-01  0.22778595704E+01  0.22779113464E+01  0.51109989000E-03 0.  1.
      611    1    3    3    0    0 -0.11233051396E-02 -0.13000058916E-01  0.42198049985E+01  0.42198252037E+01  0.51109989000E-03 0. -1.
       11    1    1    2    0    0  0.54006153048E-02 -0.23122578602E-02  0.10209328261E+00  0.10226344781E+00  0.51109989000E-03 0. -1.
     -623    1    1    2    0    0  0.31933765109E-03  0.66686241713E-03  0.24212843082E-03  0.17124000000E+03  0.17124000000E+03 0.  1.
</event>
<event>
 7   1  0.1909700E+02  0.9118800E+02  0.7818608E-02  0.1180000E+00
       11   -1    0    0    0    0  0.00000000000E+00  0.00000000000E+00  0.65999999802E+01  0.66000000000E+01  0.51109989000E-03 0.  1.
     -623   -1    0    0    0    0  0.00000000000E+00  0.00000000000E+00  0.75637274222E-11  0.17124000000E+03  0.17124000000E+03 0. -1.
      622    2    1    2    0    0 -0.18209897004E-02 -0.26711249471E-02  0.64180404873E+01  0.64181114160E+01  0.29999999636E-01 0.  0.
     -611    1    3    3    0    0  0.35298412715E-02  0.12732697886E-01  0.22350994402E+01  0.22351385527E+01  0.51109989000E-03 0. -1.
      611    1    3    3    0    0 -0.53508309719E-02 -0.15403822833E-01  0.41829410472E+01  0.41829728632E+01  0.51109989000E-03 0.  1.
       11    1    1    2    0    0  0.46358202674E-02 -0.24382446566E-02  0.18181233099E+00  0.18188848448E+00  0.51109989000E-03 0.  1.
     -623    1    1    2    0    0 -0.28148305669E-02  0.51093696037E-02  0.14716178221E-03  0.17124000010E+03  0.17124000000E+03 0. -1.
</event>
<event>
 7   1  0.1909700E+02  0.9118800E+02  0.7818608E-02  0.1180000E+00
       11   -1    0    0    0    0  0.00000000000E+00  0.00000000000E+00  0.65999999802E+01  0.66000000000E+01  0.51109989000E-03 0.  1.
     -623   -1    0    0    0    0  0.00000000000E+00  0.00000000000E+00  0.75637274222E-11  0.17124000000E+03  0.17124000000E+03 0.  1.
      622    2    1    2    0    0  0.56011846003E-03  0.12997748165E-02  0.65415585754E+01  0.65416275191E+01  0.29999999496E-01 0.  0.
     -611    1    3    3    0    0 -0.27771017652E-02 -0.64296514923E-02  0.39035183144E+00  0.39041499234E+00  0.51109989000E-03 0. -1.
      611    1    3    3    0    0  0.33372202252E-02  0.77294263089E-02  0.61512067440E+01  0.61512125267E+01  0.51109989000E-03 0.  1.
       11    1    1    2    0    0  0.22651033188E-02 -0.52517430860E-04  0.58326221031E-01  0.58372448396E-01  0.51109989000E-03 0.  1.
     -623    1    1    2    0    0 -0.28252217793E-02 -0.12472573866E-02  0.11517916029E-03  0.17124000003E+03  0.17124000000E+03 0.  1.
</event>
<event>
 7   1  0.1909700E+02  0.9118800E+02  0.7818608E-02  0.1180000E+00
       11   -1    0    0    0    0  0.00000000000E+00  0.00000000000E+00  0.65999999802E+01  0.66000000000E+01  0.51109989000E-03 0.  1.
     -623   -1    0    0    0    0  0.00000000000E+00  0.00000000000E+00  0.75637274222E-11  0.17124000000E+03  0.17124000000E+03 0.  1.
      622    2    1    2    0    0 -0.74044246569E-03  0.26503671592E-02  0.65911512954E+01  0.65912201429E+01  0.30000000157E-01 0.  0.
     -611    1    3    3    0    0  0.11262079236E-01  0.30112655745E-02  0.12293966704E+01  0.12294520472E+01  0.51109989000E-03 0. -1.
      611    1    3    3    0    0 -0.12002521701E-01 -0.36089841535E-03  0.53617546251E+01  0.53617680956E+01  0.51109989000E-03 0.  1.
       11    1    1    2    0    0 -0.58562249608E-03  0.17103078580E-02  0.85764473364E-02  0.87797937269E-02  0.51109989000E-03 0.  1.
     -623    1    1    2    0    0  0.13260649620E-02 -0.43606750182E-02  0.27223493629E-03  0.17124000006E+03  0.17124000000E+03 0.  1.
</event>
<event>
 7   1  0.1909700E+02  0.9118800E+02  0.7818608E-02  0.1180000E+00
       11   -1    0    0    0    0  0.00000000000E+00  0.00000000000E+00  0.65999999802E+01  0.66000000000E+01  0.51109989000E-03 0. -1.
     -623   -1    0    0    0    0  0.00000000000E+00  0.00000000000E+00  0.75637274222E-11  0.17124000000E+03  0.17124000000E+03 0. -1.
      622    2    1    2    0    0  0.68577802192E-02 -0.62317060945E-02  0.62315268307E+01  0.62316059330E+01  0.30000000117E-01 0.  0.
     -611    1    3    3    0    0  0.74563384551E-02 -0.12029409426E-01  0.59566706349E+01  0.59566874702E+01  0.51109989000E-03 0. -1.
      611    1    3    3    0    0 -0.59855823597E-03  0.57977033311E-02  0.27485619579E+00  0.27491846286E+00  0.51109989000E-03 0.  1.
       11    1    1    2    0    0 -0.74547047898E-02  0.60340658506E-02  0.36826884699E+00  0.36839406545E+00  0.51109989000E-03 0. -1.
     -623    1    1    2    0    0  0.59692457034E-03  0.19764024409E-03  0.20430232422E-03  0.17124000000E+03  0.17124000000E+03 0. -1.
</event>
<event>
 7   1  0.1909700E+02  0.9118800E+02  0.7818608E-02  0.1180000E+00
       11   -1    0    0    0    0  0.00000000000E+00  0.00000000000E+00  0.65999999802E+01  0.66000000000E+01  0.51109989000E-03 0. -1.
     -623   -1    0    0    0    0  0.00000000000E+00  0.00000000000E+00  0.75637274222E-11  0.17124000000E+03  0.17124000000E+03 0. -1.
      622    2    1    2    0    0 -0.86047651919E-02 -0.10448396379E-01  0.62504134101E+01  0.62505000607E+01  0.29999999733E-01 0.  0.
     -611    1    3    3    0    0 -0.53420046858E-02 -0.18115313649E-01  0.56153640093E+01  0.56153957937E+01  0.51109989000E-03 0. -1.
      611    1    3    3    0    0 -0.32627605062E-02  0.76669172704E-02  0.63504940079E+00  0.63510426695E+00  0.51109989000E-03 0.  1.
       11    1    1    2    0    0 -0.11484366229E-01 -0.17173078667E-02  0.34930500179E+00  0.34949833378E+00  0.51109989000E-03 0. -1.
     -623    1    1    2    0    0  0.20089131413E-01  0.12165704237E-01  0.28157351803E-03  0.17124000161E+03  0.17124000000E+03 0. -1.
</event>
<event>
 7   1  0.1909700E+02  0.9118800E+02  0.7818608E-02  0.1180000E+00
       11   -1    0    0    0    0  0.00000000000E+00  0.00000000000E+00  0.65999999802E+01  0.66000000000E+01  0.51109989000E-03 0. -1.
     -623   -1    0    0    0    0  0.00000000000E+00  0.00000000000E+00  0.75637274222E-11  0.17124000000E+03  0.17124000000E+03 0.  1.
      622    2    1    2    0    0  0.28366878735E-03 -0.70974041205E-03  0.65834605150E+01  0.65835289122E+01  0.30000000819E-01 0.  0.
     -611    1    3    3    0    0  0.41395651770E-03 -0.14268325305E-01  0.45896842755E+01  0.45897065012E+01  0.51109989000E-03 0. -1.
      611    1    3    3    0    0 -0.13028773035E-03  0.13558584893E-01  0.19937762395E+01  0.19938224110E+01  0.51109989000E-03 0.  1.
       11    1    1    2    0    0  0.95627337494E-04  0.45620186672E-03  0.16456554070E-01  0.16471085467E-01  0.51109989000E-03 0. -1.
     -623    1    1    2    0    0 -0.37929612492E-03  0.25353854552E-03  0.82909369735E-04  0.17124000000E+03  0.17124000000E+03 0.  1.
</event>
<event>
 7   1  0.1909700E+02  0.9118800E+02  0.7818608E-02  0.1180000E+00
       11   -1    0    0    0    0  0.00000000000E+00  0.00000000000E+00  0.65999999802E+01  0.66000000000E+01  0.51109989000E-03 0.  1.
     -623   -1    0    0    0    0  0.00000000000E+00  0.00000000000E+00  0.75637274222E-11  0.17124000000E+03  0.17124000000E+03 0. -1.
      622    2    1    2    0    0 -0.18008967798E-02 -0.59040188640E-02  0.47093640308E+01  0.47094636293E+01  0.30000000226E-01 0.  0.
     -611    1    3    3    0    0 -0.65708693050E-02 -0.14490891799E-01  0.39969271845E+01  0.39969588867E+01  0.51109989000E-03 0.  1.
      611    1    3    3    0    0  0.47699725252E-02  0.85868729347E-02  0.71243684629E+00  0.71250474258E+00  0.51109989000E-03 0. -1.
       11    1    1    2    0    0  0.21109336858E-02  0.59438302718E-02  0.18905257752E+01  0.18905363665E+01  0.51109989000E-03 0.  1.
     -623    1    1    2    0    0 -0.31003690449E-03 -0.39811402895E-04  0.11017029826E-03  0.17124000000E+03  0.17124000000E+03 0. -1.
</event>
<event>
 7   1  0.1909700E+02  0.9118800E+02  0.7818608E-02  0.1180000E+00
       11   -1    0    0    0    0  0.00000000000E+00  0.00000000000E+00  0.65999999802E+01  0.66000000000E+01  0.51109989000E-03 0.  1.
     -623   -1    0    0    0    0  0.00000000000E+00  0.00000000000E+00  0.75637274222E-11  0.17124000000E+03  0.17124000000E+03 0.  1.
      622    2    1    2    0    0  0.12924609283E-02  0.27438659390E-03  0.65710378652E+01  0.65711064800E+01  0.29999999681E-01 0.  0.
     -611    1    3    3    0    0 -0.50833510322E-02 -0.96820480520E-02  0.10722885818E+01  0.10723444626E+01  0.51109989000E-03 0. -1.
      611    1    3    3    0    0  0.63758119605E-02  0.99564346459E-02  0.54987492834E+01  0.54987620175E+01  0.51109989000E-03 0.  1.
       11    1    1    2    0    0  0.19229283924E-02  0.35324981355E-02  0.28607582601E-01  0.28893445645E-01  0.51109989000E-03 0.  1.
     -623    1    1    2    0    0 -0.32153893210E-02 -0.38068847295E-02  0.35453094241E-03  0.17124000007E+03  0.17124000000E+03 0.  1.
</event>
<event>
 7   1  0.1909700E+02  0.9118800E+02  0.7818608E-02  0.1180000E+00
       11   -1    0    0    0    0  0.00000000000E+00  0.00000000000E+00  0.65999999802E+01  0.66000000000E+01  0.51109989000E-03 0.  1.
     -623   -1    0    0    0    0  0.00000000000E+00  0.00000000000E+00  0.75637274222E-11  0.17124000000E+03  0.17124000000E+03 0. -1.
      622    2    1    2    0    0 -0.20649527408E-03  0.67101967473E-03  0.65837820341E+01  0.65838504209E+01  0.30000000408E-01 0.  0.
     -611    1    3    3    0    0 -0.32202821728E-02  0.12240401661E-02  0.65122874358E+01  0.65122883671E+01  0.51109989000E-03 0.  1.
      611    1    3    3    0    0  0.30137868987E-02 -0.55302049141E-03  0.71494598241E-01  0.71562053798E-01  0.51109989000E-03 0. -1.
       11    1    1    2    0    0 -0.28208398982E-03 -0.33225800688E-03  0.16135602154E-01  0.16149577250E-01  0.51109989000E-03 0.  1.
     -623    1    1    2    0    0  0.48857926392E-03 -0.33876166793E-03  0.82343218082E-04  0.17124000000E+03  0.17124000000E+03 0. -1.
</event>
<event>
 7   1  0.1909700E+02  0.9118800E+02  0.7818608E-02  0.1180000E+00
       11   -1    0    0    0    0  0.00000000000E+00  0.00000000000E+00  0.65999999802E+01  0.66000000000E+01  0.51109989000E-03 0.  1.
     -623   -1    0    0    0    0  0.00000000000E+00  0.00000000000E+00  0.75637274222E-11  0.17124000000E+03  0.17124000000E+03 0.  1.
      622    2    1    2    0    0  0.69152269781E-02 -0.23532418165E-02  0.63557302848E+01  0.63558052842E+01  0.29999999978E-01 0.  0.
     -611    1    3    3    0    0  0.71241788768E-02 -0.30081915335E-02  0.40072383394E+00  0.40079877176E+00  0.51109989000E-03 0. -1.
      611    1    3    3    0    0 -0.20895189865E-03  0.65494971696E-03  0.59550064508E+01  0.59550065125E+01  0.51109989000E-03 0.  1.
       11    1    1    2    0    0 -0.77528340340E-02  0.41915267327E-02  0.24403507556E+00  0.24419470644E+00  0.51109989000E-03 0. -1.
     -623    1    1    2    0    0  0.83760705885E-03 -0.18382849172E-02  0.23462262661E-03  0.17124000001E+03  0.17124000000E+03 0.  1.
</event>
<event>
 7   1  0.1909700E+02  0.9118800E+02  0.7818608E-02  0.1180000E+00
       11   -1    0    0    0    0  0.00000000000E+00  0.00000000000E+00  0.65999999802E+01  0.66000000000E+01  0.51109989000E-03 0. -1.
     -623   -1    0    0    0    0  0.00000000000E+00  0.00000000000E+00  0.75637274222E-11  0.17124000000E+03  0.17124000000E+03 0.  1.
      622    2    1    2    0    0  0.29686050156E-02  0.28025798945E-02  0.62894680475E+01  0.62895409202E+01  0.29999999772E-01 0.  0.
     -611    1    3    3    0    0 -0.80258138204E-02 -0.18713590071E-03  0.52530139745E+00  0.52536298699E+00  0.51109989000E-03 0.  1.
      611    1    3    3    0    0  0.10994418836E-01  0.29897157952E-02  0.57641666500E+01  0.57641779333E+01  0.51109989000E-03 0. -1.
       11    1    1    2    0    0 -0.23610368699E-02 -0.32603984571E-02  0.31043255882E+00  0.31045907861E+00  0.51109989000E-03 0. -1.
     -623    1    1    2    0    0 -0.60756814540E-03  0.45781856286E-03  0.99374483441E-04  0.17124000000E+03  0.17124000000E+03 0.  1.
</event>
<event>
 7   1  0.1909700E+02  0.9118800E+02  0.7818608E-02  0.1180000E+00
       11   -1    0    0    0    0  0.00000000000E+00  0.00000000000E+00  0.65999999802E+01  0.66000000000E+01  0.51109989000E-03 0.  1.
     -623   -1    0    0    0    0  0.00000000000E+00  0.00000000000E+00  0.75637274222E-11  0.17124000000E+03  0.17124000000E+03 0. -1.
      622    2    1    2    0    0 -0.14399919878E-02  0.25614931934E-02  0.64153992447E+01  0.64154700610E+01  0.30000000009E-01 0.  0.
     -611    1    3    3    0    0 -0.84379323583E-02  0.54242243755E-02  0.76733614531E+00  0.76740187779E+00  0.51109989000E-03 0. -1.
      611    1    3    3    0    0  0.69979403705E-02 -0.28627311821E-02  0.56480630994E+01  0.56480681832E+01  0.51109989000E-03 0.  1.
       11    1    1    2    0    0 -0.52768461902E-03 -0.19402990087E-02  0.18451826303E+00  0.18452992664E+00  0.51109989000E-03 0.  1.
     -623    1    1    2    0    0  0.19676766068E-02 -0.62119418462E-03  0.82472587636E-04  0.17124000001E+03  0.17124000000E+03 0. -1.
</event>
<event>
 7   1  0.1909700E+02  0.9118800E+02  0.7818608E-02  0.1180000E+00
       11   -1    0    0    0    0  0.00000000000E+00  0.00000000000E+00  0.65999999802E+01  0.66000000000E+01  0.51109989000E-03 0.  1.
     -623   -1    0    0    0    0  0.00000000000E+00  0.00000000000E+00  0.75637274222E-11  0.17124000000E+03  0.17124000000E+03 0. -1.
      622    2    1    2    0    0  0.38320351378E-02 -0.21124359860E-02  0.65283995123E+01  0.65284699079E+01  0.30000000291E-01 0.  0.
     -611    1    3    3    0    0  0.90819984734E-02 -0.14144734918E-01  0.41552013226E+01  0.41552353542E+01  0.51109989000E-03 0.  1.
      611    1    3    3    0    0 -0.52499633356E-02  0.12032298932E-01  0.23731981897E+01  0.23732345537E+01  0.51109989000E-03 0. -1.
       11    1    1    2    0    0 -0.23671912873E-02 -0.41930316859E-03  0.71487825747E-01  0.71530062646E-01  0.51109989000E-03 0.  1.
     -623    1    1    2    0    0 -0.14648438531E-02  0.25317391561E-02  0.11263779095E-03  0.17124000003E+03  0.17124000000E+03 0. -1.
</event>
<event>
 7   1  0.1909700E+02  0.9118800E+02  0.7818608E-02  0.1180000E+00
       11   -1    0    0    0    0  0.00000000000E+00  0.00000000000E+00  0.65999999802E+01  0.66000000000E+01  0.51109989000E-03 0. -1.
     -623   -1    0    0    0    0  0.00000000000E+00  0.00000000000E+00  0.75637274222E-11  0.17124000000E+03  0.17124000000E+03 0.  1.
      622    2    1    2    0    0 -0.79645444766E-03 -0.17067239035E-03  0.65960084895E+01  0.65960767625E+01  0.30000000023E-01 0.  0.
     -611    1    3    3    0    0  0.13969287559E-01 -0.59085541350E-04  0.22698941635E+01  0.22699372060E+01  0.51109989000E-03 0.  1.
      611    1    3    3    0    0 -0.14765742007E-01 -0.11158684901E-03  0.43261143260E+01  0.43261395565E+01  0.51109989000E-03 0. -1.
       11    1    1    2    0    0 -0.14253213876E-03 -0.29666608328E-04  0.38870667720E-02  0.39232263801E-02  0.51109989000E-03 0. -1.
     -623    1    1    2    0    0  0.93898658743E-03  0.20033899890E-03  0.10441556748E-03  0.17124000000E+03  0.17124000000E+03 0.  1.
</event>
<event>
 7   1  0.1909700E+02  0.9118800E+02  0.7818608E-02  0.1180000E+00
       11   -1    0    0    0    0  0.00000000000E+00  0.00000000000E+00  0.65999999802E+01  0.66000000000E+01  0.51109989000E-03 0.  1.
     -623   -1    0    0    0    0  0.00000000000E+00  0.00000000000E+00  0.75637274222E-11  0.17124000000E+03  0.17124000000E+03 0. -1.
      622    2    1    2    0    0  0.50941889485E-01  0.29496545728E-03  0.57522899551E+01  0.57525937533E+01  0.29999998048E-01 0.  0.
     -611    1    3    3    0    0  0.41432302103E-01  0.75284789464E-02  0.52181441343E+01  0.52183140746E+01  0.51109989000E-03 0.  1.
      611    1    3    3    0    0  0.95095873815E-02 -0.72335134892E-02  0.53414582077E+00  0.53427967867E+00  0.51109989000E-03 0. -1.
       11    1    1    2    0    0 -0.36987996486E-02  0.50454924577E-02  0.84737639792E+00  0.84739964544E+00  0.51109989000E-03 0.  1.
     -623    1    1    2    0    0 -0.47243089843E-01 -0.53404579150E-02  0.33362644344E-03  0.17124000660E+03  0.17124000000E+03 0. -1.
</event>
<event>
 7   1  0.1909700E+02  0.9118800E+02  0.7818608E-02  0.1180000E+00
       11   -1    0    0    0    0  0.00000000000E+00  0.00000000000E+00  0.65999999802E+01  0.66000000000E+01  0.51109989000E-03 0.  1.
     -623   -1    0    0    0    0  0.00000000000E+00  0.00000000000E+00  0.75637274222E-11  0.17124000000E+03  0.17124000000E+03 0. -1.
      622    2    1    2    0    0 -0.25064135007E-02  0.93072190130E-03  0.65922725438E+01  0.65923413474E+01  0.30000005133E-01 0.  0.
     -611    1    3    3    0    0  0.67269843325E-02 -0.76758410078E-02  0.95547873801E+00  0.95553338553E+00  0.51109989000E-03 0. -1.
      611    1    3    3    0    0 -0.92333978331E-02  0.86065629091E-02  0.56367938058E+01  0.56368079618E+01  0.51109989000E-03 0.  1.
       11    1    1    2    0    0 -0.99533391415E-03  0.10533717037E-02  0.75028428922E-02  0.76586000164E-02  0.51109989000E-03 0.  1.
     -623    1    1    2    0    0  0.35017474168E-02 -0.19840936058E-02  0.22458837006E-03  0.17124000005E+03  0.17124000000E+03 0. -1.
</event>
<event>
 7   1  0.1909700E+02  0.9118800E+02  0.7818608E-02  0.1180000E+00
       11   -1    0    0    0    0  0.00000000000E+00  0.00000000000E+00  0.65999999802E+01  0.66000000000E+01  0.51109989000E-03 0. -1.
     -623   -1    0    0    0    0  0.00000000000E+00  0.00000000000E+00  0.75637274222E-11  0.17124000000E+03  0.17124000000E+03 0.  1.
      622    2    1    2    0    0 -0.20310289025E-01  0.12503693199E-01  0.38329384826E+01  0.38331300867E+01  0.29999999915E-01 0.  0.
     -611    1    3    3    0    0 -0.24681687690E-01  0.11281091550E-01  0.19806084423E+01  0.19807944143E+01  0.51109989000E-03 0. -1.
      611    1    3    3    0    0  0.43713986653E-02  0.12226016491E-02  0.18523300403E+01  0.18523356724E+01  0.51109989000E-03 0.  1.
       11    1    1    2    0    0  0.18993429233E-01  0.15936311486E-01  0.27667564127E+01  0.27668675474E+01  0.51109989000E-03 0. -1.
     -623    1    1    2    0    0  0.13168597864E-02 -0.28440004681E-01  0.30508604408E-03  0.17124000237E+03  0.17124000000E+03 0.  1.
</event>
<event>
 7   1  0.1909700E+02  0.9118800E+02  0.7818608E-02  0.1180000E+00
       11   -1    0    0    0    0  0.00000000000E+00  0.00000000000E+00  0.65999999802E+01  0.66000000000E+01  0.51109989000E-03 0. -1.
     -623   -1    0    0    0    0  0.00000000000E+00  0.00000000000E+00  0.75637274222E-11  0.17124000000E+03  0.17124000000E+03 0. -1.
      622    2    1    2    0    0 -0.18466482305E-02 -0.32944629796E-02  0.62668292009E+01  0.62669021451E+01  0.29999999745E-01 0.  0.
     -611    1    3    3    0    0 -0.94368385800E-02  0.10700610219E-01  0.31045764321E+01  0.31046092574E+01  0.51109989000E-03 0. -1.
      611    1    3    3    0    0  0.75901903496E-02 -0.13995073199E-01  0.31622527688E+01  0.31622928877E+01  0.51109989000E-03 0.  1.
       11    1    1    2    0    0  0.32160340886E-02  0.32047293101E-02  0.33306651337E+00  0.33309784856E+00  0.51109989000E-03 0. -1.
     -623    1    1    2    0    0 -0.13693858579E-02  0.89733669943E-04  0.10426518558E-03  0.17124000001E+03  0.17124000000E+03 0. -1.
</event>
<event>
 7   1  0.1909700E+02  0.9118800E+02  0.7818608E-02  0.1180000E+00
       11   -1    0    0    0    0  0.00000000000E+00  0.00000000000E+00  0.65999999802E+01  0.66000000000E+01  0.51109989000E-03 0. -1.
     -623   -1    0    0    0    0  0.00000000000E+00  0.00000000000E+00  0.75637274222E-11  0.17124000000E+03  0.17124000000E+03 0.  1.
      622    2    1    2    0    0  0.28023457471E-02 -0.81003128656E-03  0.61572805709E+01  0.61573543456E+01  0.29999999612E-01 0.  0.
     -611    1    3    3    0    0  0.15809232193E-01  0.31745263899E-02  0.38279663884E+01  0.38280003842E+01  0.51109989000E-03 0. -1.
      611    1    3    3    0    0 -0.13006886445E-01 -0.39845576764E-02  0.23293141825E+01  0.23293539614E+01  0.51109989000E-03 0.  1.
       11    1    1    2    0    0 -0.31474343714E-02  0.12506579153E-03  0.44263414743E+00  0.44264565024E+00  0.51109989000E-03 0. -1.
     -623    1    1    2    0    0  0.34508862316E-03  0.68496549535E-03  0.85259531633E-04  0.17124000000E+03  0.17124000000E+03 0.  1.
</event>
<event>
 7   1  0.1909700E+02  0.9118800E+02  0.7818608E-02  0.1180000E+00
       11   -1    0    0    0    0  0.00000000000E+00  0.00000000000E+00  0.65999999802E+01  0.66000000000E+01  0.51109989000E-03 0. -1.
     -623   -1    0    0    0    0  0.00000000000E+00  0.00000000000E+00  0.75637274222E-11  0.17124000000E+03  0.17124000000E+03 0. -1.
      622    2    1    2    0    0 -0.28752020586E-01  0.36091350884E-02  0.25528812734E+01  0.25532219842E+01  0.30000000298E-01 0.  0.
     -611    1    3    3    0    0 -0.34502001740E-01  0.27603987936E-02  0.19053396049E+01  0.19056540293E+01  0.51109989000E-03 0.  1.
      611    1    3    3    0    0  0.57499811540E-02  0.84873629480E-03  0.64754166844E+00  0.64756795491E+00  0.51109989000E-03 0. -1.
       11    1    1    2    0    0  0.28836785377E-01 -0.29314729143E-02  0.40466741752E+01  0.40467780140E+01  0.51109989000E-03 0. -1.
     -623    1    1    2    0    0 -0.84764793116E-04 -0.67766217392E-03  0.44453183581E-03  0.17124000000E+03  0.17124000000E+03 0. -1.
</event>
<event>
 7   1  0.1909700E+02  0.9118800E+02  0.7818608E-02  0.1180000E+00
       11   -1    0    0    0    0  0.00000000000E+00  0.00000000000E+00  0.65999999802E+01  0.66000000000E+01  0.51109989000E-03 0. -1.
     -623   -1    0    0    0    0  0.00000000000E+00  0.00000000000E+00  0.75637274222E-11  0.17124000000E+03  0.17124000000E+03 0.  1.
      622    2    1    2    0    0 -0.27277601711E-01  0.79704515847E-02  0.40326352794E+01  0.40328469959E+01  0.30000000139E-01 0.  0.
     -611    1    3    3    0    0 -0.10494699190E-01  0.44505547167E-02  0.32653986406E+01  0.32654185780E+01  0.51109989000E-03 0. -1.
      611    1    3    3    0    0 -0.16782902521E-01  0.35198968680E-02  0.76723663886E+00  0.76742841798E+00  0.51109989000E-03 0.  1.
       11    1    1    2    0    0  0.27146864242E-01  0.62665847190E-02  0.25670011745E+01  0.25671524133E+01  0.51109989000E-03 0. -1.
     -623    1    1    2    0    0  0.13073745889E-03 -0.14237036301E-01  0.36352785313E-03  0.17124000059E+03  0.17124000000E+03 0.  1.
</event>
<event>
 7   1  0.1909700E+02  0.9118800E+02  0.7818608E-02  0.1180000E+00
       11   -1    0    0    0    0  0.00000000000E+00  0.00000000000E+00  0.65999999802E+01  0.66000000000E+01  0.51109989000E-03 0. -1.
     -623   -1    0    0    0    0  0.00000000000E+00  0.00000000000E+00  0.75637274222E-11  0.17124000000E+03  0.17124000000E+03 0. -1.
      622    2    1    2    0    0  0.12348730476E-02 -0.74943740851E-03  0.65682172912E+01  0.65682859614E+01  0.29999999496E-01 0.  0.
     -611    1    3    3    0    0  0.11463092278E-01 -0.19525232225E-03  0.56456734580E+01  0.56456851219E+01  0.51109989000E-03 0. -1.
      611    1    3    3    0    0 -0.10228219231E-01 -0.55418508627E-03  0.92254383323E+00  0.92260083950E+00  0.51109989000E-03 0.  1.
       11    1    1    2    0    0 -0.87957959611E-03  0.16798852231E-02  0.31653166608E-01  0.31714032430E-01  0.51109989000E-03 0. -1.
     -623    1    1    2    0    0 -0.35529345206E-03 -0.93044781425E-03  0.12951920352E-03  0.17124000000E+03  0.17124000000E+03 0. -1.
</event>
<event>
 7   1  0.1909700E+02  0.9118800E+02  0.7818608E-02  0.1180000E+00
       11   -1    0    0    0    0  0.00000000000E+00  0.00000000000E+00  0.65999999802E+01  0.66000000000E+01  0.51109989000E-03 0. -1.
     -623   -1    0    0    0    0  0.00000000000E+00  0.00000000000E+00  0.75637274222E-11  0.17124000000E+03  0.17124000000E+03 0. -1.
      622    2    1    2    0    0  0.41388983501E-03 -0.37293198575E-01  0.56570801414E+01  0.56572826233E+01  0.29999996487E-01 0.  0.
     -611    1    3    3    0    0 -0.34478087902E-02  0.26465611775E-02  0.15559692419E+01  0.15559753966E+01  0.51109989000E-03 0.  1.
      611    1    3    3    0    0  0.38616986252E-02 -0.39939759752E-01  0.41011108995E+01  0.41013072267E+01  0.51109989000E-03 0. -1.
       11    1    1    2    0    0 -0.47718635629E-02  0.21946663962E-01  0.94244892113E+00  0.94271663659E+00  0.51109989000E-03 0. -1.
     -623    1    1    2    0    0  0.43579737282E-02  0.15346534588E-01  0.47092136388E-03  0.17124000074E+03  0.17124000000E+03 0. -1.
</event>
<event>
 7   1  0.1909700E+02  0.9118800E+02  0.7818608E-02  0.1180000E+00
       11   -1    0    0    0    0  0.00000000000E+00  0.00000000000E+00  0.65999999802E+01  0.66000000000E+01  0.51109989000E-03 0. -1.
     -623   -1    0    0    0    0  0.00000000000E+00  0.00000000000E+00  0.75637274222E-11  0.17124000000E+03  0.17124000000E+03 0. -1.
      622    2    1    2    0    0  0.10508456606E-02 -0.58063890112E-04  0.63889620928E+01  0.63890326131E+01  0.29999999850E-01 0.  0.
     -611    1    3    3    0    0  0.12393889128E-01 -0.10722717515E-02  0.52219559101E+01  0.52219707531E+01  0.51109989000E-03 0. -1.
      611    1    3    3    0    0 -0.11343043467E-01  0.10142078614E-02  0.11670061827E+01  0.11670618600E+01  0.51109989000E-03 0.  1.
       11    1    1    2    0    0 -0.10073187117E-02 -0.22713238731E-03  0.21096424037E+00  0.21096738662E+00  0.51109989000E-03 0. -1.
     -623    1    1    2    0    0 -0.43526948862E-04  0.28519627742E-03  0.73646993886E-04  0.17124000000E+03  0.17124000000E+03 0. -1.
</event>
<event>
 7   1  0.1909700E+02  0.9118800E+02  0.7818608E-02  0.1180000E+00
       11   -1    0    0    0    0  0.00000000000E+00  0.00000000000E+00  0.65999999802E+01  0.66000000000E+01  0.51109989000E-03 0. -1.
     -623   -1    0    0    0    0  0.00000000000E+00  0.00000000000E+00  0.75637274222E-11  0.17124000000E+03  0.17124000000E+03 0.  1.
      622    2    1    2    0    0 -0.18815408199E-02 -0.23177659860E-02  0.65585655122E+01  0.65586348038E+01  0.29999999294E-01 0.  0.
     -611    1    3    3    0    0  0.83823642801E-02  0.10552817656E-01  0.25895021511E+01  0.25895372710E+01  0.51109989000E-03 0.  1.
      611    1    3    3    0    0 -0.10263905100E-01 -0.12870583642E-01  0.39690633611E+01  0.39690975328E+01  0.51109989000E-03 0. -1.
       11    1    1    2    0    0  0.36490886890E-02 -0.17773338270E-03  0.41200337617E-01  0.41365160205E-01  0.51109989000E-03 0. -1.
     -623    1    1    2    0    0 -0.17675478666E-02  0.24954993717E-02  0.23412190226E-03  0.17124000003E+03  0.17124000000E+03 0.  1.
</event>
<event>
 7   1  0.1909700E+02  0.9118800E+02  0.7818608E-02  0.1180000E+00
       11   -1    0    0    0    0  0.00000000000E+00  0.00000000000E+00  0.65999999802E+01  0.66000000000E+01  0.51109989000E-03 0.  1.
     -623   -1    0    0    0    0  0.00000000000E+00  0.00000000000E+00  0.75637274222E-11  0.17124000000E+03  0.17124000000E+03 0.  1.
      622    2    1    2    0    0 -0.20865593457E-03 -0.72615854108E-03  0.65639167837E+01  0.65639853835E+01  0.29999999993E-01 0.  0.
     -611    1    3    3    0    0 -0.12116062206E-01 -0.87645403239E-02  0.26545742237E+01  0.26546163916E+01  0.51109989000E-03 0. -1.
      611    1    3    3    0    0  0.11907406271E-01  0.80383817828E-02  0.39093425600E+01  0.39093689919E+01  0.51109989000E-03 0.  1.
       11    1    1    2    0    0  0.40025122210E-04  0.10680597597E-02  0.35995127372E-01  0.36014618831E-01  0.51109989000E-03 0.  1.
     -623    1    1    2    0    0  0.16863081227E-03 -0.34190121897E-03  0.88071876991E-04  0.17124000000E+03  0.17124000000E+03 0.  1.
</event>
<event>
 7   1  0.1909700E+02  0.9118800E+02  0.7818608E-02  0.1180000E+00
       11   -1    0    0    0    0  0.00000000000E+00  0.00000000000E+00  0.65999999802E+01  0.66000000000E+01  0.51109989000E-03 0.  1.
     -623   -1    0    0    0    0  0.00000000000E+00  0.00000000000E+00  0.75637274222E-11  0.17124000000E+03  0.17124000000E+03 0. -1.
      622    2    1    2    0    0  0.26513260190E-02 -0.13151504322E-01  0.62606579112E+01  0.62607441628E+01  0.29999999874E-01 0.  0.
     -611    1    3    3    0    0  0.10864078205E-01  0.14895983064E-02  0.43091439860E+01  0.43091579688E+01  0.51109989000E-03 0.  1.
      611    1    3    3    0    0 -0.82127521862E-02 -0.14641102628E-01  0.19515139252E+01  0.19515861940E+01  0.51109989000E-03 0. -1.
       11    1    1    2    0    0 -0.14340499187E-02 -0.30294960430E-02  0.33923812765E+00  0.33925507044E+00  0.51109989000E-03 0.  1.
     -623    1    1    2    0    0 -0.12172760994E-02  0.16181000360E-01  0.10394351059E-03  0.17124000077E+03  0.17124000000E+03 0. -1.
</event>
<event>
 7   1  0.1909700E+02  0.9118800E+02  0.7818608E-02  0.1180000E+00
       11   -1    0    0    0    0  0.00000000000E+00  0.00000000000E+00  0.65999999802E+01  0.66000000000E+01  0.51109989000E-03 0. -1.
     -623   -1    0    0    0    0  0.00000000000E+00  0.00000000000E+00  0.75637274222E-11  0.17124000000E+03  0.17124000000E+03 0. -1.
      622    2    1    2    0    0 -0.87091143516E-02 -0.14669692682E-01  0.45321088034E+01  0.45322402026E+01  0.30000000162E-01 0.  0.
     -611    1    3    3    0    0  0.10050208022E-01 -0.11829964612E-01  0.20272287879E+01  0.20272882811E+01  0.51109989000E-03 0. -1.
      611    1    3    3    0    0 -0.18759322374E-01 -0.28397280691E-02  0.25048800155E+01  0.25049519216E+01  0.51109989000E-03 0.  1.
       11    1    1    2    0    0 -0.77264276121E-02 -0.72537433180E-02  0.20677303822E+01  0.20677576041E+01  0.51109989000E-03 0. -1.
     -623    1    1    2    0    0  0.16435541966E-01  0.21923436003E-01  0.16079353870E-03  0.17124000219E+03  0.17124000000E+03 0. -1.
</event>
<event>
 7   1  0.1909700E+02  0.9118800E+02  0.7818608E-02  0.1180000E+00
       11   -1    0    0    0    0  0.00000000000E+00  0.00000000000E+00  0.65999999802E+01  0.66000000000E+01  0.51109989000E-03 0.  1.
     -623   -1    0    0    0    0  0.00000000000E+00  0.00000000000E+00  0.75637274222E-11  0.17124000000E+03  0.17124000000E+03 0.  1.
      622    2    1    2    0    0  0.69237985014E-02 -0.19935653880E-01  0.40918477134E+01  0.40920121064E+01  0.29999999742E-01 0.  0.
     -611    1    3    3    0    0 -0.38146361467E-02  0.68263634417E-02  0.85650304324E+00  0.85653889286E+00  0.51109989000E-03 0. -1.
      611    1    3    3    0    0  0.10738434648E-01 -0.26762017321E-01  0.32353446702E+01  0.32354732136E+01  0.51109989000E-03 0.  1.
       11    1    1    2    0    0 -0.99424970232E-02  0.13408125590E-01  0.25079321411E+01  0.25079877425E+01  0.51109989000E-03 0.  1.
     -623    1    1    2    0    0  0.30186985220E-02  0.65275282896E-02  0.22012580561E-03  0.17124000015E+03  0.17124000000E+03 0.  1.
</event>
<event>
 7   1  0.1909700E+02  0.9118800E+02  0.7818608E-02  0.1180000E+00
       11   -1    0    0    0    0  0.00000000000E+00  0.00000000000E+00  0.65999999802E+01  0.66000000000E+01  0.51109989000E-03 0.  1.
     -623   -1    0    0    0    0  0.00000000000E+00  0.00000000000E+00  0.75637274222E-11  0.17124000000E+03  0.17124000000E+03 0.  1.
      622    2    1    2    0    0  0.62815417922E-02  0.18952713080E-02  0.15657279191E+01  0.15660290440E+01  0.29999999696E-01 0.  0.
     -611    1    3    3    0    0  0.58562386731E-02  0.15517885411E-01  0.72030172278E+00  0.72049284060E+00  0.51109989000E-03 0. -1.
      611    1    3    3    0    0  0.42530311909E-03 -0.13622614103E-01  0.84542619636E+00  0.84553620337E+00  0.51109989000E-03 0.  1.
       11    1    1    2    0    0  0.37566829147E-02 -0.10805861374E-02  0.50339691153E+01  0.50339706590E+01  0.51109989000E-03 0.  1.
     -623    1    1    2    0    0 -0.10038224710E-01 -0.81468517139E-03  0.30294515233E-03  0.17124000030E+03  0.17124000000E+03 0.  1.
</event>
<event>
 7   1  0.1909700E+02  0.9118800E+02  0.7818608E-02  0.1180000E+00
       11   -1    0    0    0    0  0.00000000000E+00  0.00000000000E+00  0.65999999802E+01  0.66000000000E+01  0.51109989000E-03 0.  1.
     -623   -1    0    0    0    0  0.00000000000E+00  0.00000000000E+00  0.75637274222E-11  0.17124000000E+03  0.17124000000E+03 0.  1.
      622    2    1    2    0    0 -0.71776858164E-02 -0.26627111711E-02  0.52652178351E+01  0.52653088666E+01  0.30000000058E-01 0.  0.
     -611    1    3    3    0    0 -0.43191831988E-02  0.11874398234E-01  0.36797283314E+01  0.36797500609E+01  0.51109989000E-03 0.  1.
      611    1    3    3    0    0 -0.28585026177E-02 -0.14537109405E-01  0.15854895037E+01  0.15855588057E+01  0.51109989000E-03 0. -1.
       11    1    1    2    0    0  0.79215842207E-02  0.31842400741E-02  0.13346637220E+01  0.13346911264E+01  0.51109989000E-03 0.  1.
     -623    1    1    2    0    0 -0.74389839801E-03 -0.52152890072E-03  0.11841854095E-03  0.17124000000E+03  0.17124000000E+03 0.  1.
</event>
<event>
 7   1  0.1909700E+02  0.9118800E+02  0.7818608E-02  0.1180000E+00
       11   -1    0    0    0    0  0.00000000000E+00  0.00000000000E+00  0.65999999802E+01  0.66000000000E+01  0.51109989000E-03 0.  1.
     -623   -1    0    0    0    0  0.00000000000E+00  0.00000000000E+00  0.75637274222E-11  0.17124000000E+03  0.17124000000E+03 0. -1.
      622    2    1    2    0    0 -0.10022326037E-01  0.18222107572E-01  0.54589851628E+01  0.54591072072E+01  0.30000000150E-01 0.  0.
     -611    1    3    3    0    0 -0.71921264877E-02 -0.71338505083E-02  0.10777245359E+01  0.10777722649E+01  0.51109989000E-03 0. -1.
      611    1    3    3    0    0 -0.28301995490E-02  0.25355958080E-01  0.43812606269E+01  0.43813349423E+01  0.51109989000E-03 0.  1.
       11    1    1    2    0    0  0.95502165970E-02 -0.19003353149E-01  0.11406944276E+01  0.11408927962E+01  0.51109989000E-03 0.  1.
     -623    1    1    2    0    0  0.47210942837E-03  0.78124559754E-03  0.32039597992E-03  0.17124000000E+03  0.17124000000E+03 0. -1.
</event>
<event>
 7   1  0.1909700E+02  0.9118800E+02  0.7818608E-02  0.1180000E+00
       11   -1    0    0    0    0  0.00000000000E+00  0.00000000000E+00  0.65999999802E+01  0.66000000000E+01  0.51109989000E-03 0.  1.
     -623   -1    0    0    0    0  0.00000000000E+00  0.00000000000E+00  0.75637274222E-11  0.17124000000E+03  0.17124000000E+03 0.  1.
      622    2    1    2    0    0  0.10396409019E-01 -0.11051554725E-01  0.39989137689E+01  0.39990550826E+01  0.29999999432E-01 0.  0.
     -611    1    3    3    0    0  0.10650850351E-01  0.79945861765E-02  0.22008705622E+01  0.22009109130E+01  0.51109989000E-03 0. -1.
      611    1    3    3    0    0 -0.25444133218E-03 -0.19046140902E-01  0.17980432067E+01  0.17981441696E+01  0.51109989000E-03 0.  1.
       11    1    1    2    0    0 -0.14201045729E-01  0.15415399623E-01  0.26008603164E+01  0.26009448188E+01  0.51109989000E-03 0.  1.
     -623    1    1    2    0    0  0.38046367092E-02 -0.43638448960E-02  0.22589437024E-03  0.17124000010E+03  0.17124000000E+03 0.  1.
</event>
<event>
 7   1  0.1909700E+02  0.9118800E+02  0.7818608E-02  0.1180000E+00
       11   -1    0    0    0    0  0.00000000000E+00  0.00000000000E+00  0.65999999802E+01  0.66000000000E+01  0.51109989000E-03 0.  1.
     -623   -1    0    0    0    0  0.00000000000E+00  0.00000000000E+00  0.75637274222E-11  0.17124000000E+03  0.17124000000E+03 0.  1.
      622    2    1    2    0    0 -0.37516254549E-02 -0.26043322608E-01  0.42308609717E+01  0.42310491478E+01  0.30000001223E-01 0.  0.
     -611    1    3    3    0    0  0.15585993966E-03 -0.24005118529E-01  0.41479927210E+01  0.41480622156E+01  0.51109989000E-03 0.  1.
      611    1    3    3    0    0 -0.39074853946E-02 -0.20382040794E-02  0.82868250679E-01  0.82986932174E-01  0.51109989000E-03 0. -1.
       11    1    1    2    0    0  0.64701893732E-02  0.24944641100E-01  0.23688106008E+01  0.23689508273E+01  0.51109989000E-03 0.  1.
     -623    1    1    2    0    0 -0.27185639187E-02  0.10986815054E-02  0.32840825517E-03  0.17124000003E+03  0.17124000000E+03 0.  1.
</event>
<event>
 7   1  0.1909700E+02  0.9118800E+02  0.7818608E-02  0.1180000E+00
       11   -1    0    0    0    0  0.00000000000E+00  0.00000000000E+00  0.65999999802E+01  0.66000000000E+01  0.51109989000E-03 0. -1.
     -623   -1    0    0    0    0  0.00000000000E+00  0.00000000000E+00  0.75637274222E-11  0.17124000000E+03  0.17124000000E+03 0. -1.
      622    2    1    2    0    0  0.10875129923E-03  0.14150305582E-02  0.62725278887E+01  0.62725997903E+01  0.29999999990E-01 0.  0.
     -611    1    3    3    0    0  0.13298013834E-01  0.47347287175E-02  0.19828177281E+01  0.19828680387E+01  0.51109989000E-03 0.  1.
      611    1    3    3    0    0 -0.13189262535E-01 -0.33196981593E-02  0.42897101606E+01  0.42897317516E+01  0.51109989000E-03 0. -1.
       11    1    1    2    0    0 -0.27951888006E-03 -0.16308305768E-02  0.32739563146E+00  0.32740021145E+00  0.51109989000E-03 0. -1.
     -623    1    1    2    0    0  0.17076758087E-03  0.21580001899E-03  0.76461999876E-04  0.17124000000E+03  0.17124000000E+03 0. -1.
</event>
<event>
 7   1  0.1909700E+02  0.9118800E+02  0.7818608E-02  0.1180000E+00
       11   -1    0    0    0    0  0.00000000000E+00  0.00000000000E+00  0.65999999802E+01  0.66000000000E+01  0.51109989000E-03 0.  1.
     -623   -1    0    0    0    0  0.00000000000E+00  0.00000000000E+00  0.75637274222E-11  0.17124000000E+03  0.17124000000E+03 0.  1.
      622    2    1    2    0    0  0.70715684626E-02  0.96382109857E-02  0.17978650859E+01  0.17981551016E+01  0.30000000348E-01 0.  0.
     -611    1    3    3    0    0  0.95591727707E-02  0.16622077201E-01  0.69407879078E+00  0.69434379112E+00  0.51109989000E-03 0. -1.
      611    1    3    3    0    0 -0.24876043081E-02 -0.69838662153E-02  0.11037862951E+01  0.11038113105E+01  0.51109989000E-03 0.  1.
       11    1    1    2    0    0 -0.58171104809E-02 -0.13056179385E-01  0.48018235587E+01  0.48018448593E+01  0.51109989000E-03 0.  1.
     -623    1    1    2    0    0 -0.12544579824E-02  0.34179683987E-02  0.31133547131E-03  0.17124000004E+03  0.17124000000E+03 0.  1.
</event>
<event>
 7   1  0.1909700E+02  0.9118800E+02  0.7818608E-02  0.1180000E+00
       11   -1    0    0    0    0  0.00000000000E+00  0.00000000000E+00  0.65999999802E+01  0.66000000000E+01  0.51109989000E-03 0.  1.
     -623   -1    0    0    0    0  0.00000000000E+00  0.00000000000E+00  0.75637274222E-11  0.17124000000E+03  0.17124000000E+03 0.  1.
      622    2    1    2    0    0 -0.64091354735E-03 -0.24860723370E-02  0.65748542530E+01  0.65749231965E+01  0.30000000754E-01 0.  0.
     -611    1    3    3    0    0 -0.85242842033E-02  0.37437078452E-02  0.57504121358E+01  0.57504196953E+01  0.51109989000E-03 0.  1.
      611    1    3    3    0    0  0.78833706559E-02 -0.62297801821E-02  0.82444211716E+00  0.82450350118E+00  0.51109989000E-03 0. -1.
       11    1    1    2    0    0  0.11982831500E-02  0.28025028678E-02  0.24885634722E-01  0.25076800863E-01  0.51109989000E-03 0.  1.
     -623    1    1    2    0    0 -0.55736960257E-03 -0.31643053037E-03  0.26009123299E-03  0.17124000000E+03  0.17124000000E+03 0.  1.
</event>
<event>
 7   1  0.1909700E+02  0.9118800E+02  0.7818608E-02  0.1180000E+00
       11   -1    0    0    0    0  0.00000000000E+00  0.00000000000E+00  0.65999999802E+01  0.66000000000E+01  0.51109989000E-03 0. -1.
     -623   -1    0    0    0    0  0.00000000000E+00  0.00000000000E+00  0.75637274222E-11  0.17124000000E+03  0.17124000000E+03 0.  1.
      622    2    1    2    0    0 -0.29723466528E-02 -0.53860988070E-02  0.25227653365E+01  0.25229512060E+01  0.29999999872E-01 0.  0.
     -611    1    3    3    0    0 -0.21688811006E-02 -0.17881825973E-01  0.14017510807E+01  0.14018669043E+01  0.51109989000E-03 0. -1.
      611    1    3    3    0    0 -0.80346555221E-03  0.12495727166E-01  0.11210142558E+01  0.11210843018E+01  0.51109989000E-03 0.  1.
       11    1    1    2    0    0 -0.52374357852E-02  0.22446865159E-02  0.40770445540E+01  0.40770485680E+01  0.51109989000E-03 0. -1.
     -623    1    1    2    0    0  0.82097824384E-02  0.31414122917E-02  0.19008946215E-03  0.17124000023E+03  0.17124000000E+03 0.  1.
</event>
<event>
 7   1  0.1909700E+02  0.9118800E+02  0.7818608E-02  0.1180000E+00
       11   -1    0    0    0    0  0.00000000000E+00  0.00000000000E+00  0.65999999802E+01  0.66000000000E+01  0.51109989000E-03 0. -1.
     -623   -1    0    0    0    0  0.00000000000E+00  0.00000000000E+00  0.75637274222E-11  0.17124000000E+03  0.17124000000E+03 0.  1.
      622    2    1    2    0    0  0.13112316260E-02 -0.63522583629E-02  0.65763102523E+01  0.65763818780E+01  0.30000000064E-01 0.  0.
     -611    1    3    3    0    0 -0.11594915303E-01  0.44486841314E-02  0.18574147580E+01  0.18574563460E+01  0.51109989000E-03 0.  1.
      611    1    3    3    0    0  0.12906146929E-01 -0.10800942494E-01  0.47188954943E+01  0.47189255319E+01  0.51109989000E-03 0. -1.
       11    1    1    2    0    0 -0.13245987261E-03  0.27529708775E-02  0.23451141793E-01  0.23618079258E-01  0.51109989000E-03 0. -1.
     -623    1    1    2    0    0 -0.11787717535E-02  0.35992874861E-02  0.23858541253E-03  0.17124000004E+03  0.17124000000E+03 0.  1.
</event>
<event>
 7   1  0.1909700E+02  0.9118800E+02  0.7818608E-02  0.1180000E+00
       11   -1    0    0    0    0  0.00000000000E+00  0.00000000000E+00  0.65999999802E+01  0.66000000000E+01  0.51109989000E-03 0. -1.
     -623   -1    0    0    0    0  0.00000000000E+00  0.00000000000E+00  0.75637274222E-11  0.17124000000E+03  0.17124000000E+03 0.  1.
      622    2    1    2    0    0 -0.14735059259E-02  0.44520526430E-03  0.56978860703E+01  0.56979652543E+01  0.30000000913E-01 0.  0.
     -611    1    3    3    0    0 -0.23057507846E-02 -0.12376977601E-01  0.43401155632E+01  0.43401338539E+01  0.51109989000E-03 0. -1.
      611    1    3    3    0    0  0.83224485871E-03  0.12822182865E-01  0.13577705070E+01  0.13578314004E+01  0.51109989000E-03 0.  1.
       11    1    1    2    0    0  0.43621813388E-03  0.98082079492E-03  0.90203395205E+00  0.90203473556E+00  0.51109989000E-03 0. -1.
     -623    1    1    2    0    0  0.10372877923E-02 -0.14260260593E-02  0.79956866418E-04  0.17124000001E+03  0.17124000000E+03 0.  1.
</event>
<event>
 7   1  0.1909700E+02  0.9118800E+02  0.7818608E-02  0.1180000E+00
       11   -1    0    0    0    0  0.00000000000E+00  0.00000000000E+00  0.65999999802E+01  0.66000000000E+01  0.51109989000E-03 0. -1.
     -623   -1    0    0    0    0  0.00000000000E+00  0.00000000000E+00  0.75637274222E-11  0.17124000000E+03  0.17124000000E+03 0.  1.
      622    2    1    2    0    0  0.25746283501E-01  0.48936869038E-02  0.40509968392E+01  0.40511926898E+01  0.30000000024E-01 0.  0.
     -611    1    3    3    0    0 -0.45006376849E-02  0.82053664472E-02  0.88837813237E+00  0.88842757222E+00  0.51109989000E-03 0.  1.
      611    1    3    3    0    0  0.30246921186E-01 -0.33116795433E-02  0.31626187068E+01  0.31627651176E+01  0.51109989000E-03 0. -1.
       11    1    1    2    0    0  0.38639488834E-01  0.26891599245E-01  0.25483574150E+01  0.25487922520E+01  0.51109989000E-03 0. -1.
     -623    1    1    2    0    0 -0.64385772351E-01 -0.31785286152E-01  0.64572354475E-03  0.17124001506E+03  0.17124000000E+03 0.  1.
</event>
<event>
 7   1  0.1909700E+02  0.9118800E+02  0.7818608E-02  0.1180000E+00
       11   -1    0    0    0    0  0.00000000000E+00  0.00000000000E+00  0.65999999802E+01  0.66000000000E+01  0.51109989000E-03 0. -1.
     -623   -1    0    0    0    0  0.00000000000E+00  0.00000000000E+00  0.75637274222E-11  0.17124000000E+03  0.17124000000E+03 0.  1.
      622    2    1    2    0    0 -0.45076227756E-02 -0.12545167894E-01  0.65385613954E+01  0.65386438060E+01  0.30000000136E-01 0.  0.
     -611    1    3    3    0    0 -0.11581205293E-01 -0.30160485230E-02  0.55223036153E+01  0.55223166065E+01  0.51109989000E-03 0. -1.
      611    1    3    3    0    0  0.70735825173E-02 -0.95291193713E-02  0.10162577801E+01  0.10163271995E+01  0.51109989000E-03 0.  1.
       11    1    1    2    0    0  0.43283226684E-02  0.11471927419E-01  0.60116401712E-01  0.61356193434E-01  0.51109989000E-03 0. -1.
     -623    1    1    2    0    0  0.17930010167E-03  0.10732404600E-02  0.13221910689E-02  0.17124000001E+03  0.17124000000E+03 0.  1.
</event>
<event>
 7   1  0.1909700E+02  0.9118800E+02  0.7818608E-02  0.1180000E+00
       11   -1    0    0    0    0  0.00000000000E+00  0.00000000000E+00  0.65999999802E+01  0.66000000000E+01  0.51109989000E-03 0.  1.
     -623   -1    0    0    0    0  0.00000000000E+00  0.00000000000E+00  0.75637274222E-11  0.17124000000E+03  0.17124000000E+03 0.  1.
      622    2    1    2    0    0 -0.22978399436E-01  0.44161813783E-02  0.49596584290E+01  0.49598043552E+01  0.30000000493E-01 0.  0.
     -611    1    3    3    0    0 -0.20112324878E-01 -0.10432541583E-01  0.26882307585E+01  0.26883262852E+01  0.51109989000E-03 0. -1.
      611    1    3    3    0    0 -0.28660745580E-02  0.14848722961E-01  0.22714276705E+01  0.22714780700E+01  0.51109989000E-03 0.  1.
       11    1    1    2    0    0  0.25080368644E-01 -0.18911807649E-02  0.16400026764E+01  0.16401956106E+01  0.51109989000E-03 0.  1.
     -623    1    1    2    0    0 -0.21019691974E-02 -0.25250006154E-02  0.33887254699E-03  0.17124000003E+03  0.17124000000E+03 0.  1.
</event>
<event>
 7   1  0.1909700E+02  0.9118800E+02  0.7818608E-02  0.1180000E+00
       11   -1    0    0    0    0  0.00000000000E+00  0.00000000000E+00  0.65999999802E+01  0.66000000000E+01  0.51109989000E-03 0.  1.
     -623   -1    0    0    0    0  0.00000000000E+00  0.00000000000E+00  0.75637274222E-11  0.17124000000E+03  0.17124000000E+03 0. -1.
      622    2    1    2    0    0  0.71155012075E-02  0.30481349517E-03  0.49555602591E+01  0.49556561830E+01  0.29999999985E-01 0.  0.
     -611    1    3    3    0    0 -0.10736455295E-01 -0.76895260636E-03  0.28338742336E+01  0.28338947221E+01  0.51109989000E-03 0.  1.
      611    1    3    3    0    0  0.17851956503E-01  0.10737661015E-02  0.21216860254E+01  0.21217614609E+01  0.51109989000E-03 0. -1.
       11    1    1    2    0    0 -0.68495080401E-02  0.58306120056E-04  0.16443294678E+01  0.16443438141E+01  0.51109989000E-03 0.  1.
     -623    1    1    2    0    0 -0.26599317056E-03 -0.36311961536E-03  0.11025114572E-03  0.17124000000E+03  0.17124000000E+03 0. -1.
</event>
<event>
 7   1  0.1909700E+02  0.9118800E+02  0.7818608E-02  0.1180000E+00
       11   -1    0    0    0    0  0.00000000000E+00  0.00000000000E+00  0.65999999802E+01  0.66000000000E+01  0.51109989000E-03 0.  1.
     -623   -1    0    0    0    0  0.00000000000E+00  0.00000000000E+00  0.75637274222E-11  0.17124000000E+03  0.17124000000E+03 0.  1.
      622    2    1    2    0    0  0.76907920928E-02  0.23210752922E-02  0.64846687818E+01  0.64847431518E+01  0.29999998782E-01 0.  0.
     -611    1    3    3    0    0 -0.10082921392E-01  0.41607178487E-02  0.37527105199E+01  0.37527264068E+01  0.51109989000E-03 0.  1.
      611    1    3    3    0    0  0.17773713485E-01 -0.18396425565E-02  0.27319582619E+01  0.27320167450E+01  0.51109989000E-03 0. -1.
       11    1    1    2    0    0 -0.63021835896E-02 -0.33356441333E-02  0.11503492131E+00  0.11525683660E+00  0.51109989000E-03 0.  1.
     -623    1    1    2    0    0 -0.13886085064E-02  0.10145688401E-02  0.29627442790E-03  0.17124000001E+03  0.17124000000E+03 0.  1.
</event>
<event>
 7   1  0.1909700E+02  0.9118800E+02  0.7818608E-02  0.1180000E+00
       11   -1    0    0    0    0  0.00000000000E+00  0.00000000000E+00  0.65999999802E+01  0.66000000000E+01  0.51109989000E-03 0. -1.
     -623   -1    0    0    0    0  0.00000000000E+00  0.00000000000E+00  0.75637274222E-11  0.17124000000E+03  0.17124000000E+03 0.  1.
      622    2    1    2    0    0 -0.24248291479E-02 -0.27176742771E-02  0.65847384097E+01  0.65848077564E+01  0.29999999763E-01 0.  0.
     -611    1    3    3    0    0  0.11124660295E-01 -0.78615354409E-02  0.20024281492E+01  0.20024745481E+01  0.51109989000E-03 0.  1.
      611    1    3    3    0    0 -0.13549489443E-01  0.51438611638E-02  0.45823102605E+01  0.45823332084E+01  0.51109989000E-03 0. -1.
       11    1    1    2    0    0 -0.25056761536E-03 -0.62523746359E-05  0.15181531960E-01  0.15192200549E-01  0.51109989000E-03 0. -1.
     -623    1    1    2    0    0  0.26753967634E-02  0.27239266519E-02  0.80038164312E-04  0.17124000004E+03  0.17124000000E+03 0.  1.
</event>
<event>
 7   1  0.1909700E+02  0.9118800E+02  0.7818608E-02  0.1180000E+00
       11   -1    0    0    0    0  0.00000000000E+00  0.00000000000E+00  0.65999999802E+01  0.66000000000E+01  0.51109989000E-03 0. -1.
     -623   -1    0    0    0    0  0.00000000000E+00  0.00000000000E+00  0.75637274222E-11  0.17124000000E+03  0.17124000000E+03 0.  1.
      622    2    1    2    0    0  0.90529590321E-02  0.60082090992E-02  0.23056566485E+01  0.23058774112E+01  0.29999999925E-01 0.  0.
     -611    1    3    3    0    0  0.41433108792E-03 -0.11536088468E-01  0.11174258557E+01  0.11174855960E+01  0.51109989000E-03 0. -1.
      611    1    3    3    0    0  0.86386279442E-02  0.17544297567E-01  0.11882307928E+01  0.11883918152E+01  0.51109989000E-03 0.  1.
       11    1    1    2    0    0 -0.23286030399E-02 -0.35573323281E-02  0.42941203048E+01  0.42941224401E+01  0.51109989000E-03 0. -1.
     -623    1    1    2    0    0 -0.67243559881E-02 -0.24508767684E-02  0.22302788608E-03  0.17124000015E+03  0.17124000000E+03 0.  1.
</event>
<event>
 7   1  0.1909700E+02  0.9118800E+02  0.7818608E-02  0.1180000E+00
       11   -1    0    0    0    0  0.00000000000E+00  0.00000000000E+00  0.65999999802E+01  0.66000000000E+01  0.51109989000E-03 0.  1.
     -623   -1    0    0    0    0  0.00000000000E+00  0.00000000000E+00  0.75637274222E-11  0.17124000000E+03  0.17124000000E+03 0.  1.
      622    2    1    2    0    0 -0.27490709009E-02  0.27564549178E-02  0.59333516956E+01  0.59334288147E+01  0.29999999573E-01 0.  0.
     -611    1    3    3    0    0 -0.11568711533E-01 -0.35436471740E-02  0.49903484633E+01  0.49903631570E+01  0.51109989000E-03 0. -1.
      611    1    3    3    0    0  0.88196406324E-02  0.63001020918E-02  0.94300323230E+00  0.94306565768E+00  0.51109989000E-03 0.  1.
       11    1    1    2    0    0  0.27281836467E-02 -0.23940034846E-02  0.66656110538E+00  0.66657118349E+00  0.51109989000E-03 0.  1.
     -623    1    1    2    0    0  0.20887254860E-04 -0.36245143382E-03  0.87177838251E-04  0.17124000000E+03  0.17124000000E+03 0.  1.
</event>
<event>
 7   1  0.1909700E+02  0.9118800E+02  0.7818608E-02  0.1180000E+00
       11   -1    0    0    0    0  0.00000000000E+00  0.00000000000E+00  0.65999999802E+01  0.66000000000E+01  0.51109989000E-03 0.  1.
     -623   -1    0    0    0    0  0.00000000000E+00  0.00000000000E+00  0.75637274222E-11  0.17124000000E+03  0.17124000000E+03 0.  1.
      622    2    1    2    0    0 -0.26208271642E-02  0.11799836402E-01  0.27128971609E+01  0.27130899563E+01  0.30000000395E-01 0.  0.
     -611    1    3    3    0    0 -0.10341414317E-01  0.29666691916E-02  0.23015891222E+01  0.23016143236E+01  0.51109989000E-03 0.  1.
      611    1    3    3    0    0  0.77205871526E-02  0.88331672104E-02  0.41130803870E+00  0.41147563261E+00  0.51109989000E-03 0. -1.
       11    1    1    2    0    0  0.19125309271E-02 -0.11681469325E-01  0.38868919825E+01  0.38869100400E+01  0.51109989000E-03 0.  1.
     -623    1    1    2    0    0  0.70829623905E-03 -0.11836708598E-03  0.21083470662E-03  0.17124000000E+03  0.17124000000E+03 0.  1.
</event>
<event>
 7   1  0.1909700E+02  0.9118800E+02  0.7818608E-02  0.1180000E+00
       11   -1    0    0    0    0  0.00000000000E+00  0.00000000000E+00  0.65999999802E+01  0.66000000000E+01  0.51109989000E-03 0. -1.
     -623   -1    0    0    0    0  0.00000000000E+00  0.00000000000E+00  0.75637274222E-11  0.17124000000E+03  0.17124000000E+03 0. -1.
      622    2    1    2    0    0  0.10805344617E-01 -0.55581468774E-02  0.60287938187E+01  0.60288807052E+01  0.29999999973E-01 0.  0.
     -611    1    3    3    0    0  0.10180629336E-01 -0.63277409132E-04  0.58310479512E+01  0.58310568613E+01  0.51109989000E-03 0. -1.
      611    1    3    3    0    0  0.62471528086E-03 -0.54948694683E-02  0.19774586755E+00  0.19782384390E+00  0.51109989000E-03 0.  1.
       11    1    1    2    0    0 -0.12159560593E-01  0.51712785391E-02  0.57096618090E+00  0.57111928525E+00  0.51109989000E-03 0. -1.
     -623    1    1    2    0    0  0.13542159701E-02  0.38686834171E-03  0.23997697636E-03  0.17124000001E+03  0.17124000000E+03 0. -1.
</event>
<event>
 7   1  0.1909700E+02  0.9118800E+02  0.7818608E-02  0.1180000E+00
       11   -1    0    0    0    0  0.00000000000E+00  0.00000000000E+00  0.65999999802E+01  0.66000000000E+01  0.51109989000E-03 0.  1.
     -623   -1    0    0    0    0  0.00000000000E+00  0.00000000000E+00  0.75637274222E-11  0.17124000000E+03  0.17124000000E+03 0. -1.
      622    2    1    2    0    0  0.76553006660E-03  0.31312205657E-03  0.60583125923E+01  0.60583869264E+01  0.30000001447E-01 0.  0.
     -611    1    3    3    0    0  0.12303612801E-01 -0.43099931015E-02  0.46802186446E+01  0.46802368292E+01  0.51109989000E-03 0.  1.
      611    1    3    3    0    0 -0.11538082734E-01  0.46231151581E-02  0.13780939477E+01  0.13781500973E+01  0.51109989000E-03 0. -1.
       11    1    1    2    0    0 -0.67453945181E-03  0.33684314706E-03  0.54161230686E+00  0.54161307281E+00  0.51109989000E-03 0.  1.
     -623    1    1    2    0    0 -0.90990614725E-04 -0.64996520361E-03  0.75081552571E-04  0.17124000000E+03  0.17124000000E+03 0. -1.
</event>
<event>
 7   1  0.1909700E+02  0.9118800E+02  0.7818608E-02  0.1180000E+00
       11   -1    0    0    0    0  0.00000000000E+00  0.00000000000E+00  0.65999999802E+01  0.66000000000E+01  0.51109989000E-03 0.  1.
     -623   -1    0    0    0    0  0.00000000000E+00  0.00000000000E+00  0.75637274222E-11  0.17124000000E+03  0.17124000000E+03 0. -1.
      622    2    1    2    0    0  0.33537828111E-03 -0.19095225657E-02  0.65440977668E+01  0.65441668178E+01  0.29999999719E-01 0.  0.
     -611    1    3    3    0    0 -0.10831677053E-01 -0.55219878737E-02  0.13262264642E+01  0.13262822902E+01  0.51109989000E-03 0. -1.
      611    1    3    3    0    0  0.11167055334E-01  0.36124653080E-02  0.52178713026E+01  0.52178845277E+01  0.51109989000E-03 0.  1.
       11    1    1    2    0    0 -0.14776626355E-02  0.20652839538E-02  0.55773054760E-01  0.55833177803E-01  0.51109989000E-03 0.  1.
     -623    1    1    2    0    0  0.11422843544E-02 -0.15576138792E-03  0.12915826547E-03  0.17124000000E+03  0.17124000000E+03 0. -1.
</event>
<event>
 7   1  0.1909700E+02  0.9118800E+02  0.7818608E-02  0.1180000E+00
       11   -1    0    0    0    0  0.00000000000E+00  0.00000000000E+00  0.65999999802E+01  0.66000000000E+01  0.51109989000E-03 0. -1.
     -623   -1    0    0    0    0  0.00000000000E+00  0.00000000000E+00  0.75637274222E-11  0.17124000000E+03  0.17124000000E+03 0. -1.
      622    2    1    2    0    0 -0.56469586881E-03  0.77557103452E-03  0.65986413432E+01  0.65987096085E+01  0.29999999791E-01 0.  0.
     -611    1    3    3    0    0  0.58621838012E-02  0.13671903255E-01  0.40640332737E+01  0.40640605307E+01  0.51109989000E-03 0. -1.
      611    1    3    3    0    0 -0.64268796700E-02 -0.12896332220E-01  0.25346080695E+01  0.25346490778E+01  0.51109989000E-03 0.  1.
       11    1    1    2    0    0 -0.56149681027E-03 -0.31143477847E-03  0.99578815607E-03  0.12903819934E-02  0.51109989000E-03 0. -1.
     -623    1    1    2    0    0  0.11261926795E-02 -0.46413625661E-03  0.36284401591E-03  0.17124000000E+03  0.17124000000E+03 0. -1.
</event>
<event>
 7   1  0.1909700E+02  0.9118800E+02  0.7818608E-02  0.1180000E+00
       11   -1    0    0    0    0  0.00000000000E+00  0.00000000000E+00  0.65999999802E+01  0.66000000000E+01  0.51109989000E-03 0. -1.
     -623   -1    0    0    0    0  0.00000000000E+00  0.00000000000E+00  0.75637274222E-11  0.17124000000E+03  0.17124000000E+03 0. -1.
      622    2    1    2    0    0 -0.21590271899E-01  0.21252517867E-01  0.59596276869E+01  0.59597801953E+01  0.30000000308E-01 0.  0.
     -611    1    3    3    0    0 -0.37668614959E-02  0.81578835674E-02  0.37250003090E+00  0.37260874192E+00  0.51109989000E-03 0.  1.
      611    1    3    3    0    0 -0.17823410403E-01  0.13094634300E-01  0.55871276560E+01  0.55871714533E+01  0.51109989000E-03 0. -1.
       11    1    1    2    0    0  0.20500076050E-01 -0.17019593009E-01  0.63966486264E+00  0.64021974148E+00  0.51109989000E-03 0. -1.
     -623    1    1    2    0    0  0.10901958714E-02 -0.42329248792E-02  0.70742467020E-03  0.17124000006E+03  0.17124000000E+03 0. -1.
</event>
<event>
 7   1  0.1909700E+02  0.9118800E+02  0.7818608E-02  0.1180000E+00
       11   -1    0    0    0    0  0.00000000000E+00  0.00000000000E+00  0.65999999802E+01  0.66000000000E+01  0.51109989000E-03 0.  1.
     -623   -1    0    0    0    0  0.00000000000E+00  0.00000000000E+00  0.75637274222E-11  0.17124000000E+03  0.17124000000E+03 0. -1.
      622    2    1    2    0    0 -0.66545584439E-02 -0.14339986839E-01  0.46524002205E+01  0.46525238022E+01  0.30000000170E-01 0.  0.
     -611    1    3    3    0    0 -0.32911285641E-02  0.51347582479E-02  0.23604480131E+00  0.23612413413E+00  0.51109989000E-03 0. -1.
      611    1    3    3    0    0 -0.33634298798E-02 -0.19474745087E-01  0.44163554191E+01  0.44163996680E+01  0.51109989000E-03 0.  1.
       11    1    1    2    0    0  0.65997938390E-03  0.11194843435E-01  0.19474437096E+01  0.19474760649E+01  0.51109989000E-03 0.  1.
     -623    1    1    2    0    0  0.59945790587E-02  0.31451434014E-02  0.15605110759E-03  0.17124000013E+03  0.17124000000E+03 0. -1.
</event>
<event>
 7   1  0.1909700E+02  0.9118800E+02  0.7818608E-02  0.1180000E+00
       11   -1    0    0    0    0  0.00000000000E+00  0.00000000000E+00  0.65999999802E+01  0.66000000000E+01  0.51109989000E-03 0.  1.
     -623   -1    0    0    0    0  0.00000000000E+00  0.00000000000E+00  0.75637274222E-11  0.17124000000E+03  0.17124000000E+03 0.  1.
      622    2    1    2    0    0 -0.38920336022E-02 -0.68332058949E-03  0.59117060801E+01  0.59117835204E+01  0.29999999912E-01 0.  0.
     -611    1    3    3    0    0 -0.73650156403E-02  0.10442107714E-02  0.58063977747E+01  0.58064025621E+01  0.51109989000E-03 0.  1.
      611    1    3    3    0    0  0.34729820380E-02 -0.17275313609E-02  0.10530830542E+00  0.10538095835E+00  0.51109989000E-03 0. -1.
       11    1    1    2    0    0  0.39952684596E-02  0.29940203504E-02  0.68819816241E+00  0.68821646180E+00  0.51109989000E-03 0.  1.
     -623    1    1    2    0    0 -0.10323485592E-03 -0.23106997606E-02  0.95735579356E-04  0.17124000002E+03  0.17124000000E+03 0.  1.
</event>
<event>
 7   1  0.1909700E+02  0.9118800E+02  0.7818608E-02  0.1180000E+00
       11   -1    0    0    0    0  0.00000000000E+00  0.00000000000E+00  0.65999999802E+01  0.66000000000E+01  0.51109989000E-03 0. -1.
     -623   -1    0    0    0    0  0.00000000000E+00  0.00000000000E+00  0.75637274222E-11  0.17124000000E+03  0.17124000000E+03 0.  1.
      622    2    1    2    0    0 -0.77945781737E-02 -0.10380097178E-01  0.57375235835E+01  0.57376166980E+01  0.30000000097E-01 0.  0.
     -611    1    3    3    0    0  0.11525456415E-01 -0.39356906306E-02  0.23963999203E+01  0.23964309222E+01  0.51109989000E-03 0.  1.
      611    1    3    3    0    0 -0.19320034588E-01 -0.64444065476E-02  0.33411236632E+01  0.33411857758E+01  0.51109989000E-03 0. -1.
       11    1    1    2    0    0  0.76929234158E-02  0.10454998308E-01  0.86228545932E+00  0.86238330378E+00  0.51109989000E-03 0. -1.
     -623    1    1    2    0    0  0.10165475524E-03 -0.74901133102E-04  0.19093932305E-03  0.17124000000E+03  0.17124000000E+03 0.  1.
</event>
<event>
 7   1  0.1909700E+02  0.9118800E+02  0.7818608E-02  0.1180000E+00
       11   -1    0    0    0    0  0.00000000000E+00  0.00000000000E+00  0.65999999802E+01  0.66000000000E+01  0.51109989000E-03 0.  1.
     -623   -1    0    0    0    0  0.00000000000E+00  0.00000000000E+00  0.75637274222E-11  0.17124000000E+03  0.17124000000E+03 0.  1.
      622    2    1    2    0    0  0.14938073085E-01 -0.88517397785E-02  0.27711702363E+01  0.27713870134E+01  0.30000000215E-01 0.  0.
     -611    1    3    3    0    0  0.14888403592E-01  0.38429554728E-02  0.66294035563E+00  0.66311884999E+00  0.51109989000E-03 0.  1.
      611    1    3    3    0    0  0.49669493460E-04 -0.12694695251E-01  0.21082298807E+01  0.21082681634E+01  0.51109989000E-03 0. -1.
       11    1    1    2    0    0 -0.22731852681E-01  0.10929496172E-01  0.38285296743E+01  0.38286127931E+01  0.51109989000E-03 0.  1.
     -623    1    1    2    0    0  0.77937795787E-02 -0.20777563835E-02  0.30006628805E-03  0.17124000019E+03  0.17124000000E+03 0.  1.
</event>
<event>
 7   1  0.1909700E+02  0.9118800E+02  0.7818608E-02  0.1180000E+00
       11   -1    0    0    0    0  0.00000000000E+00  0.00000000000E+00  0.65999999802E+01  0.66000000000E+01  0.51109989000E-03 0. -1.
     -623   -1    0    0    0    0  0.00000000000E+00  0.00000000000E+00  0.75637274222E-11  0.17124000000E+03  0.17124000000E+03 0. -1.
      622    2    1    2    0    0  0.13140328726E-02 -0.48881679336E-03  0.65900201036E+01  0.65900885375E+01  0.30000000274E-01 0.  0.
     -611    1    3    3    0    0  0.13426188452E-01  0.73175277906E-03  0.16999085305E+01  0.16999617853E+01  0.51109989000E-03 0.  1.
      611    1    3    3    0    0 -0.12112155579E-01 -0.12205695724E-02  0.48901115731E+01  0.48901267522E+01  0.51109989000E-03 0. -1.
       11    1    1    2    0    0 -0.11316946094E-02  0.85144507068E-03  0.97964326413E-02  0.99114582346E-02  0.51109989000E-03 0. -1.
     -623    1    1    2    0    0 -0.18233826394E-03 -0.36262827705E-03  0.18344024550E-03  0.17124000000E+03  0.17124000000E+03 0. -1.
</event>
<event>
 7   1  0.1909700E+02  0.9118800E+02  0.7818608E-02  0.1180000E+00
       11   -1    0    0    0    0  0.00000000000E+00  0.00000000000E+00  0.65999999802E+01  0.66000000000E+01  0.51109989000E-03 0. -1.
     -623   -1    0    0    0    0  0.00000000000E+00  0.00000000000E+00  0.75637274222E-11  0.17124000000E+03  0.17124000000E+03 0.  1.
      622    2    1    2    0    0  0.43627568288E-01  0.51110143835E-01  0.48541384643E+01  0.48546962667E+01  0.29999999560E-01 0.  0.
     -611    1    3    3    0    0  0.42871761866E-01  0.39110064216E-01  0.32922759865E+01  0.32927874237E+01  0.51109989000E-03 0. -1.
      611    1    3    3    0    0  0.75580642227E-03  0.12000079619E-01  0.15618624778E+01  0.15619088430E+01  0.51109989000E-03 0.  1.
       11    1    1    2    0    0 -0.48991562914E-01 -0.52192676223E-01  0.17438349295E+01  0.17453036329E+01  0.51109989000E-03 0. -1.
     -623    1    1    2    0    0  0.53639946174E-02  0.10825323784E-02  0.20265855310E-02  0.17124000010E+03  0.17124000000E+03 0.  1.
</event>
<event>
 7   1  0.1909700E+02  0.9118800E+02  0.7818608E-02  0.1180000E+00
       11   -1    0    0    0    0  0.00000000000E+00  0.00000000000E+00  0.65999999802E+01  0.66000000000E+01  0.51109989000E-03 0. -1.
     -623   -1    0    0    0    0  0.00000000000E+00  0.00000000000E+00  0.75637274222E-11  0.17124000000E+03  0.17124000000E+03 0.  1.
      622    2    1    2    0    0  0.76680621189E-02  0.27794521919E-02  0.58062089050E+01  0.58062921364E+01  0.29999999836E-01 0.  0.
     -611    1    3    3    0    0 -0.33227595056E-02  0.43929868199E-02  0.21193963024E+00  0.21201180899E+00  0.51109989000E-03 0.  1.
      611    1    3    3    0    0  0.10990821625E-01 -0.16135346280E-02  0.55942692747E+01  0.55942803274E+01  0.51109989000E-03 0. -1.
       11    1    1    2    0    0 -0.72376650419E-02 -0.36673403020E-02  0.79366621360E+00  0.79370785117E+00  0.51109989000E-03 0. -1.
     -623    1    1    2    0    0 -0.43039708969E-03  0.88788810550E-03  0.12485206136E-03  0.17124000000E+03  0.17124000000E+03 0.  1.
</event>
<event>
 7   1  0.1909700E+02  0.9118800E+02  0.7818608E-02  0.1180000E+00
       11   -1    0    0    0    0  0.00000000000E+00  0.00000000000E+00  0.65999999802E+01  0.66000000000E+01  0.51109989000E-03 0. -1.
     -623   -1    0    0    0    0  0.00000000000E+00  0.00000000000E+00  0.75637274222E-11  0.17124000000E+03  0.17124000000E+03 0. -1.
      622    2    1    2    0    0 -0.12395931462E-02 -0.13707112109E-01  0.63159194515E+01  0.63160056950E+01  0.29999999694E-01 0.  0.
     -611    1    3    3    0    0  0.15279409253E-02  0.32824837689E-02  0.10717219536E+00  0.10723455592E+00  0.51109989000E-03 0.  1.
      611    1    3    3    0    0 -0.27675340715E-02 -0.16989595878E-01  0.62087472561E+01  0.62087711391E+01  0.51109989000E-03 0. -1.
       11    1    1    2    0    0 -0.15979806210E-03  0.15464091976E-01  0.28357244167E+00  0.28399428617E+00  0.51109989000E-03 0. -1.
     -623    1    1    2    0    0  0.13993912090E-02 -0.17569798596E-02  0.50808370196E-03  0.17124000002E+03  0.17124000000E+03 0. -1.
</event>
<event>
 7   1  0.1909700E+02  0.9118800E+02  0.7818608E-02  0.1180000E+00
       11   -1    0    0    0    0  0.00000000000E+00  0.00000000000E+00  0.65999999802E+01  0.66000000000E+01  0.51109989000E-03 0. -1.
     -623   -1    0    0    0    0  0.00000000000E+00  0.00000000000E+00  0.75637274222E-11  0.17124000000E+03  0.17124000000E+03 0. -1.
      622    2    1    2    0    0  0.27222252165E-02  0.26403436718E-02  0.65818291152E+01  0.65818985774E+01  0.29999999773E-01 0.  0.
     -611    1    3    3    0    0 -0.59626023819E-02 -0.29694853284E-02  0.36675646897E+00  0.36681731042E+00  0.51109989000E-03 0.  1.
      611    1    3    3    0    0  0.86848275984E-02  0.56098290002E-02  0.62150726462E+01  0.62150812670E+01  0.51109989000E-03 0. -1.
       11    1    1    2    0    0 -0.22055204642E-02 -0.98998314700E-03  0.17931962125E-01  0.18101405318E-01  0.51109989000E-03 0. -1.
     -623    1    1    2    0    0 -0.51670475573E-03 -0.16503605281E-02  0.23889454205E-03  0.17124000001E+03  0.17124000000E+03 0. -1.
</event>
<event>
 7   1  0.1909700E+02  0.9118800E+02  0.7818608E-02  0.1180000E+00
       11   -1    0    0    0    0  0.00000000000E+00  0.00000000000E+00  0.65999999802E+01  0.66000000000E+01  0.51109989000E-03 0.  1.
     -623   -1    0    0    0    0  0.00000000000E+00  0.00000000000E+00  0.75637274222E-11  0.17124000000E+03  0.17124000000E+03 0. -1.
      622    2    1    2    0    0  0.36166323219E-03 -0.76115537932E-04  0.63877119542E+01  0.63877824123E+01  0.29999999726E-01 0.  0.
     -611    1    3    3    0    0 -0.13976894717E-02  0.14782495131E-01  0.35252029342E+01  0.35252342424E+01  0.51109989000E-03 0.  1.
      611    1    3    3    0    0  0.17593527039E-02 -0.14858610669E-01  0.28625090200E+01  0.28625481698E+01  0.51109989000E-03 0. -1.
       11    1    1    2    0    0  0.10900573181E-03  0.27980096210E-03  0.21221675835E+00  0.21221758625E+00  0.51109989000E-03 0.  1.
     -623    1    1    2    0    0 -0.47066896404E-03 -0.20368542416E-03  0.71266967541E-04  0.17124000000E+03  0.17124000000E+03 0. -1.
</event>
<event>
 7   1  0.1909700E+02  0.9118800E+02  0.7818608E-02  0.1180000E+00
       11   -1    0    0    0    0  0.00000000000E+00  0.00000000000E+00  0.65999999802E+01  0.66000000000E+01  0.51109989000E-03 0.  1.
     -623   -1    0    0    0    0  0.00000000000E+00  0.00000000000E+00  0.75637274222E-11  0.17124000000E+03  0.17124000000E+03 0.  1.
      622    2    1    2    0    0  0.10083395875E-03  0.71406922527E-02  0.64694253817E+01  0.64694988808E+01  0.29999999174E-01 0.  0.
     -611    1    3    3    0    0 -0.10609348174E-02 -0.97453098406E-02  0.10210596228E+01  0.10211068070E+01  0.51109989000E-03 0.  1.
      611    1    3    3    0    0  0.11617687761E-02  0.16886002093E-01  0.54483657589E+01  0.54483920738E+01  0.51109989000E-03 0. -1.
       11    1    1    2    0    0 -0.13661781338E-02 -0.44433036075E-02  0.13041726719E+00  0.13050108886E+00  0.51109989000E-03 0.  1.
     -623    1    1    2    0    0  0.12653441750E-02 -0.26973886500E-02  0.15732700423E-03  0.17124000003E+03  0.17124000000E+03 0.  1.
</event>
<event>
 7   1  0.1909700E+02  0.9118800E+02  0.7818608E-02  0.1180000E+00
       11   -1    0    0    0    0  0.00000000000E+00  0.00000000000E+00  0.65999999802E+01  0.66000000000E+01  0.51109989000E-03 0. -1.
     -623   -1    0    0    0    0  0.00000000000E+00  0.00000000000E+00  0.75637274222E-11  0.17124000000E+03  0.17124000000E+03 0.  1.
      622    2    1    2    0    0  0.10787643800E-02  0.60184544219E-03  0.64939200932E+01  0.64939895059E+01  0.29999999522E-01 0.  0.
     -611    1    3    3    0    0 -0.10816985049E-01 -0.63892242868E-02  0.46789302241E+01  0.46789471180E+01  0.51109989000E-03 0. -1.
      611    1    3    3    0    0  0.11895749429E-01  0.69910697290E-02  0.18149898690E+01  0.18150423879E+01  0.51109989000E-03 0.  1.
       11    1    1    2    0    0 -0.12418126489E-02 -0.37589069090E-03  0.10600132303E+00  0.10601049522E+00  0.51109989000E-03 0. -1.
     -623    1    1    2    0    0  0.16304826912E-03 -0.22595475117E-03  0.78565357785E-04  0.17124000000E+03  0.17124000000E+03 0.  1.
</event>
<event>
 7   1  0.1909700E+02  0.9118800E+02  0.7818608E-02  0.1180000E+00
       11   -1    0    0    0    0  0.00000000000E+00  0.00000000000E+00  0.65999999802E+01  0.66000000000E+01  0.51109989000E-03 0.  1.
     -623   -1    0    0    0    0  0.00000000000E+00  0.00000000000E+00  0.75637274222E-11  0.17124000000E+03  0.17124000000E+03 0.  1.
      622    2    1    2    0    0  0.57516276819E-03 -0.33624630510E-02  0.61331089644E+01  0.61331832849E+01  0.30000000215E-01 0.  0.
     -611    1    3    3    0    0 -0.14028855508E-02 -0.12697233428E-01  0.53602814842E+01  0.53602967305E+01  0.51109989000E-03 0.  1.
      611    1    3    3    0    0  0.19780483190E-02  0.93347703770E-02  0.77282748023E+00  0.77288655444E+00  0.51109989000E-03 0. -1.
       11    1    1    2    0    0  0.49681964914E-03  0.41012171488E-02  0.46679814426E+00  0.46681670441E+00  0.51109989000E-03 0.  1.
     -623    1    1    2    0    0 -0.10719824179E-02 -0.73875409465E-03  0.92865844097E-04  0.17124000000E+03  0.17124000000E+03 0.  1.
</event>
<event>
 7   1  0.1909700E+02  0.9118800E+02  0.7818608E-02  0.1180000E+00
       11   -1    0    0    0    0  0.00000000000E+00  0.00000000000E+00  0.65999999802E+01  0.66000000000E+01  0.51109989000E-03 0.  1.
     -623   -1    0    0    0    0  0.00000000000E+00  0.00000000000E+00  0.75637274222E-11  0.17124000000E+03  0.17124000000E+03 0.  1.
      622    2    1    2    0    0  0.64013657042E-04  0.51314907640E-02  0.65375464919E+01  0.65376173389E+01  0.30000000467E-01 0.  0.
     -611    1    3    3    0    0  0.11396536157E-02  0.10274743906E-01  0.78279169354E+00  0.78286011896E+00  0.51109989000E-03 0. -1.
      611    1    3    3    0    0 -0.10756399587E-02 -0.51432531420E-02  0.57547547984E+01  0.57547572199E+01  0.51109989000E-03 0.  1.
       11    1    1    2    0    0  0.26407341527E-02  0.14589002283E-02  0.62307414263E-01  0.62382505233E-01  0.51109989000E-03 0.  1.
     -623    1    1    2    0    0 -0.27047478098E-02 -0.65903909983E-02  0.14606644565E-03  0.17124000015E+03  0.17124000000E+03 0.  1.
</event>
<event>
 7   1  0.1909700E+02  0.9118800E+02  0.7818608E-02  0.1180000E+00
       11   -1    0    0    0    0  0.00000000000E+00  0.00000000000E+00  0.65999999802E+01  0.66000000000E+01  0.51109989000E-03 0.  1.
     -623   -1    0    0    0    0  0.00000000000E+00  0.00000000000E+00  0.75637274222E-11  0.17124000000E+03  0.17124000000E+03 0.  1.
      622    2    1    2    0    0 -0.44557892576E-03 -0.30246912353E-02  0.62758096173E+01  0.62758820655E+01  0.30000001595E-01 0.  0.
     -611    1    3    3    0    0 -0.74590504981E-05  0.11053128247E-01  0.11537428063E+01  0.11537958641E+01  0.51109989000E-03 0. -1.
      611    1    3    3    0    0 -0.43811987526E-03 -0.14077819483E-01  0.51220668110E+01  0.51220862014E+01  0.51109989000E-03 0.  1.
       11    1    1    2    0    0 -0.85897370434E-02  0.43275632934E-02  0.32397454111E+00  0.32411768834E+00  0.51109989000E-03 0.  1.
     -623    1    1    2    0    0  0.90353159694E-02 -0.13028720568E-02  0.21581910737E-03  0.17124000024E+03  0.17124000000E+03 0.  1.
</event>
<event>
 7   1  0.1909700E+02  0.9118800E+02  0.7818608E-02  0.1180000E+00
       11   -1    0    0    0    0  0.00000000000E+00  0.00000000000E+00  0.65999999802E+01  0.66000000000E+01  0.51109989000E-03 0. -1.
     -623   -1    0    0    0    0  0.00000000000E+00  0.00000000000E+00  0.75637274222E-11  0.17124000000E+03  0.17124000000E+03 0. -1.
      622    2    1    2    0    0 -0.10567739134E-01 -0.59642599508E-02  0.65150781758E+01  0.65151585465E+01  0.30000001394E-01 0.  0.
     -611    1    3    3    0    0 -0.40807936630E-02 -0.11069337340E-01  0.93914749877E+00  0.93922173568E+00  0.51109989000E-03 0.  1.
      611    1    3    3    0    0 -0.64869454712E-02  0.51050773896E-02  0.55759306770E+01  0.55759368108E+01  0.51109989000E-03 0. -1.
       11    1    1    2    0    0  0.10300031570E-01  0.64495773711E-02  0.83965012535E-01  0.84841453600E-01  0.51109989000E-03 0. -1.
     -623    1    1    2    0    0  0.26770755828E-03 -0.48531742373E-03  0.95679557906E-03  0.17124000000E+03  0.17124000000E+03 0. -1.
</event>
<event>
 7   1  0.1909700E+02  0.9118800E+02  0.7818608E-02  0.1180000E+00
       11   -1    0    0    0    0  0.00000000000E+00  0.00000000000E+00  0.65999999802E+01  0.66000000000E+01  0.51109989000E-03 0. -1.
     -623   -1    0    0    0    0  0.00000000000E+00  0.00000000000E+00  0.75637274222E-11  0.17124000000E+03  0.17124000000E+03 0. -1.
      622    2    1    2    0    0 -0.74600631647E-02 -0.16677607360E-02  0.64349047332E+01  0.64349792042E+01  0.29999999303E-01 0.  0.
     -611    1    3    3    0    0 -0.37114301193E-02  0.70258397030E-02  0.57834528245E+01  0.57834583055E+01  0.51109989000E-03 0. -1.
      611    1    3    3    0    0 -0.37486330454E-02 -0.86936004390E-02  0.65145190864E+00  0.65152089869E+00  0.51109989000E-03 0.  1.
       11    1    1    2    0    0  0.51724694622E-02  0.86636458694E-02  0.16471106525E+00  0.16502063336E+00  0.51109989000E-03 0. -1.
     -623    1    1    2    0    0  0.22875937069E-02 -0.69958851324E-02  0.38417801163E-03  0.17124000016E+03  0.17124000000E+03 0. -1.
</event>
<event>
 7   1  0.1909700E+02  0.9118800E+02  0.7818608E-02  0.1180000E+00
       11   -1    0    0    0    0  0.00000000000E+00  0.00000000000E+00  0.65999999802E+01  0.66000000000E+01  0.51109989000E-03 0.  1.
     -623   -1    0    0    0    0  0.00000000000E+00  0.00000000000E+00  0.75637274222E-11  0.17124000000E+03  0.17124000000E+03 0.  1.
      622    2    1    2    0    0 -0.25122982158E-02  0.60168729395E-02  0.65757595186E+01  0.65758311840E+01  0.29999998529E-01 0.  0.
     -611    1    3    3    0    0  0.10080882807E-01  0.11050767335E-01  0.22160213503E+01  0.22160718918E+01  0.51109989000E-03 0. -1.
      611    1    3    3    0    0 -0.12593181023E-01 -0.50338943959E-02  0.43597381683E+01  0.43597592922E+01  0.51109989000E-03 0.  1.
       11    1    1    2    0    0 -0.46726056366E-02 -0.70961986670E-02  0.22620193616E-01  0.24168650331E-01  0.51109989000E-03 0.  1.
     -623    1    1    2    0    0  0.71849038538E-02  0.10793257240E-02  0.16202641560E-02  0.17124000016E+03  0.17124000000E+03 0.  1.
</event>
<event>
 7   1  0.1934881E+02  0.9118800E+02  0.7818608E-02  0.1180000E+00
       11   -1    0    0    0    0  0.00000000000E+00  0.00000000000E+00  0.65999999802E+01  0.66000000000E+01  0.51109989000E-03 0.  1.
     -623   -1    0    0    0    0  0.00000000000E+00  0.00000000000E+00  0.75637274222E-11  0.17124000000E+03  0.17124000000E+03 0.  1.
      622    2    1    2    0    0  0.00000000000E+00  0.00000000000E+00  0.65631414450E+01  0.65632100094E+01  0.29999999828E-01 0.  0.
     -611    1    3    3    0    0 -0.10644131303E-01 -0.96256611232E-02  0.23332962368E+01  0.23333404254E+01  0.51109989000E-03 0.  1.
      611    1    3    3    0    0  0.10644131303E-01  0.96256611232E-02  0.42298452083E+01  0.42298695840E+01  0.51109989000E-03 0. -1.
       11    1    1    2    0    0 -0.24383193124E-03  0.78712517470E-04  0.37341620477E-01  0.37345996996E-01  0.51109989000E-03 0.  1.
     -623    1    1    2    0    0  0.24383193124E-03 -0.78712517470E-04  0.72915503519E-04  0.17124000000E+03  0.17124000000E+03 0.  1.
</event>
<event>
 7   1  0.1909700E+02  0.9118800E+02  0.7818608E-02  0.1180000E+00
       11   -1    0    0    0    0  0.00000000000E+00  0.00000000000E+00  0.65999999802E+01  0.66000000000E+01  0.51109989000E-03 0.  1.
     -623   -1    0    0    0    0  0.00000000000E+00  0.00000000000E+00  0.75637274222E-11  0.17124000000E+03  0.17124000000E+03 0.  1.
      622    2    1    2    0    0  0.86573572703E-03  0.76288349160E-04  0.65955486825E+01  0.65956169673E+01  0.29999999567E-01 0.  0.
     -611    1    3    3    0    0 -0.92196673472E-02 -0.10768659093E-01  0.23830002948E+01  0.23830425159E+01  0.51109989000E-03 0. -1.
      611    1    3    3    0    0  0.10085403074E-01  0.10844947442E-01  0.42125483877E+01  0.42125744514E+01  0.51109989000E-03 0.  1.
       11    1    1    2    0    0 -0.35175390304E-03  0.40655165155E-03  0.43198064574E-02  0.43830312847E-02  0.51109989000E-03 0.  1.
     -623    1    1    2    0    0 -0.51398182398E-03 -0.48284000071E-03  0.13149128607E-03  0.17124000000E+03  0.17124000000E+03 0.  1.
</event>
<event>
 7   1  0.1909700E+02  0.9118800E+02  0.7818608E-02  0.1180000E+00
       11   -1    0    0    0    0  0.00000000000E+00  0.00000000000E+00  0.65999999802E+01  0.66000000000E+01  0.51109989000E-03 0. -1.
     -623   -1    0    0    0    0  0.00000000000E+00  0.00000000000E+00  0.75637274222E-11  0.17124000000E+03  0.17124000000E+03 0.  1.
      622    2    1    2    0    0  0.11223430262E-01 -0.16534281978E-01  0.58588602434E+01  0.58589711297E+01  0.29999999851E-01 0.  0.
     -611    1    3    3    0    0  0.13677918873E-01 -0.10556236559E-01  0.14070786875E+01  0.14071848541E+01  0.51109989000E-03 0.  1.
      611    1    3    3    0    0 -0.24544886111E-02 -0.59780454185E-02  0.44517815559E+01  0.44517862757E+01  0.51109989000E-03 0. -1.
       11    1    1    2    0    0  0.40617933905E-02  0.15176695785E-01  0.74086143529E+00  0.74102817611E+00  0.51109989000E-03 0. -1.
     -623    1    1    2    0    0 -0.15285223665E-01  0.13575862109E-02  0.27829521176E-03  0.17124000069E+03  0.17124000000E+03 0.  1.
</event>
<event>
 7   1  0.1909700E+02  0.9118800E+02  0.7818608E-02  0.1180000E+00
       11   -1    0    0    0    0  0.00000000000E+00  0.00000000000E+00  0.65999999802E+01  0.66000000000E+01  0.51109989000E-03 0. -1.
     -623   -1    0    0    0    0  0.00000000000E+00  0.00000000000E+00  0.75637274222E-11  0.17124000000E+03  0.17124000000E+03 0.  1.
      622    2    1    2    0    0 -0.20374073571E-02  0.56177684427E-02  0.61595013509E+01  0.61595773071E+01  0.30000000113E-01 0.  0.
     -611    1    3    3    0    0 -0.77000700332E-02  0.16084758696E-01  0.43625305576E+01  0.43625670353E+01  0.51109989000E-03 0.  1.
      611    1    3    3    0    0  0.56626626761E-02 -0.10466990254E-01  0.17969707934E+01  0.17970102718E+01  0.51109989000E-03 0. -1.
       11    1    1    2    0    0  0.83113430233E-02 -0.77622715491E-02  0.44027541936E+00  0.44042256686E+00  0.51109989000E-03 0. -1.
     -623    1    1    2    0    0 -0.62739356670E-02  0.21445031087E-02  0.22321241823E-03  0.17124000013E+03  0.17124000000E+03 0.  1.
</event>
<event>
 7   1  0.1909700E+02  0.9118800E+02  0.7818608E-02  0.1180000E+00
       11   -1    0    0    0    0  0.00000000000E+00  0.00000000000E+00  0.65999999802E+01  0.66000000000E+01  0.51109989000E-03 0. -1.
     -623   -1    0    0    0    0  0.00000000000E+00  0.00000000000E+00  0.75637274222E-11  0.17124000000E+03  0.17124000000E+03 0.  1.
      622    2    1    2    0    0 -0.12408636425E-02  0.82221060408E-03  0.65915670095E+01  0.65916354462E+01  0.29999999918E-01 0.  0.
     -611    1    3    3    0    0 -0.73919096529E-02 -0.10123796382E-01  0.14855544651E+01  0.14856074386E+01  0.51109989000E-03 0.  1.
      611    1    3    3    0    0  0.61510460104E-02  0.10946006986E-01  0.51060125444E+01  0.51060280077E+01  0.51109989000E-03 0. -1.
       11    1    1    2    0    0 -0.16271983726E-02 -0.37733651826E-02  0.72675662969E-02  0.83644963734E-02  0.51109989000E-03 0. -1.
     -623    1    1    2    0    0  0.28680620159E-02  0.29511545781E-02  0.11654004767E-02  0.17124000005E+03  0.17124000000E+03 0.  1.
</event>
<event>
 7   1  0.1909700E+02  0.9118800E+02  0.7818608E-02  0.1180000E+00
       11   -1    0    0    0    0  0.00000000000E+00  0.00000000000E+00  0.65999999802E+01  0.66000000000E+01  0.51109989000E-03 0. -1.
     -623   -1    0    0    0    0  0.00000000000E+00  0.00000000000E+00  0.75637274222E-11  0.17124000000E+03  0.17124000000E+03 0. -1.
      622    2    1    2    0    0 -0.20920527448E-03  0.10581640655E-01  0.57297571901E+01  0.57298455016E+01  0.29999999824E-01 0.  0.
     -611    1    3    3    0    0  0.63882518458E-02 -0.90201784953E-03  0.46821804392E+01  0.46821849119E+01  0.51109989000E-03 0. -1.
      611    1    3    3    0    0 -0.65974571203E-02  0.11483658504E-01  0.10475767509E+01  0.10476605897E+01  0.51109989000E-03 0.  1.
       11    1    1    2    0    0  0.50960195131E-03 -0.10293586530E-01  0.87009331007E+00  0.87015449609E+00  0.51109989000E-03 0. -1.
     -623    1    1    2    0    0 -0.30039667677E-03 -0.28805412816E-03  0.14947832610E-03  0.17124000000E+03  0.17124000000E+03 0. -1.
</event>
<event>
 7   1  0.1909700E+02  0.9118800E+02  0.7818608E-02  0.1180000E+00
       11   -1    0    0    0    0  0.00000000000E+00  0.00000000000E+00  0.65999999802E+01  0.66000000000E+01  0.51109989000E-03 0. -1.
     -623   -1    0    0    0    0  0.00000000000E+00  0.00000000000E+00  0.75637274222E-11  0.17124000000E+03  0.17124000000E+03 0.  1.
      622    2    1    2    0    0  0.22708283711E-03 -0.63634256523E-03  0.65722691284E+01  0.65723376323E+01  0.30000000427E-01 0.  0.
     -611    1    3    3    0    0 -0.28262508654E-02 -0.14776551881E-01  0.39333518724E+01  0.39333806767E+01  0.51109989000E-03 0. -1.
      611    1    3    3    0    0  0.30533337026E-02  0.14140209316E-01  0.26389172560E+01  0.26389569556E+01  0.51109989000E-03 0.  1.
       11    1    1    2    0    0 -0.19837125769E-03  0.42988867208E-03  0.27653584910E-01  0.27662359547E-01  0.51109989000E-03 0. -1.
     -623    1    1    2    0    0 -0.28711579704E-04  0.20645389393E-03  0.77258876366E-04  0.17124000000E+03  0.17124000000E+03 0.  1.
</event>
<event>
 7   1  0.1909700E+02  0.9118800E+02  0.7818608E-02  0.1180000E+00
       11   -1    0    0    0    0  0.00000000000E+00  0.00000000000E+00  0.65999999802E+01  0.66000000000E+01  0.51109989000E-03 0. -1.
     -623   -1    0    0    0    0  0.00000000000E+00  0.00000000000E+00  0.75637274222E-11  0.17124000000E+03  0.17124000000E+03 0. -1.
      622    2    1    2    0    0  0.84152719053E-02  0.44807945996E-04  0.47303537018E+01  0.47304563165E+01  0.30000000054E-01 0.  0.
     -611    1    3    3    0    0 -0.10551125624E-01  0.38518839806E-04  0.10349761493E+01  0.10350300568E+01  0.51109989000E-03 0. -1.
      611    1    3    3    0    0  0.18966397529E-01  0.62891061898E-05  0.36953775525E+01  0.36954262597E+01  0.51109989000E-03 0.  1.
       11    1    1    2    0    0  0.35529068595E-02  0.44050696036E-02  0.18695345745E+01  0.18695432101E+01  0.51109989000E-03 0. -1.
     -623    1    1    2    0    0 -0.11968178760E-01 -0.44498775496E-02  0.11170662776E-03  0.17124000048E+03  0.17124000000E+03 0. -1.
</event>
<event>
 7   1  0.1909700E+02  0.9118800E+02  0.7818608E-02  0.1180000E+00
       11   -1    0    0    0    0  0.00000000000E+00  0.00000000000E+00  0.65999999802E+01  0.66000000000E+01  0.51109989000E-03 0.  1.
     -623   -1    0    0    0    0  0.00000000000E+00  0.00000000000E+00  0.75637274222E-11  0.17124000000E+03  0.17124000000E+03 0. -1.
      622    2    1    2    0    0 -0.76391188141E-03 -0.85455627422E-03  0.62110318413E+01  0.62111043984E+01  0.29999999687E-01 0.  0.
     -611    1    3    3    0    0 -0.23373034199E-02 -0.26099462709E-02  0.86920630529E-01  0.86992712577E-01  0.51109989000E-03 0. -1.
      611    1    3    3    0    0  0.15733915385E-02  0.17553899967E-02  0.61241112108E+01  0.61241116858E+01  0.51109989000E-03 0.  1.
       11    1    1    2    0    0  0.56593978010E-03  0.94527259941E-03  0.38889370612E+00  0.38889560259E+00  0.51109989000E-03 0.  1.
     -623    1    1    2    0    0  0.19797210117E-03 -0.90716325342E-04  0.74433907507E-04  0.17124000000E+03  0.17124000000E+03 0. -1.
</event>
<event>
 7   1  0.1909700E+02  0.9118800E+02  0.7818608E-02  0.1180000E+00
       11   -1    0    0    0    0  0.00000000000E+00  0.00000000000E+00  0.65999999802E+01  0.66000000000E+01  0.51109989000E-03 0.  1.
     -623   -1    0    0    0    0  0.00000000000E+00  0.00000000000E+00  0.75637274222E-11  0.17124000000E+03  0.17124000000E+03 0.  1.
      622    2    1    2    0    0 -0.83001760314E-03  0.13963216022E-01  0.56424560482E+01  0.56425531381E+01  0.30000000423E-01 0.  0.
     -611    1    3    3    0    0 -0.11388480006E-02  0.79270139684E-03  0.13348991796E-01  0.13430642402E-01  0.51109989000E-03 0.  1.
      611    1    3    3    0    0  0.30883039748E-03  0.13170514625E-01  0.56291070564E+01  0.56291224957E+01  0.51109989000E-03 0.  1.
       11    1    1    2    0    0 -0.39956780028E-02 -0.16365813117E-01  0.95729842389E+00  0.95744678122E+00  0.51109989000E-03 0.  1.
     -623    1    1    2    0    0  0.48256956053E-02  0.24025971060E-02  0.24551247846E-03  0.17124000009E+03  0.17124000000E+03 0.  1.
</event>
<event>
 7   1  0.1909700E+02  0.9118800E+02  0.7818608E-02  0.1180000E+00
       11   -1    0    0    0    0  0.00000000000E+00  0.00000000000E+00  0.65999999802E+01  0.66000000000E+01  0.51109989000E-03 0. -1.
     -623   -1    0    0    0    0  0.00000000000E+00  0.00000000000E+00  0.75637274222E-11  0.17124000000E+03  0.17124000000E+03 0. -1.
      622    2    1    2    0    0 -0.12748009413E-02 -0.21233562747E-02  0.60013969576E+01  0.60014724507E+01  0.30000000952E-01 0.  0.
     -611    1    3    3    0    0  0.88944934196E-02  0.83816279243E-02  0.41374123255E+01  0.41374304074E+01  0.51109989000E-03 0. -1.
      611    1    3    3    0    0 -0.10169294361E-01 -0.10504984199E-01  0.18639846321E+01  0.18640420433E+01  0.51109989000E-03 0.  1.
       11    1    1    2    0    0  0.13725975830E-02  0.20167005155E-02  0.59852235722E+00  0.59852754692E+00  0.51109989000E-03 0. -1.
     -623    1    1    2    0    0 -0.97796641166E-04  0.10665575992E-03  0.80663095116E-04  0.17124000000E+03  0.17124000000E+03 0. -1.
</event>
<event>
 7   1  0.1909700E+02  0.9118800E+02  0.7818608E-02  0.1180000E+00
       11   -1    0    0    0    0  0.00000000000E+00  0.00000000000E+00  0.65999999802E+01  0.66000000000E+01  0.51109989000E-03 0.  1.
     -623   -1    0    0    0    0  0.00000000000E+00  0.00000000000E+00  0.75637274222E-11  0.17124000000E+03  0.17124000000E+03 0. -1.
      622    2    1    2    0    0  0.69179227539E-03  0.19576428525E-03  0.65933445537E+01  0.65934128432E+01  0.30000000552E-01 0.  0.
     -611    1    3    3    0    0  0.11349629847E-01 -0.18529837999E-02  0.55457825462E+01  0.55457944930E+01  0.51109989000E-03 0.  1.
      611    1    3    3    0    0 -0.10657837571E-01  0.20487480852E-02  0.10475620075E+01  0.10476183502E+01  0.51109989000E-03 0. -1.
       11    1    1    2    0    0 -0.58011629417E-03 -0.16252520305E-03  0.65396053513E-02  0.65871548595E-02  0.51109989000E-03 0. -1.
     -623    1    1    2    0    0 -0.11167598142E-03 -0.33239082252E-04  0.11581929480E-03  0.17124000000E+03  0.17124000000E+03 0. -1.
</event>
<event>
 7   1  0.1909700E+02  0.9118800E+02  0.7818608E-02  0.1180000E+00
       11   -1    0    0    0    0  0.00000000000E+00  0.00000000000E+00  0.65999999802E+01  0.66000000000E+01  0.51109989000E-03 0.  1.
     -623   -1    0    0    0    0  0.00000000000E+00  0.00000000000E+00  0.75637274222E-11  0.17124000000E+03  0.17124000000E+03 0.  1.
      622    2    1    2    0    0  0.10055898024E-02  0.19488983656E-02  0.65412572006E+01  0.65413263620E+01  0.29999996637E-01 0.  0.
     -611    1    3    3    0    0  0.11345891288E-01  0.23256943145E-02  0.11344011021E+01  0.11344603385E+01  0.51109989000E-03 0. -1.
      611    1    3    3    0    0 -0.10340301486E-01 -0.37679594889E-03  0.54068560986E+01  0.54068660235E+01  0.51109989000E-03 0.  1.
       11    1    1    2    0    0 -0.20400180770E-03 -0.29063930597E-02  0.58599015056E-01  0.58673627153E-01  0.51109989000E-03 0.  1.
     -623    1    1    2    0    0 -0.80158799566E-03  0.95749469220E-03  0.14375828461E-03  0.17124000000E+03  0.17124000000E+03 0.  1.
</event>
<event>
 7   1  0.1909700E+02  0.9118800E+02  0.7818608E-02  0.1180000E+00
       11   -1    0    0    0    0  0.00000000000E+00  0.00000000000E+00  0.65999999802E+01  0.66000000000E+01  0.51109989000E-03 0. -1.
     -623   -1    0    0    0    0  0.00000000000E+00  0.00000000000E+00  0.75637274222E-11  0.17124000000E+03  0.17124000000E+03 0. -1.
      622    2    1    2    0    0 -0.41603142493E-03 -0.79658721664E-04  0.65969619202E+01  0.65970301467E+01  0.30000000109E-01 0.  0.
     -611    1    3    3    0    0  0.14936881863E-02  0.85399115581E-02  0.61123304344E+00  0.61129473726E+00  0.51109989000E-03 0.  1.
      611    1    3    3    0    0 -0.19097196112E-02 -0.86195702798E-02  0.59857288768E+01  0.59857354094E+01  0.51109989000E-03 0. -1.
       11    1    1    2    0    0  0.37845738694E-03  0.98303109113E-03  0.27293234188E-02  0.29698498926E-02  0.51109989000E-03 0. -1.
     -623    1    1    2    0    0  0.37574038043E-04 -0.90337236946E-03  0.30873582195E-03  0.17124000000E+03  0.17124000000E+03 0. -1.
</event>
<event>
 7   1  0.1909700E+02  0.9118800E+02  0.7818608E-02  0.1180000E+00
       11   -1    0    0    0    0  0.00000000000E+00  0.00000000000E+00  0.65999999802E+01  0.66000000000E+01  0.51109989000E-03 0.  1.
     -623   -1    0    0    0    0  0.00000000000E+00  0.00000000000E+00  0.75637274222E-11  0.17124000000E+03  0.17124000000E+03 0. -1.
      622    2    1    2    0    0 -0.13616585986E-02 -0.25590744518E-02  0.65447567100E+01  0.65448261089E+01  0.30000000068E-01 0.  0.
     -611    1    3    3    0    0  0.82227712947E-02 -0.13105370628E-01  0.28722024533E+01  0.28722441676E+01  0.51109989000E-03 0. -1.
      611    1    3    3    0    0 -0.95844298933E-02  0.10546296176E-01  0.36725542567E+01  0.36725819413E+01  0.51109989000E-03 0.  1.
       11    1    1    2    0    0  0.31716874589E-02 -0.62298381151E-03  0.55076720740E-01  0.55173853388E-01  0.51109989000E-03 0.  1.
     -623    1    1    2    0    0 -0.18100288606E-02  0.31820582627E-02  0.16655100298E-03  0.17124000004E+03  0.17124000000E+03 0. -1.
</event>
<event>
 7   1  0.1909700E+02  0.9118800E+02  0.7818608E-02  0.1180000E+00
       11   -1    0    0    0    0  0.00000000000E+00  0.00000000000E+00  0.65999999802E+01  0.66000000000E+01  0.51109989000E-03 0.  1.
     -623   -1    0    0    0    0  0.00000000000E+00  0.00000000000E+00  0.75637274222E-11  0.17124000000E+03  0.17124000000E+03 0. -1.
      622    2    1    2    0    0  0.33361672639E-02 -0.92308805604E-03  0.65180247047E+01  0.65180946628E+01  0.29999999436E-01 0.  0.
     -611    1    3    3    0    0  0.74425243451E-02  0.68799908968E-02  0.58807258721E+01  0.58807346283E+01  0.51109989000E-03 0.  1.
      611    1    3    3    0    0 -0.41063570813E-02 -0.78030789529E-02  0.63729883263E+00  0.63736003444E+00  0.51109989000E-03 0. -1.
       11    1    1    2    0    0 -0.37292148742E-02  0.32472021004E-03  0.81818155564E-01  0.81905337361E-01  0.51109989000E-03 0.  1.
     -623    1    1    2    0    0  0.39304761125E-03  0.59836784576E-03  0.15712167862E-03  0.17124000000E+03  0.17124000000E+03 0. -1.
</event>
<event>
 7   1  0.1909700E+02  0.9118800E+02  0.7818608E-02  0.1180000E+00
       11   -1    0    0    0    0  0.00000000000E+00  0.00000000000E+00  0.65999999802E+01  0.66000000000E+01  0.51109989000E-03 0. -1.
     -623   -1    0    0    0    0  0.00000000000E+00  0.00000000000E+00  0.75637274222E-11  0.17124000000E+03  0.17124000000E+03 0. -1.
      622    2    1    2    0    0  0.12218347246E-02  0.41732502132E-02  0.63070199618E+01  0.63070928095E+01  0.30000000328E-01 0.  0.
     -611    1    3    3    0    0  0.15328906213E-01  0.35815780658E-02  0.27883574417E+01  0.27884019235E+01  0.51109989000E-03 0. -1.
      611    1    3    3    0    0 -0.14107071488E-01  0.59167214732E-03  0.35186625201E+01  0.35186908860E+01  0.51109989000E-03 0.  1.
       11    1    1    2    0    0  0.37819152766E-02  0.13302729742E-02  0.29287915106E+00  0.29290703449E+00  0.51109989000E-03 0. -1.
     -623    1    1    2    0    0 -0.50037500001E-02 -0.55035231837E-02  0.10087291144E-03  0.17124000016E+03  0.17124000000E+03 0. -1.
</event>
<event>
 7   1  0.1909700E+02  0.9118800E+02  0.7818608E-02  0.1180000E+00
       11   -1    0    0    0    0  0.00000000000E+00  0.00000000000E+00  0.65999999802E+01  0.66000000000E+01  0.51109989000E-03 0.  1.
     -623   -1    0    0    0    0  0.00000000000E+00  0.00000000000E+00  0.75637274222E-11  0.17124000000E+03  0.17124000000E+03 0. -1.
      622    2    1    2    0    0 -0.37295859419E-02 -0.20884968566E-02  0.55067180542E+01  0.55068014310E+01  0.29999999069E-01 0.  0.
     -611    1    3    3    0    0 -0.14215143388E-01 -0.62390665369E-03  0.45902559218E+01  0.45902780033E+01  0.51109989000E-03 0.  1.
      611    1    3    3    0    0  0.10485557446E-01 -0.14645902030E-02  0.91646213244E+00  0.91652342761E+00  0.51109989000E-03 0. -1.
       11    1    1    2    0    0  0.47087258405E-02  0.78923623771E-03  0.10931880232E+01  0.10931985685E+01  0.51109989000E-03 0.  1.
     -623    1    1    2    0    0 -0.97913990346E-03  0.12992606162E-02  0.93910083933E-04  0.17124000001E+03  0.17124000000E+03 0. -1.
</event>
<event>
 7   1  0.1909700E+02  0.9118800E+02  0.7818608E-02  0.1180000E+00
       11   -1    0    0    0    0  0.00000000000E+00  0.00000000000E+00  0.65999999802E+01  0.66000000000E+01  0.51109989000E-03 0. -1.
     -623   -1    0    0    0    0  0.00000000000E+00  0.00000000000E+00  0.75637274222E-11  0.17124000000E+03  0.17124000000E+03 0. -1.
      622    2    1    2    0    0  0.13196640661E-01  0.15091175175E-01  0.51474631374E+01  0.51475895957E+01  0.29999999835E-01 0.  0.
     -611    1    3    3    0    0 -0.75496440376E-02  0.98024952292E-02  0.10979805886E+01  0.10980504179E+01  0.51109989000E-03 0.  1.
      611    1    3    3    0    0  0.20746284699E-01  0.52886799458E-02  0.40494825488E+01  0.40495391778E+01  0.51109989000E-03 0. -1.
       11    1    1    2    0    0 -0.66216322393E-02  0.11866061233E-01  0.14523444976E+01  0.14524081556E+01  0.51109989000E-03 0. -1.
     -623    1    1    2    0    0 -0.65750084228E-02 -0.26957236410E-01  0.19234467537E-03  0.17124000225E+03  0.17124000000E+03 0. -1.
</event>
<event>
 7   1  0.1909700E+02  0.9118800E+02  0.7818608E-02  0.1180000E+00
       11   -1    0    0    0    0  0.00000000000E+00  0.00000000000E+00  0.65999999802E+01  0.66000000000E+01  0.51109989000E-03 0. -1.
     -623   -1    0    0    0    0  0.00000000000E+00  0.00000000000E+00  0.75637274222E-11  0.17124000000E+03  0.17124000000E+03 0.  1.
      622    2    1    2    0    0  0.13384761204E-02 -0.12499942839E-01  0.27936717233E+01  0.27938610806E+01  0.29999999506E-01 0.  0.
     -611    1    3    3    0    0  0.44397872378E-02  0.91141656305E-02  0.66757154379E+00  0.66764871529E+00  0.51109989000E-03 0. -1.
      611    1    3    3    0    0 -0.31013111175E-02 -0.21614108470E-01  0.21261001795E+01  0.21262123653E+01  0.51109989000E-03 0.  1.
       11    1    1    2    0    0 -0.28253318344E-01  0.17627286423E-01  0.38059910079E+01  0.38061367270E+01  0.51109989000E-03 0. -1.
     -623    1    1    2    0    0  0.26914842224E-01 -0.51273435834E-02  0.33724889204E-03  0.17124000219E+03  0.17124000000E+03 0.  1.
</event>
<event>
 7   1  0.1909700E+02  0.9118800E+02  0.7818608E-02  0.1180000E+00
       11   -1    0    0    0    0  0.00000000000E+00  0.00000000000E+00  0.65999999802E+01  0.66000000000E+01  0.51109989000E-03 0. -1.
     -623   -1    0    0    0    0  0.00000000000E+00  0.00000000000E+00  0.75637274222E-11  0.17124000000E+03  0.17124000000E+03 0. -1.
      622    2    1    2    0    0  0.86564303402E-03 -0.57405565759E-03  0.65829201355E+01  0.65829885758E+01  0.29999999804E-01 0.  0.
     -611    1    3    3    0    0  0.42417228991E-02  0.12977854926E-01  0.19756520682E+01  0.19756993123E+01  0.51109989000E-03 0.  1.
      611    1    3    3    0    0 -0.33760798651E-02 -0.13551910583E-01  0.46072680673E+01  0.46072892635E+01  0.51109989000E-03 0. -1.
       11    1    1    2    0    0 -0.14940215323E-02  0.17122055772E-03  0.16937119927E-01  0.17011427586E-01  0.51109989000E-03 0. -1.
     -623    1    1    2    0    0  0.62837849900E-03  0.40283509943E-03  0.14272987220E-03  0.17124000000E+03  0.17124000000E+03 0. -1.
</event>
<event>
 7   1  0.1909700E+02  0.9118800E+02  0.7818608E-02  0.1180000E+00
       11   -1    0    0    0    0  0.00000000000E+00  0.00000000000E+00  0.65999999802E+01  0.66000000000E+01  0.51109989000E-03 0.  1.
     -623   -1    0    0    0    0  0.00000000000E+00  0.00000000000E+00  0.75637274222E-11  0.17124000000E+03  0.17124000000E+03 0.  1.
      622    2    1    2    0    0  0.76840552341E-02 -0.46471268847E-02  0.56129442442E+01  0.56130315987E+01  0.29999992734E-01 0.  0.
     -611    1    3    3    0    0  0.15051749194E-01  0.75723722496E-02  0.27366094180E+01  0.27366613353E+01  0.51109989000E-03 0. -1.
      611    1    3    3    0    0 -0.73676939596E-02 -0.12219499134E-01  0.28763348261E+01  0.28763702634E+01  0.51109989000E-03 0.  1.
       11    1    1    2    0    0 -0.12210387645E-01  0.68441463260E-02  0.98686893025E+00  0.98696832909E+00  0.51109989000E-03 0.  1.
     -623    1    1    2    0    0  0.45263324135E-02 -0.21970194428E-02  0.18680762082E-03  0.17124000007E+03  0.17124000000E+03 0.  1.
</event>
<event>
 7   1  0.1909700E+02  0.9118800E+02  0.7818608E-02  0.1180000E+00
       11   -1    0    0    0    0  0.00000000000E+00  0.00000000000E+00  0.65999999802E+01  0.66000000000E+01  0.51109989000E-03 0.  1.
     -623   -1    0    0    0    0  0.00000000000E+00  0.00000000000E+00  0.75637274222E-11  0.17124000000E+03  0.17124000000E+03 0. -1.
      622    2    1    2    0    0 -0.10504667182E-01 -0.17289405337E-01  0.60900679352E+01  0.60901754266E+01  0.30000000682E-01 0.  0.
     -611    1    3    3    0    0  0.20427509888E-02 -0.52664741079E-02  0.46373149148E+01  0.46373183834E+01  0.51109989000E-03 0.  1.
      611    1    3    3    0    0 -0.12547418170E-01 -0.12022931229E-01  0.14527530204E+01  0.14528570432E+01  0.51109989000E-03 0. -1.
       11    1    1    2    0    0  0.11515214488E-01  0.14979080618E-01  0.50947408112E+00  0.50982455176E+00  0.51109989000E-03 0.  1.
     -623    1    1    2    0    0 -0.10105473023E-02  0.23103247258E-02  0.45796145278E-03  0.17124000002E+03  0.17124000000E+03 0. -1.
</event>
<event>
 7   1  0.1909700E+02  0.9118800E+02  0.7818608E-02  0.1180000E+00
       11   -1    0    0    0    0  0.00000000000E+00  0.00000000000E+00  0.65999999802E+01  0.66000000000E+01  0.51109989000E-03 0.  1.
     -623   -1    0    0    0    0  0.00000000000E+00  0.00000000000E+00  0.75637274222E-11  0.17124000000E+03  0.17124000000E+03 0. -1.
      622    2    1    2    0    0 -0.29113243981E-02  0.33834733749E-02  0.55521358211E+01  0.55522186647E+01  0.30000000217E-01 0.  0.
     -611    1    3    3    0    0 -0.11134545300E-01 -0.62309170432E-02  0.12715752782E+01  0.12716393953E+01  0.51109989000E-03 0.  1.
      611    1    3    3    0    0  0.82232209024E-02  0.96143904181E-02  0.42805605430E+01  0.42805792693E+01  0.51109989000E-03 0. -1.
       11    1    1    2    0    0  0.88593701498E-02  0.71098838976E-02  0.10477192005E+01  0.10477809042E+01  0.51109989000E-03 0.  1.
     -623    1    1    2    0    0 -0.59480457484E-02 -0.10493357276E-01  0.14495230307E-03  0.17124000042E+03  0.17124000000E+03 0. -1.
</event>
<event>
 7   1  0.1909700E+02  0.9118800E+02  0.7818608E-02  0.1180000E+00
       11   -1    0    0    0    0  0.00000000000E+00  0.00000000000E+00  0.65999999802E+01  0.66000000000E+01  0.51109989000E-03 0.  1.
     -623   -1    0    0    0    0  0.00000000000E+00  0.00000000000E+00  0.75637274222E-11  0.17124000000E+03  0.17124000000E+03 0. -1.
      622    2    1    2    0    0  0.10586661846E-02  0.10998883086E-01  0.50236334207E+01  0.50237351484E+01  0.30000000117E-01 0.  0.
     -611    1    3    3    0    0  0.75046104007E-02  0.14120058416E-01  0.13512345274E+01  0.13513292362E+01  0.51109989000E-03 0.  1.
      611    1    3    3    0    0 -0.64459442161E-02 -0.31211753303E-02  0.36723988932E+01  0.36724059122E+01  0.51109989000E-03 0. -1.
       11    1    1    2    0    0 -0.16682851266E-02 -0.13153855344E-01  0.15762089914E+01  0.15762648423E+01  0.51109989000E-03 0.  1.
     -623    1    1    2    0    0  0.60961894318E-03  0.21549722704E-02  0.15757352480E-03  0.17124000001E+03  0.17124000000E+03 0. -1.
</event>
<event>
 7   1  0.1909700E+02  0.9118800E+02  0.7818608E-02  0.1180000E+00
       11   -1    0    0    0    0  0.00000000000E+00  0.00000000000E+00  0.65999999802E+01  0.66000000000E+01  0.51109989000E-03 0. -1.
     -623   -1    0    0    0    0  0.00000000000E+00  0.00000000000E+00  0.75637274222E-11  0.17124000000E+03  0.17124000000E+03 0.  1.
      622    2    1    2    0    0  0.38897226081E-02 -0.40809349370E-01  0.37953598718E+01  0.37956998155E+01  0.30000000098E-01 0.  0.
     -611    1    3    3    0    0  0.12384088475E-01 -0.12915380311E-01  0.22043912196E+01  0.22044638993E+01  0.51109989000E-03 0. -1.
      611    1    3    3    0    0 -0.84943658674E-02 -0.27893969059E-01  0.15909686522E+01  0.15912359163E+01  0.51109989000E-03 0.  1.
       11    1    1    2    0    0 -0.22944551531E-01 -0.28308761505E-02  0.28041982195E+01  0.28042935620E+01  0.51109989000E-03 0. -1.
     -623    1    1    2    0    0  0.19054828922E-01  0.43640225530E-01  0.44188796097E-03  0.17124000662E+03  0.17124000000E+03 0.  1.
</event>
<event>
 7   1  0.1909700E+02  0.9118800E+02  0.7818608E-02  0.1180000E+00
       11   -1    0    0    0    0  0.00000000000E+00  0.00000000000E+00  0.65999999802E+01  0.66000000000E+01  0.51109989000E-03 0.  1.
     -623   -1    0    0    0    0  0.00000000000E+00  0.00000000000E+00  0.75637274222E-11  0.17124000000E+03  0.17124000000E+03 0.  1.
      622    2    1    2    0    0  0.92263244369E-02  0.68435966691E-01  0.55861719904E+01  0.55866793458E+01  0.29999999781E-01 0.  0.
     -611    1    3    3    0    0  0.14824118138E-01  0.66538024048E-01  0.53435138831E+01  0.53439487219E+01  0.51109989000E-03 0.  1.
      611    1    3    3    0    0 -0.55977937009E-02  0.18979426428E-02  0.24265810732E+00  0.24273062384E+00  0.51109989000E-03 0. -1.
       11    1    1    2    0    0 -0.75043226803E-02 -0.72884139961E-01  0.10106680347E+01  0.10133205565E+01  0.51109989000E-03 0.  1.
     -623    1    1    2    0    0 -0.17220017601E-02  0.44481732449E-02  0.31599530557E-02  0.17124000010E+03  0.17124000000E+03 0.  1.
</event>
<event>
 7   1  0.1909700E+02  0.9118800E+02  0.7818608E-02  0.1180000E+00
       11   -1    0    0    0    0  0.00000000000E+00  0.00000000000E+00  0.65999999802E+01  0.66000000000E+01  0.51109989000E-03 0.  1.
     -623   -1    0    0    0    0  0.00000000000E+00  0.00000000000E+00  0.75637274222E-11  0.17124000000E+03  0.17124000000E+03 0. -1.
      622    2    1    2    0    0  0.12193760143E-02 -0.15605451436E-02  0.65883826772E+01  0.65884512766E+01  0.30000000150E-01 0.  0.
     -611    1    3    3    0    0 -0.12468591171E-01  0.32596331469E-02  0.44815175344E+01  0.44815360942E+01  0.51109989000E-03 0.  1.
      611    1    3    3    0    0  0.13687967186E-01 -0.48201782904E-02  0.21068651428E+01  0.21069151823E+01  0.51109989000E-03 0. -1.
       11    1    1    2    0    0  0.72581989444E-03 -0.20788062115E-02  0.11325296353E-01  0.11548671355E-01  0.51109989000E-03 0.  1.
     -623    1    1    2    0    0 -0.19451959091E-02  0.36393513556E-02  0.29200453645E-03  0.17124000005E+03  0.17124000000E+03 0. -1.
</event>
<event>
 7   1  0.1909700E+02  0.9118800E+02  0.7818608E-02  0.1180000E+00
       11   -1    0    0    0    0  0.00000000000E+00  0.00000000000E+00  0.65999999802E+01  0.66000000000E+01  0.51109989000E-03 0.  1.
     -623   -1    0    0    0    0  0.00000000000E+00  0.00000000000E+00  0.75637274222E-11  0.17124000000E+03  0.17124000000E+03 0. -1.
      622    2    1    2    0    0  0.70465519513E-02 -0.10872096035E-01  0.52822429365E+01  0.52823440153E+01  0.29999999478E-01 0.  0.
     -611    1    3    3    0    0 -0.71182220405E-03 -0.20253459202E-01  0.29932005094E+01  0.29932691593E+01  0.51109989000E-03 0. -1.
      611    1    3    3    0    0  0.77583741553E-02  0.93813631673E-02  0.22890424271E+01  0.22890748561E+01  0.51109989000E-03 0.  1.
       11    1    1    2    0    0 -0.75335909485E-02  0.11959950397E-01  0.13175800575E+01  0.13176559735E+01  0.51109989000E-03 0.  1.
     -623    1    1    2    0    0  0.48703898791E-03 -0.10878543472E-02  0.17697932945E-03  0.17124000000E+03  0.17124000000E+03 0. -1.
</event>
<event>
 7   1  0.1909700E+02  0.9118800E+02  0.7818608E-02  0.1180000E+00
       11   -1    0    0    0    0  0.00000000000E+00  0.00000000000E+00  0.65999999802E+01  0.66000000000E+01  0.51109989000E-03 0.  1.
     -623   -1    0    0    0    0  0.00000000000E+00  0.00000000000E+00  0.75637274222E-11  0.17124000000E+03  0.17124000000E+03 0.  1.
      622    2    1    2    0    0  0.12231633475E-01 -0.99173339578E-02  0.59179176698E+01  0.59180146598E+01  0.30000004618E-01 0.  0.
     -611    1    3    3    0    0  0.15666876282E-01  0.61934883674E-02  0.35202471658E+01  0.35202875138E+01  0.51109989000E-03 0.  1.
      611    1    3    3    0    0 -0.34352428067E-02 -0.16110822325E-01  0.23976705041E+01  0.23977271460E+01  0.51109989000E-03 0. -1.
       11    1    1    2    0    0  0.69618732322E-04  0.11225106608E-01  0.68189231584E+00  0.68198489682E+00  0.51109989000E-03 0.  1.
     -623    1    1    2    0    0 -0.12301252200E-01 -0.13077726564E-02  0.18999809856E-03  0.17124000045E+03  0.17124000000E+03 0.  1.
</event>
<event>
 7   1  0.1909700E+02  0.9118800E+02  0.7818608E-02  0.1180000E+00
       11   -1    0    0    0    0  0.00000000000E+00  0.00000000000E+00  0.65999999802E+01  0.66000000000E+01  0.51109989000E-03 0. -1.
     -623   -1    0    0    0    0  0.00000000000E+00  0.00000000000E+00  0.75637274222E-11  0.17124000000E+03  0.17124000000E+03 0.  1.
      622    2    1    2    0    0  0.10255202048E-01  0.34566043601E-01  0.29098400955E+01  0.29102180952E+01  0.29999998927E-01 0.  0.
     -611    1    3    3    0    0  0.16982066971E-01  0.11563194529E-01  0.18107007339E+01  0.18108173588E+01  0.51109989000E-03 0.  1.
      611    1    3    3    0    0 -0.67268649227E-02  0.23002849072E-01  0.10991393616E+01  0.10994007364E+01  0.51109989000E-03 0. -1.
       11    1    1    2    0    0 -0.96961050156E-02 -0.32537128712E-01  0.36896256511E+01  0.36897818886E+01  0.51109989000E-03 0. -1.
     -623    1    1    2    0    0 -0.55909704095E-03 -0.20289149180E-02  0.53423125424E-03  0.17124000001E+03  0.17124000000E+03 0.  1.
</event>
<event>
 7   1  0.1909700E+02  0.9118800E+02  0.7818608E-02  0.1180000E+00
       11   -1    0    0    0    0  0.00000000000E+00  0.00000000000E+00  0.65999999802E+01  0.66000000000E+01  0.51109989000E-03 0.  1.
     -623   -1    0    0    0    0  0.00000000000E+00  0.00000000000E+00  0.75637274222E-11  0.17124000000E+03  0.17124000000E+03 0.  1.
      622    2    1    2    0    0  0.37769844882E-03 -0.17214917710E-03  0.65929711261E+01  0.65930393933E+01  0.29999998475E-01 0.  0.
     -611    1    3    3    0    0  0.57456916472E-02  0.59421705013E-02  0.54626383551E+00  0.54632660705E+00  0.51109989000E-03 0. -1.
      611    1    3    3    0    0 -0.53679931984E-02 -0.61143196784E-02  0.60467072906E+01  0.60467127863E+01  0.51109989000E-03 0.  1.
       11    1    1    2    0    0 -0.89634711807E-03 -0.63893417539E-03  0.68539823744E-02  0.69606013908E-02  0.51109989000E-03 0.  1.
     -623    1    1    2    0    0  0.51864866911E-03  0.81108335255E-03  0.17486924396E-03  0.17124000000E+03  0.17124000000E+03 0.  1.
</event>
<event>
 7   1  0.1909700E+02  0.9118800E+02  0.7818608E-02  0.1180000E+00
       11   -1    0    0    0    0  0.00000000000E+00  0.00000000000E+00  0.65999999802E+01  0.66000000000E+01  0.51109989000E-03 0.  1.
     -623   -1    0    0    0    0  0.00000000000E+00  0.00000000000E+00  0.75637274222E-11  0.17124000000E+03  0.17124000000E+03 0.  1.
      622    2    1    2    0    0 -0.36001370693E-02 -0.20706254732E-02  0.64353575882E+01  0.64354288541E+01  0.29999999852E-01 0.  0.
     -611    1    3    3    0    0 -0.39675564415E-02 -0.41908455268E-02  0.63997617774E+01  0.63997643999E+01  0.51109989000E-03 0.  1.
      611    1    3    3    0    0  0.36741937222E-03  0.21202200536E-02  0.35595810744E-01  0.35664454232E-01  0.51109989000E-03 0. -1.
       11    1    1    2    0    0  0.38712994075E-02  0.15808302201E-02  0.16451721432E+00  0.16457114271E+00  0.51109989000E-03 0.  1.
     -623    1    1    2    0    0 -0.27116233691E-03  0.48979525381E-03  0.12517549134E-03  0.17124000000E+03  0.17124000000E+03 0.  1.
</event>
<event>
 7   1  0.1909700E+02  0.9118800E+02  0.7818608E-02  0.1180000E+00
       11   -1    0    0    0    0  0.00000000000E+00  0.00000000000E+00  0.65999999802E+01  0.66000000000E+01  0.51109989000E-03 0.  1.
     -623   -1    0    0    0    0  0.00000000000E+00  0.00000000000E+00  0.75637274222E-11  0.17124000000E+03  0.17124000000E+03 0. -1.
      622    2    1    2    0    0  0.36112712853E-02 -0.35211624593E-03  0.62289663517E+01  0.62290396511E+01  0.29999999863E-01 0.  0.
     -611    1    3    3    0    0  0.45709041654E-02 -0.91453482977E-02  0.56153933594E+01  0.56154026902E+01  0.51109989000E-03 0.  1.
      611    1    3    3    0    0 -0.95963288011E-03  0.87932320518E-02  0.61357299224E+00  0.61363696096E+00  0.51109989000E-03 0. -1.
       11    1    1    2    0    0 -0.37470134609E-02  0.52956876642E-03  0.37094069237E+00  0.37096034698E+00  0.51109989000E-03 0.  1.
     -623    1    1    2    0    0  0.13574217465E-03 -0.17745252039E-03  0.92934468420E-04  0.17124000000E+03  0.17124000000E+03 0. -1.
</event>
<event>
 7   1  0.1909700E+02  0.9118800E+02  0.7818608E-02  0.1180000E+00
       11   -1    0    0    0    0  0.00000000000E+00  0.00000000000E+00  0.65999999802E+01  0.66000000000E+01  0.51109989000E-03 0. -1.
     -623   -1    0    0    0    0  0.00000000000E+00  0.00000000000E+00  0.75637274222E-11  0.17124000000E+03  0.17124000000E+03 0. -1.
      622    2    1    2    0    0 -0.18217732117E-02 -0.46544000159E-03  0.65660065056E+01  0.65660753093E+01  0.29999999440E-01 0.  0.
     -611    1    3    3    0    0 -0.62669212163E-02 -0.58335245889E-02  0.61775146192E+01  0.61775205735E+01  0.51109989000E-03 0. -1.
      611    1    3    3    0    0  0.44451480046E-02  0.53680845873E-02  0.38849188643E+00  0.38855473581E+00  0.51109989000E-03 0.  1.
       11    1    1    2    0    0 -0.23841041660E-02 -0.43674010759E-02  0.33553790184E-01  0.33924566363E-01  0.51109989000E-03 0. -1.
     -623    1    1    2    0    0  0.42058773788E-02  0.48328410777E-02  0.43968048261E-03  0.17124000012E+03  0.17124000000E+03 0. -1.
</event>
<event>
 7   1  0.1909700E+02  0.9118800E+02  0.7818608E-02  0.1180000E+00
       11   -1    0    0    0    0  0.00000000000E+00  0.00000000000E+00  0.65999999802E+01  0.66000000000E+01  0.51109989000E-03 0.  1.
     -623   -1    0    0    0    0  0.00000000000E+00  0.00000000000E+00  0.75637274222E-11  0.17124000000E+03  0.17124000000E+03 0. -1.
      622    2    1    2    0    0  0.13869706681E-02 -0.28710754469E-02  0.65317940825E+01  0.65318637542E+01  0.29999999600E-01 0.  0.
     -611    1    3    3    0    0  0.10527282147E-01 -0.96830888854E-02  0.18352078034E+01  0.18352636128E+01  0.51109989000E-03 0. -1.
      611    1    3    3    0    0 -0.91403114790E-02  0.68120134385E-02  0.46965862792E+01  0.46966001414E+01  0.51109989000E-03 0.  1.
       11    1    1    2    0    0 -0.81435654414E-03  0.24968752959E-02  0.68083689680E-01  0.68136242814E-01  0.51109989000E-03 0.  1.
     -623    1    1    2    0    0 -0.57261412432E-03  0.37420015171E-03  0.12220642297E-03  0.17124000000E+03  0.17124000000E+03 0. -1.
</event>
<event>
 7   1  0.1909700E+02  0.9118800E+02  0.7818608E-02  0.1180000E+00
       11   -1    0    0    0    0  0.00000000000E+00  0.00000000000E+00  0.65999999802E+01  0.66000000000E+01  0.51109989000E-03 0.  1.
     -623   -1    0    0    0    0  0.00000000000E+00  0.00000000000E+00  0.75637274222E-11  0.17124000000E+03  0.17124000000E+03 0. -1.
      622    2    1    2    0    0 -0.76020837016E-02  0.10017211179E-01  0.57187488296E+01  0.57188413435E+01  0.30000000129E-01 0.  0.
     -611    1    3    3    0    0 -0.11163324270E-01  0.91681478149E-02  0.11477118667E+01  0.11478028859E+01  0.51109989000E-03 0. -1.
      611    1    3    3    0    0  0.35612405684E-02  0.84906336419E-03  0.45710369629E+01  0.45710384576E+01  0.51109989000E-03 0.  1.
       11    1    1    2    0    0  0.76802220967E-02 -0.94561737298E-02  0.88107429616E+00  0.88115865860E+00  0.51109989000E-03 0.  1.
     -623    1    1    2    0    0 -0.78138399256E-04 -0.56103744374E-03  0.17685758872E-03  0.17124000000E+03  0.17124000000E+03 0. -1.
</event>
<event>
 7   1  0.1909700E+02  0.9118800E+02  0.7818608E-02  0.1180000E+00
       11   -1    0    0    0    0  0.00000000000E+00  0.00000000000E+00  0.65999999802E+01  0.66000000000E+01  0.51109989000E-03 0. -1.
     -623   -1    0    0    0    0  0.00000000000E+00  0.00000000000E+00  0.75637274222E-11  0.17124000000E+03  0.17124000000E+03 0. -1.
      622    2    1    2    0    0 -0.16792062180E-01  0.80436127628E-02  0.38314678636E+01  0.38316305488E+01  0.29999997247E-01 0.  0.
     -611    1    3    3    0    0 -0.44091017546E-02 -0.11365885496E-01  0.14503948075E+01  0.14504461322E+01  0.51109989000E-03 0.  1.
      611    1    3    3    0    0 -0.12382960425E-01  0.19409498259E-01  0.23810730560E+01  0.23811844166E+01  0.51109989000E-03 0. -1.
       11    1    1    2    0    0  0.24308716847E-01 -0.76583120611E-02  0.27682519175E+01  0.27683692860E+01  0.51109989000E-03 0. -1.
     -623    1    1    2    0    0 -0.75166546693E-02 -0.38530070075E-03  0.28019953513E-03  0.17124000017E+03  0.17124000000E+03 0. -1.
</event>
<event>
 7   1  0.1909700E+02  0.9118800E+02  0.7818608E-02  0.1180000E+00
       11   -1    0    0    0    0  0.00000000000E+00  0.00000000000E+00  0.65999999802E+01  0.66000000000E+01  0.51109989000E-03 0.  1.
     -623   -1    0    0    0    0  0.00000000000E+00  0.00000000000E+00  0.75637274222E-11  0.17124000000E+03  0.17124000000E+03 0. -1.
      622    2    1    2    0    0 -0.47936419263E-02 -0.70664557964E-02  0.59404977057E+01  0.59405795934E+01  0.30000000197E-01 0.  0.
     -611    1    3    3    0    0  0.72639345370E-02  0.17589560620E-02  0.45616654642E+00  0.45622805478E+00  0.51109989000E-03 0. -1.
      611    1    3    3    0    0 -0.12057576463E-01 -0.88254118583E-02  0.54843311593E+01  0.54843515386E+01  0.51109989000E-03 0.  1.
       11    1    1    2    0    0  0.50542180816E-02  0.66338770332E-02  0.65936745986E+00  0.65942039837E+00  0.51109989000E-03 0.  1.
     -623    1    1    2    0    0 -0.26057614933E-03  0.43257877198E-03  0.13480720349E-03  0.17124000000E+03  0.17124000000E+03 0. -1.
</event>
<event>
 7   1  0.1909700E+02  0.9118800E+02  0.7818608E-02  0.1180000E+00
       11   -1    0    0    0    0  0.00000000000E+00  0.00000000000E+00  0.65999999802E+01  0.66000000000E+01  0.51109989000E-03 0. -1.
     -623   -1    0    0    0    0  0.00000000000E+00  0.00000000000E+00  0.75637274222E-11  0.17124000000E+03  0.17124000000E+03 0.  1.
      622    2    1    2    0    0 -0.13936733402E-01  0.12337819458E-01  0.47984244984E+01  0.47985543783E+01  0.30000000025E-01 0.  0.
     -611    1    3    3    0    0  0.91256889682E-02  0.72891744856E-02  0.15998242883E+01  0.15998670023E+01  0.51109989000E-03 0. -1.
      611    1    3    3    0    0 -0.23062422371E-01  0.50486449722E-02  0.31986002101E+01  0.31986873760E+01  0.51109989000E-03 0.  1.
       11    1    1    2    0    0  0.26204250043E-02  0.73909722189E-03  0.18014426205E+01  0.18014447505E+01  0.51109989000E-03 0. -1.
     -623    1    1    2    0    0  0.11316308392E-01 -0.13076916674E-01  0.13286335756E-03  0.17124000087E+03  0.17124000000E+03 0.  1.
</event>
<event>
 7   1  0.1909700E+02  0.9118800E+02  0.7818608E-02  0.1180000E+00
       11   -1    0    0    0    0  0.00000000000E+00  0.00000000000E+00  0.65999999802E+01  0.66000000000E+01  0.51109989000E-03 0.  1.
     -623   -1    0    0    0    0  0.00000000000E+00  0.00000000000E+00  0.75637274222E-11  0.17124000000E+03  0.17124000000E+03 0.  1.
      622    2    1    2    0    0 -0.24701767964E-03 -0.84247464489E-04  0.65972558925E+01  0.65973241075E+01  0.29999999791E-01 0.  0.
     -611    1    3    3    0    0 -0.60837854425E-02 -0.11407343660E-01  0.16123393277E+01  0.16123912394E+01  0.51109989000E-03 0. -1.
      611    1    3    3    0    0  0.58367677629E-02  0.11323096195E-01  0.49849165648E+01  0.49849328681E+01  0.51109989000E-03 0.  1.
       11    1    1    2    0    0 -0.13533845765E-04  0.26245402402E-02  0.10280757107E-03  0.26758522310E-02  0.51109989000E-03 0. -1.
     -623    1    1    2    0    0  0.26055152544E-03 -0.25402927757E-02  0.26412792756E-02  0.17124000004E+03  0.17124000000E+03 0.  1.
</event>
<event>
 7   1  0.1909700E+02  0.9118800E+02  0.7818608E-02  0.1180000E+00
       11   -1    0    0    0    0  0.00000000000E+00  0.00000000000E+00  0.65999999802E+01  0.66000000000E+01  0.51109989000E-03 0. -1.
     -623   -1    0    0    0    0  0.00000000000E+00  0.00000000000E+00  0.75637274222E-11  0.17124000000E+03  0.17124000000E+03 0. -1.
      622    2    1    2    0    0  0.95382727363E-03  0.38081415931E-03  0.65792085006E+01  0.65792769777E+01  0.29999999991E-01 0.  0.
     -611    1    3    3    0    0 -0.47854602965E-02  0.51380525055E-03  0.63299548607E+01  0.63299567111E+01  0.51109989000E-03 0. -1.
      611    1    3    3    0    0  0.57392875701E-02 -0.13299109124E-03  0.24925363989E+00  0.24932026658E+00  0.51109989000E-03 0.  1.
       11    1    1    2    0    0  0.16157550722E-03 -0.15113906164E-02  0.20660872267E-01  0.20723013126E-01  0.51109989000E-03 0. -1.
     -623    1    1    2    0    0 -0.11154027811E-02  0.11305764570E-02  0.13060558245E-03  0.17124000001E+03  0.17124000000E+03 0. -1.
</event>
<event>
 7   1  0.1909700E+02  0.9118800E+02  0.7818608E-02  0.1180000E+00
       11   -1    0    0    0    0  0.00000000000E+00  0.00000000000E+00  0.65999999802E+01  0.66000000000E+01  0.51109989000E-03 0. -1.
     -623   -1    0    0    0    0  0.00000000000E+00  0.00000000000E+00  0.75637274222E-11  0.17124000000E+03  0.17124000000E+03 0.  1.
      622    2    1    2    0    0 -0.18308101646E-01 -0.44243039190E-01  0.57676442265E+01  0.57679209909E+01  0.30000000013E-01 0.  0.
     -611    1    3    3    0    0 -0.18075722839E-01 -0.73450782087E-02  0.18488315458E+01  0.18489345656E+01  0.51109989000E-03 0.  1.
      611    1    3    3    0    0 -0.23237880661E-03 -0.36897960981E-01  0.39188126808E+01  0.39189864253E+01  0.51109989000E-03 0. -1.
       11    1    1    2    0    0  0.23334704849E-01  0.40082783841E-01  0.83078509232E+00  0.83207888380E+00  0.51109989000E-03 0. -1.
     -623    1    1    2    0    0 -0.50266032228E-02  0.41602553014E-02  0.15706675471E-02  0.17124000013E+03  0.17124000000E+03 0.  1.
</event>
<event>
 7   1  0.1909700E+02  0.9118800E+02  0.7818608E-02  0.1180000E+00
       11   -1    0    0    0    0  0.00000000000E+00  0.00000000000E+00  0.65999999802E+01  0.66000000000E+01  0.51109989000E-03 0.  1.
     -623   -1    0    0    0    0  0.00000000000E+00  0.00000000000E+00  0.75637274222E-11  0.17124000000E+03  0.17124000000E+03 0.  1.
      622    2    1    2    0    0 -0.68579192852E-03 -0.10003202386E-02  0.65952952741E+01  0.65953636157E+01  0.29999999231E-01 0.  0.
     -611    1    3    3    0    0  0.11831499337E-02 -0.12638488536E-02  0.23906812524E-01  0.23974863208E-01  0.51109989000E-03 0. -1.
      611    1    3    3    0    0 -0.18689418622E-02  0.26352861497E-03  0.65713884615E+01  0.65713887525E+01  0.51109989000E-03 0.  1.
       11    1    1    2    0    0 -0.65955375614E-03  0.43525690530E-03  0.45398461436E-02  0.46363652289E-02  0.51109989000E-03 0.  1.
     -623    1    1    2    0    0  0.13453456860E-02  0.56506333523E-03  0.16484721303E-03  0.17124000001E+03  0.17124000000E+03 0.  1.
</event>
<event>
 7   1  0.1909700E+02  0.9118800E+02  0.7818608E-02  0.1180000E+00
       11   -1    0    0    0    0  0.00000000000E+00  0.00000000000E+00  0.65999999802E+01  0.66000000000E+01  0.51109989000E-03 0. -1.
     -623   -1    0    0    0    0  0.00000000000E+00  0.00000000000E+00  0.75637274222E-11  0.17124000000E+03  0.17124000000E+03 0. -1.
      622    2    1    2    0    0 -0.37717029528E-02  0.17257455908E-02  0.42716561796E+01  0.42717635376E+01  0.30000000078E-01 0.  0.
     -611    1    3    3    0    0  0.19523923594E-02 -0.12856687712E-01  0.26399739254E+01  0.26400060027E+01  0.51109989000E-03 0. -1.
      611    1    3    3    0    0 -0.57240953122E-02  0.14582433303E-01  0.16316822542E+01  0.16317575348E+01  0.51109989000E-03 0.  1.
       11    1    1    2    0    0  0.20177164544E-02 -0.25814045033E-01  0.23280907140E+01  0.23282347540E+01  0.51109989000E-03 0. -1.
     -623    1    1    2    0    0  0.17539865028E-02  0.24088299440E-01  0.25308162056E-03  0.17124000170E+03  0.17124000000E+03 0. -1.
</event>
<event>
 7   1  0.1909700E+02  0.9118800E+02  0.7818608E-02  0.1180000E+00
       11   -1    0    0    0    0  0.00000000000E+00  0.00000000000E+00  0.65999999802E+01  0.66000000000E+01  0.51109989000E-03 0.  1.
     -623   -1    0    0    0    0  0.00000000000E+00  0.00000000000E+00  0.75637274222E-11  0.17124000000E+03  0.17124000000E+03 0. -1.
      622    2    1    2    0    0 -0.24903607605E-02 -0.77713341902E-03  0.65759667191E+01  0.65760356672E+01  0.29999999560E-01 0.  0.
     -611    1    3    3    0    0  0.79817881219E-02  0.78941616831E-02  0.49270483571E+01  0.49270611728E+01  0.51109989000E-03 0. -1.
      611    1    3    3    0    0 -0.10472148882E-01 -0.86712951021E-02  0.16489183620E+01  0.16489744944E+01  0.51109989000E-03 0.  1.
       11    1    1    2    0    0 -0.16298740877E-02  0.10177796356E-02  0.23881645331E-01  0.23964276952E-01  0.51109989000E-03 0.  1.
     -623    1    1    2    0    0  0.41202348505E-02 -0.24064621582E-03  0.15160976242E-03  0.17124000005E+03  0.17124000000E+03 0. -1.
</event>
<event>
 7   1  0.1909700E+02  0.9118800E+02  0.7818608E-02  0.1180000E+00
       11   -1    0    0    0    0  0.00000000000E+00  0.00000000000E+00  0.65999999802E+01  0.66000000000E+01  0.51109989000E-03 0.  1.
     -623   -1    0    0    0    0  0.00000000000E+00  0.00000000000E+00  0.75637274222E-11  0.17124000000E+03  0.17124000000E+03 0. -1.
      622    2    1    2    0    0 -0.30872424204E-01 -0.84223495485E-02  0.46767718538E+01  0.46769775513E+01  0.29999999878E-01 0.  0.
     -611    1    3    3    0    0  0.40374520937E-02  0.14982973938E-02  0.13635606193E+01  0.13635675156E+01  0.51109989000E-03 0. -1.
      611    1    3    3    0    0 -0.34909876298E-01 -0.99206469423E-02  0.33132112345E+01  0.33134100357E+01  0.51109989000E-03 0.  1.
       11    1    1    2    0    0  0.14225362535E-01  0.24093106282E-01  0.19228172964E+01  0.19230209191E+01  0.51109989000E-03 0.  1.
     -623    1    1    2    0    0  0.16647061688E-01 -0.15670756728E-01  0.41082708069E-03  0.17124000153E+03  0.17124000000E+03 0. -1.
</event>
<event>
 7   1  0.1909700E+02  0.9118800E+02  0.7818608E-02  0.1180000E+00
       11   -1    0    0    0    0  0.00000000000E+00  0.00000000000E+00  0.65999999802E+01  0.66000000000E+01  0.51109989000E-03 0.  1.
     -623   -1    0    0    0    0  0.00000000000E+00  0.00000000000E+00  0.75637274222E-11  0.17124000000E+03  0.17124000000E+03 0.  1.
      622    2    1    2    0    0 -0.24555708138E-01 -0.14739964715E-02  0.50922249999E+01  0.50923727873E+01  0.29999999903E-01 0.  0.
     -611    1    3    3    0    0 -0.30165731467E-01 -0.61700398047E-04  0.32873114861E+01  0.32874499301E+01  0.51109989000E-03 0. -1.
      611    1    3    3    0    0  0.56100233281E-02 -0.14122960735E-02  0.18049135138E+01  0.18049228572E+01  0.51109989000E-03 0.  1.
       11    1    1    2    0    0 -0.15219546804E-01 -0.36353049929E-01  0.15071031212E+01  0.15076184060E+01  0.51109989000E-03 0.  1.
     -623    1    1    2    0    0  0.39775254981E-01  0.37827046403E-01  0.67185118767E-03  0.17124000880E+03  0.17124000000E+03 0.  1.
</event>
<event>
 7   1  0.1909700E+02  0.9118800E+02  0.7818608E-02  0.1180000E+00
       11   -1    0    0    0    0  0.00000000000E+00  0.00000000000E+00  0.65999999802E+01  0.66000000000E+01  0.51109989000E-03 0. -1.
     -623   -1    0    0    0    0  0.00000000000E+00  0.00000000000E+00  0.75637274222E-11  0.17124000000E+03  0.17124000000E+03 0.  1.
      622    2    1    2    0    0 -0.34730071522E-02 -0.24828812408E-02  0.56840170744E+01  0.56840978464E+01  0.29999999955E-01 0.  0.
     -611    1    3    3    0    0  0.70369069988E-02  0.40654034690E-02  0.46409823902E+01  0.46409895338E+01  0.51109989000E-03 0. -1.
      611    1    3    3    0    0 -0.10509914151E-01 -0.65482847098E-02  0.10430346842E+01  0.10431083127E+01  0.51109989000E-03 0.  1.
       11    1    1    2    0    0  0.10302617555E-02  0.46970445120E-03  0.91590127867E+00  0.91590212116E+00  0.51109989000E-03 0. -1.
     -623    1    1    2    0    0  0.24427453986E-02  0.20131767910E-02  0.81624084257E-04  0.17124000003E+03  0.17124000000E+03 0.  1.
</event>
<event>
 7   1  0.1909700E+02  0.9118800E+02  0.7818608E-02  0.1180000E+00
       11   -1    0    0    0    0  0.00000000000E+00  0.00000000000E+00  0.65999999802E+01  0.66000000000E+01  0.51109989000E-03 0.  1.
     -623   -1    0    0    0    0  0.00000000000E+00  0.00000000000E+00  0.75637274222E-11  0.17124000000E+03  0.17124000000E+03 0. -1.
      622    2    1    2    0    0  0.12652947251E-01 -0.22118623695E-01  0.45192403699E+01  0.45194117816E+01  0.29999998996E-01 0.  0.
     -611    1    3    3    0    0 -0.27271258398E-02  0.43287968183E-02  0.16547596847E+01  0.16547676728E+01  0.51109989000E-03 0. -1.
      611    1    3    3    0    0  0.15380073091E-01 -0.26447420513E-01  0.28644806853E+01  0.28646441088E+01  0.51109989000E-03 0.  1.
       11    1    1    2    0    0 -0.99259265864E-02  0.35255318725E-01  0.20802652248E+01  0.20805876882E+01  0.51109989000E-03 0.  1.
     -623    1    1    2    0    0 -0.27270206756E-02 -0.13136695011E-01  0.49438160606E-03  0.17124000053E+03  0.17124000000E+03 0. -1.
</event>
<event>
 7   1  0.1909700E+02  0.9118800E+02  0.7818608E-02  0.1180000E+00
       11   -1    0    0    0    0  0.00000000000E+00  0.00000000000E+00  0.65999999802E+01  0.66000000000E+01  0.51109989000E-03 0. -1.
     -623   -1    0    0    0    0  0.00000000000E+00  0.00000000000E+00  0.75637274222E-11  0.17124000000E+03  0.17124000000E+03 0.  1.
      622    2    1    2    0    0  0.21244913541E-01  0.69111552829E-02  0.65021506000E+01  0.65022581874E+01  0.29999999726E-01 0.  0.
     -611    1    3    3    0    0  0.18478233714E-01 -0.30406880345E-02  0.58111876210E+01  0.58112178172E+01  0.51109989000E-03 0. -1.
      611    1    3    3    0    0  0.27666798274E-02  0.99518433174E-02  0.69096297901E+00  0.69104037023E+00  0.51109989000E-03 0.  1.
       11    1    1    2    0    0 -0.23863392214E-01  0.54276516756E-03  0.94780816645E-01  0.97741600695E-01  0.51109989000E-03 0. -1.
     -623    1    1    2    0    0  0.26184786654E-02 -0.74539204527E-02  0.30685614031E-02  0.17124000021E+03  0.17124000000E+03 0.  1.
</event>
<event>
 7   1  0.1909700E+02  0.9118800E+02  0.7818608E-02  0.1180000E+00
       11   -1    0    0    0    0  0.00000000000E+00  0.00000000000E+00  0.65999999802E+01  0.66000000000E+01  0.51109989000E-03 0. -1.
     -623   -1    0    0    0    0  0.00000000000E+00  0.00000000000E+00  0.75637274222E-11  0.17124000000E+03  0.17124000000E+03 0.  1.
      622    2    1    2    0    0  0.48333019630E-02  0.34868371407E-02  0.64313017159E+01  0.64313744471E+01  0.30000000266E-01 0.  0.
     -611    1    3    3    0    0  0.11774390243E-01 -0.54990327173E-02  0.14127278575E+01  0.14127877180E+01  0.51109989000E-03 0.  1.
      611    1    3    3    0    0 -0.69410882797E-02  0.89858698579E-02  0.50185738584E+01  0.50185867291E+01  0.51109989000E-03 0. -1.
       11    1    1    2    0    0 -0.95076674548E-02 -0.85830509442E-03  0.16835425591E+00  0.16862546999E+00  0.51109989000E-03 0. -1.
     -623    1    1    2    0    0  0.46743654929E-02 -0.26285320454E-02  0.34400990054E-03  0.17124000008E+03  0.17124000000E+03 0.  1.
</event>
<event>
 7   1  0.1909700E+02  0.9118800E+02  0.7818608E-02  0.1180000E+00
       11   -1    0    0    0    0  0.00000000000E+00  0.00000000000E+00  0.65999999802E+01  0.66000000000E+01  0.51109989000E-03 0.  1.
     -623   -1    0    0    0    0  0.00000000000E+00  0.00000000000E+00  0.75637274222E-11  0.17124000000E+03  0.17124000000E+03 0. -1.
      622    2    1    2    0    0  0.89020867591E-03  0.11555169883E-02  0.42242924945E+01  0.42243992717E+01  0.29999999636E-01 0.  0.
     -611    1    3    3    0    0  0.42225423894E-03  0.15261789687E-01  0.17594660211E+01  0.17595323359E+01  0.51109989000E-03 0. -1.
      611    1    3    3    0    0  0.46795443697E-03 -0.14106272699E-01  0.24648264734E+01  0.24648669358E+01  0.51109989000E-03 0.  1.
       11    1    1    2    0    0  0.43106571863E-03 -0.16896260492E-02  0.23756000232E+01  0.23756007182E+01  0.51109989000E-03 0.  1.
     -623    1    1    2    0    0 -0.13212743954E-02  0.53410905969E-03  0.10745834037E-03  0.17124000001E+03  0.17124000000E+03 0. -1.
</event>
<event>
 7   1  0.1909700E+02  0.9118800E+02  0.7818608E-02  0.1180000E+00
       11   -1    0    0    0    0  0.00000000000E+00  0.00000000000E+00  0.65999999802E+01  0.66000000000E+01  0.51109989000E-03 0. -1.
     -623   -1    0    0    0    0  0.00000000000E+00  0.00000000000E+00  0.75637274222E-11  0.17124000000E+03  0.17124000000E+03 0. -1.
      622    2    1    2    0    0  0.43555201818E-02  0.13794862151E-02  0.23421453602E+01  0.23423419396E+01  0.30000000031E-01 0.  0.
     -611    1    3    3    0    0 -0.11123298642E-01 -0.31850891745E-02  0.14806269553E+01  0.14806722508E+01  0.51109989000E-03 0.  1.
      611    1    3    3    0    0  0.15478818824E-01  0.45645753896E-02  0.86151840498E+00  0.86166968876E+00  0.51109989000E-03 0. -1.
       11    1    1    2    0    0 -0.40292434804E-02 -0.13116217797E-02  0.42576559205E+01  0.42576580598E+01  0.51109989000E-03 0. -1.
     -623    1    1    2    0    0 -0.32627670183E-03 -0.67864435498E-04  0.19869927189E-03  0.17124000000E+03  0.17124000000E+03 0. -1.
</event>
<event>
 7   1  0.1909700E+02  0.9118800E+02  0.7818608E-02  0.1180000E+00
       11   -1    0    0    0    0  0.00000000000E+00  0.00000000000E+00  0.65999999802E+01  0.66000000000E+01  0.51109989000E-03 0. -1.
     -623   -1    0    0    0    0  0.00000000000E+00  0.00000000000E+00  0.75637274222E-11  0.17124000000E+03  0.17124000000E+03 0.  1.
      622    2    1    2    0    0  0.20218732468E-01 -0.26009454125E-01  0.62781735645E+01  0.62783316729E+01  0.30000000011E-01 0.  0.
     -611    1    3    3    0    0  0.16045892341E-01 -0.22883291957E-02  0.39540936851E+01  0.39541269376E+01  0.51109989000E-03 0. -1.
      611    1    3    3    0    0  0.41728401270E-02 -0.23721124929E-01  0.23240798794E+01  0.23242047353E+01  0.51109989000E-03 0.  1.
       11    1    1    2    0    0 -0.21521684938E-01  0.85796426111E-02  0.32083155357E+00  0.32166743724E+00  0.51109989000E-03 0. -1.
     -623    1    1    2    0    0  0.13029524862E-02  0.17429811493E-01  0.99486717636E-03  0.17124000089E+03  0.17124000000E+03 0.  1.
</event>
<event>
 7   1  0.1909700E+02  0.9118800E+02  0.7818608E-02  0.1180000E+00
       11   -1    0    0    0    0  0.00000000000E+00  0.00000000000E+00  0.65999999802E+01  0.66000000000E+01  0.51109989000E-03 0.  1.
     -623   -1    0    0    0    0  0.00000000000E+00  0.00000000000E+00  0.75637274222E-11  0.17124000000E+03  0.17124000000E+03 0. -1.
      622    2    1    2    0    0 -0.61688029699E-03  0.48769364731E-03  0.65930634808E+01  0.65931317809E+01  0.29999999909E-01 0.  0.
     -611    1    3    3    0    0 -0.13210848692E-01  0.66508387563E-02  0.24624749737E+01  0.24625194451E+01  0.51109989000E-03 0. -1.
      611    1    3    3    0    0  0.12593968395E-01 -0.61631451090E-02  0.41305885072E+01  0.41306123359E+01  0.51109989000E-03 0.  1.
       11    1    1    2    0    0 -0.51359343740E-03  0.29767285786E-03  0.68233966130E-02  0.68682130245E-02  0.51109989000E-03 0.  1.
     -623    1    1    2    0    0  0.11304737344E-02 -0.78536650520E-03  0.11310229384E-03  0.17124000001E+03  0.17124000000E+03 0. -1.
</event>
<event>
 7   1  0.1909700E+02  0.9118800E+02  0.7818608E-02  0.1180000E+00
       11   -1    0    0    0    0  0.00000000000E+00  0.00000000000E+00  0.65999999802E+01  0.66000000000E+01  0.51109989000E-03 0. -1.
     -623   -1    0    0    0    0  0.00000000000E+00  0.00000000000E+00  0.75637274222E-11  0.17124000000E+03  0.17124000000E+03 0.  1.
      622    2    1    2    0    0 -0.20671435445E-01 -0.15517637928E-03  0.38585237838E+01  0.38586957800E+01  0.29999999887E-01 0.  0.
     -611    1    3    3    0    0 -0.28204544947E-01 -0.28976847911E-02  0.30810540175E+01  0.30811845146E+01  0.51109989000E-03 0. -1.
      611    1    3    3    0    0  0.75331095017E-02  0.27425084119E-02  0.77746976631E+00  0.77751126541E+00  0.51109989000E-03 0.  1.
       11    1    1    2    0    0  0.35296018050E-01  0.32974880836E-01  0.27408748137E+01  0.27413004500E+01  0.51109989000E-03 0. -1.
     -623    1    1    2    0    0 -0.14624582608E-01 -0.32819704457E-01  0.60138336982E-03  0.17124000377E+03  0.17124000000E+03 0.  1.
</event>
<event>
 7   1  0.1909700E+02  0.9118800E+02  0.7818608E-02  0.1180000E+00
       11   -1    0    0    0    0  0.00000000000E+00  0.00000000000E+00  0.65999999802E+01  0.66000000000E+01  0.51109989000E-03 0.  1.
     -623   -1    0    0    0    0  0.00000000000E+00  0.00000000000E+00  0.75637274222E-11  0.17124000000E+03  0.17124000000E+03 0. -1.
      622    2    1    2    0    0 -0.62270771208E-03  0.13072377688E-02  0.57661057498E+01  0.57661839733E+01  0.30000000085E-01 0.  0.
     -611    1    3    3    0    0 -0.12294535187E-01  0.33836427594E-02  0.46030926207E+01  0.46031103116E+01  0.51109989000E-03 0.  1.
      611    1    3    3    0    0  0.11671827475E-01 -0.20764049906E-02  0.11630131291E+01  0.11630736618E+01  0.51109989000E-03 0. -1.
       11    1    1    2    0    0  0.58758785135E-04 -0.75273209717E-03  0.83381551942E+00  0.83381601790E+00  0.51109989000E-03 0.  1.
     -623    1    1    2    0    0  0.56394892769E-03 -0.55450567319E-03  0.78704091772E-04  0.17124000000E+03  0.17124000000E+03 0. -1.
</event>
<event>
 7   1  0.1909700E+02  0.9118800E+02  0.7818608E-02  0.1180000E+00
       11   -1    0    0    0    0  0.00000000000E+00  0.00000000000E+00  0.65999999802E+01  0.66000000000E+01  0.51109989000E-03 0. -1.
     -623   -1    0    0    0    0  0.00000000000E+00  0.00000000000E+00  0.75637274222E-11  0.17124000000E+03  0.17124000000E+03 0.  1.
      622    2    1    2    0    0 -0.13657786567E-02 -0.17479896786E-02  0.61012732035E+01  0.61013473614E+01  0.30000000167E-01 0.  0.
     -611    1    3    3    0    0  0.35564107606E-02 -0.60841688975E-02  0.57914072287E+01  0.57914115391E+01  0.51109989000E-03 0.  1.
      611    1    3    3    0    0 -0.49221894173E-02  0.43361792188E-02  0.30986597478E+00  0.30993582231E+00  0.51109989000E-03 0. -1.
       11    1    1    2    0    0  0.12475993544E-02  0.10914473446E-01  0.49853111116E+00  0.49865239621E+00  0.51109989000E-03 0. -1.
     -623    1    1    2    0    0  0.11817930163E-03 -0.91664837684E-02  0.19566867635E-03  0.17124000025E+03  0.17124000000E+03 0.  1.
</event>
<event>
 7   1  0.1909700E+02  0.9118800E+02  0.7818608E-02  0.1180000E+00
       11   -1    0    0    0    0  0.00000000000E+00  0.00000000000E+00  0.65999999802E+01  0.66000000000E+01  0.51109989000E-03 0.  1.
     -623   -1    0    0    0    0  0.00000000000E+00  0.00000000000E+00  0.75637274222E-11  0.17124000000E+03  0.17124000000E+03 0.  1.
      622    2    1    2    0    0  0.67530244030E-03 -0.20296714303E-02  0.65696699624E+01  0.65697388069E+01  0.29999999820E-01 0.  0.
     -611    1    3    3    0    0  0.11973864518E-01 -0.17721754548E-02  0.12939469732E+01  0.12940036881E+01  0.51109989000E-03 0. -1.
      611    1    3    3    0    0 -0.11298562077E-01 -0.25749597551E-03  0.52757229892E+01  0.52757351188E+01  0.51109989000E-03 0.  1.
       11    1    1    2    0    0  0.35911519411E-02  0.42274017135E-02  0.29744024407E-01  0.30261122068E-01  0.51109989000E-03 0.  1.
     -623    1    1    2    0    0 -0.42664543817E-02 -0.21977302824E-02  0.58599060147E-03  0.17124000007E+03  0.17124000000E+03 0.  1.
</event>
<event>
 7   1  0.1909700E+02  0.9118800E+02  0.7818608E-02  0.1180000E+00
       11   -1    0    0    0    0  0.00000000000E+00  0.00000000000E+00  0.65999999802E+01  0.66000000000E+01  0.51109989000E-03 0. -1.
     -623   -1    0    0    0    0  0.00000000000E+00  0.00000000000E+00  0.75637274222E-11  0.17124000000E+03  0.17124000000E+03 0. -1.
      622    2    1    2    0    0  0.57374366682E-03 -0.22794863618E-02  0.65488510629E+01  0.65489201988E+01  0.30000000476E-01 0.  0.
     -611    1    3    3    0    0  0.18135948145E-02 -0.15974977493E-01  0.39412723250E+01  0.39413051506E+01  0.51109989000E-03 0. -1.
      611    1    3    3    0    0 -0.12398511477E-02  0.13695491131E-01  0.26075787379E+01  0.26076150482E+01  0.51109989000E-03 0.  1.
       11    1    1    2    0    0  0.43946074675E-02  0.34418028239E-02  0.50771235501E-01  0.51079723551E-01  0.51109989000E-03 0. -1.
     -623    1    1    2    0    0 -0.49683511344E-02 -0.11623164617E-02  0.37768053385E-03  0.17124000008E+03  0.17124000000E+03 0. -1.
</event>
<event>
 7   1  0.1909700E+02  0.9118800E+02  0.7818608E-02  0.1180000E+00
       11   -1    0    0    0    0  0.00000000000E+00  0.00000000000E+00  0.65999999802E+01  0.66000000000E+01  0.51109989000E-03 0.  1.
     -623   -1    0    0    0    0  0.00000000000E+00  0.00000000000E+00  0.75637274222E-11  0.17124000000E+03  0.17124000000E+03 0.  1.
      622    2    1    2    0    0 -0.23453751168E-03  0.23168593691E-02  0.65933316072E+01  0.65934002689E+01  0.29999999941E-01 0.  0.
     -611    1    3    3    0    0  0.14112341618E-01 -0.24221690114E-02  0.25335360428E+01  0.25335765563E+01  0.51109989000E-03 0. -1.
      611    1    3    3    0    0 -0.14346879130E-01  0.47390283805E-02  0.40597955644E+01  0.40598237126E+01  0.51109989000E-03 0.  1.
       11    1    1    2    0    0  0.30853772396E-03 -0.19658052425E-02  0.62718101056E-02  0.65997279514E-02  0.51109989000E-03 0.  1.
     -623    1    1    2    0    0 -0.74000212192E-04 -0.35105412743E-03  0.39656055450E-03  0.17124000000E+03  0.17124000000E+03 0.  1.
</event>
<event>
 7   1  0.1909700E+02  0.9118800E+02  0.7818608E-02  0.1180000E+00
       11   -1    0    0    0    0  0.00000000000E+00  0.00000000000E+00  0.65999999802E+01  0.66000000000E+01  0.51109989000E-03 0.  1.
     -623   -1    0    0    0    0  0.00000000000E+00  0.00000000000E+00  0.75637274222E-11  0.17124000000E+03  0.17124000000E+03 0.  1.
      622    2    1    2    0    0 -0.33332825855E-02 -0.14779924531E-02  0.62491079015E+01  0.62491809751E+01  0.29999999453E-01 0.  0.
     -611    1    3    3    0    0  0.16260694250E-02 -0.13835352321E-02  0.60780772931E+01  0.60780776896E+01  0.51109989000E-03 0.  1.
      611    1    3    3    0    0 -0.49593520105E-02 -0.94457220933E-04  0.17103060839E+00  0.17110328555E+00  0.51109989000E-03 0. -1.
       11    1    1    2    0    0  0.37450885799E-02  0.44837931047E-03  0.35079836973E+00  0.35081901910E+00  0.51109989000E-03 0.  1.
     -623    1    1    2    0    0 -0.41180599321E-03  0.10296131431E-02  0.93706820221E-04  0.17124000000E+03  0.17124000000E+03 0.  1.
</event>
<event>
 7   1  0.1909700E+02  0.9118800E+02  0.7818608E-02  0.1180000E+00
       11   -1    0    0    0    0  0.00000000000E+00  0.00000000000E+00  0.65999999802E+01  0.66000000000E+01  0.51109989000E-03 0.  1.
     -623   -1    0    0    0    0  0.00000000000E+00  0.00000000000E+00  0.75637274222E-11  0.17124000000E+03  0.17124000000E+03 0. -1.
      622    2    1    2    0    0 -0.11655961794E-02  0.26754720640E-02  0.65476432517E+01  0.65477126287E+01  0.29999999896E-01 0.  0.
     -611    1    3    3    0    0  0.10899954598E-01  0.11834614521E-02  0.10786824981E+01  0.10787383383E+01  0.51109989000E-03 0. -1.
      611    1    3    3    0    0 -0.12065550777E-01  0.14920106119E-02  0.54689607536E+01  0.54689742904E+01  0.51109989000E-03 0.  1.
       11    1    1    2    0    0  0.16535210581E-02 -0.29895203762E-02  0.52173136288E-01  0.52287366874E-01  0.51109989000E-03 0.  1.
     -623    1    1    2    0    0 -0.48792487814E-03  0.31404831082E-03  0.18358890503E-03  0.17124000000E+03  0.17124000000E+03 0. -1.
</event>
<event>
 7   1  0.1909700E+02  0.9118800E+02  0.7818608E-02  0.1180000E+00
       11   -1    0    0    0    0  0.00000000000E+00  0.00000000000E+00  0.65999999802E+01  0.66000000000E+01  0.51109989000E-03 0.  1.
     -623   -1    0    0    0    0  0.00000000000E+00  0.00000000000E+00  0.75637274222E-11  0.17124000000E+03  0.17124000000E+03 0. -1.
      622    2    1    2    0    0  0.60846606875E-03 -0.15720537302E-02  0.64090345588E+01  0.64091049935E+01  0.30000000255E-01 0.  0.
     -611    1    3    3    0    0  0.14190953137E-01 -0.20866370587E-02  0.44536800414E+01  0.44537031681E+01  0.51109989000E-03 0.  1.
      611    1    3    3    0    0 -0.13582487068E-01  0.51458332853E-03  0.19553545174E+01  0.19554018254E+01  0.51109989000E-03 0. -1.
       11    1    1    2    0    0 -0.93781801902E-03  0.40658142234E-03  0.19089158341E+00  0.19089500426E+00  0.51109989000E-03 0.  1.
     -623    1    1    2    0    0  0.32935195047E-03  0.11654723073E-02  0.73840046993E-04  0.17124000000E+03  0.17124000000E+03 0. -1.
</event>
<event>
 7   1  0.1909700E+02  0.9118800E+02  0.7818608E-02  0.1180000E+00
       11   -1    0    0    0    0  0.00000000000E+00  0.00000000000E+00  0.65999999802E+01  0.66000000000E+01  0.51109989000E-03 0.  1.
     -623   -1    0    0    0    0  0.00000000000E+00  0.00000000000E+00  0.75637274222E-11  0.17124000000E+03  0.17124000000E+03 0.  1.
      622    2    1    2    0    0  0.39085892333E-02  0.43406451793E-02  0.64543797396E+01  0.64544521024E+01  0.30000000265E-01 0.  0.
     -611    1    3    3    0    0 -0.11674814298E-01  0.80980515391E-02  0.34927858825E+01  0.34928148194E+01  0.51109989000E-03 0.  1.
      611    1    3    3    0    0  0.15583403531E-01 -0.37574063598E-02  0.29615938571E+01  0.29616372830E+01  0.51109989000E-03 0. -1.
       11    1    1    2    0    0 -0.86178499875E-03 -0.69789594587E-02  0.14537697753E+00  0.14554784563E+00  0.51109989000E-03 0.  1.
     -623    1    1    2    0    0 -0.30468042372E-02  0.26383142765E-02  0.24325864118E-03  0.17124000005E+03  0.17124000000E+03 0.  1.
</event>
<event>
 7   1  0.1909700E+02  0.9118800E+02  0.7818608E-02  0.1180000E+00
       11   -1    0    0    0    0  0.00000000000E+00  0.00000000000E+00  0.65999999802E+01  0.66000000000E+01  0.51109989000E-03 0. -1.
     -623   -1    0    0    0    0  0.00000000000E+00  0.00000000000E+00  0.75637274222E-11  0.17124000000E+03  0.17124000000E+03 0.  1.
      622    2    1    2    0    0  0.12919183549E-02 -0.50287065251E-02  0.64634939157E+01  0.64635656224E+01  0.29999999975E-01 0.  0.
     -611    1    3    3    0    0  0.14203712354E-01 -0.11779837442E-03  0.20100354605E+01  0.20100857128E+01  0.51109989000E-03 0.  1.
      611    1    3    3    0    0 -0.12911793999E-01 -0.49109081507E-02  0.44534584552E+01  0.44534799096E+01  0.51109989000E-03 0. -1.
       11    1    1    2    0    0 -0.16564239503E-02  0.50908429156E-02  0.13632834340E+00  0.13643437564E+00  0.51109989000E-03 0. -1.
     -623    1    1    2    0    0  0.36450559514E-03 -0.62136389370E-04  0.17771966785E-03  0.17124000000E+03  0.17124000000E+03 0.  1.
</event>
<event>
 7   1  0.1909700E+02  0.9118800E+02  0.7818608E-02  0.1180000E+00
       11   -1    0    0    0    0  0.00000000000E+00  0.00000000000E+00  0.65999999802E+01  0.66000000000E+01  0.51109989000E-03 0. -1.
     -623   -1    0    0    0    0  0.00000000000E+00  0.00000000000E+00  0.75637274222E-11  0.17124000000E+03  0.17124000000E+03 0.  1.
      622    2    1    2    0    0 -0.17416542170E-02 -0.15462353287E-03  0.65982805089E+01  0.65983489398E+01  0.29999999917E-01 0.  0.
     -611    1    3    3    0    0 -0.18901416754E-02  0.13801262889E-01  0.45206357355E+01  0.45206572268E+01  0.51109989000E-03 0. -1.
      611    1    3    3    0    0  0.14848745837E-03 -0.13955886422E-01  0.20776447734E+01  0.20776917130E+01  0.51109989000E-03 0.  1.
       11    1    1    2    0    0  0.57777025866E-03 -0.87257549671E-03  0.11702784212E-02  0.16510540495E-02  0.51109989000E-03 0. -1.
     -623    1    1    2    0    0  0.11638839579E-02  0.10271990295E-02  0.54919466575E-03  0.17124000001E+03  0.17124000000E+03 0.  1.
</event>
<event>
 7   1  0.1909700E+02  0.9118800E+02  0.7818608E-02  0.1180000E+00
       11   -1    0    0    0    0  0.00000000000E+00  0.00000000000E+00  0.65999999802E+01  0.66000000000E+01  0.51109989000E-03 0. -1.
     -623   -1    0    0    0    0  0.00000000000E+00  0.00000000000E+00  0.75637274222E-11  0.17124000000E+03  0.17124000000E+03 0.  1.
      622    2    1    2    0    0  0.11787333452E-02  0.15128360095E-02  0.62116373459E+01  0.62117100862E+01  0.30000000200E-01 0.  0.
     -611    1    3    3    0    0  0.13343682724E-01  0.69140174336E-02  0.22440248268E+01  0.22440752086E+01  0.51109989000E-03 0. -1.
      611    1    3    3    0    0 -0.12164949379E-01 -0.54011814241E-02  0.39676125191E+01  0.39676348776E+01  0.51109989000E-03 0.  1.
       11    1    1    2    0    0 -0.20479593688E-02  0.30265717222E-02  0.38827231615E+00  0.38828984919E+00  0.51109989000E-03 0. -1.
     -623    1    1    2    0    0  0.86922602316E-03 -0.45394077322E-02  0.90315960844E-04  0.17124000006E+03  0.17124000000E+03 0.  1.
</event>
<event>
 7   1  0.1909700E+02  0.9118800E+02  0.7818608E-02  0.1180000E+00
       11   -1    0    0    0    0  0.00000000000E+00  0.00000000000E+00  0.65999999802E+01  0.66000000000E+01  0.51109989000E-03 0. -1.
     -623   -1    0    0    0    0  0.00000000000E+00  0.00000000000E+00  0.75637274222E-11  0.17124000000E+03  0.17124000000E+03 0.  1.
      622    2    1    2    0    0 -0.15089500214E-02  0.58220365951E-03  0.59889621964E+01  0.59890375526E+01  0.29999998751E-01 0.  0.
     -611    1    3    3    0    0  0.60942879077E-03 -0.14629676347E-01  0.30455552424E+01  0.30455904837E+01  0.51109989000E-03 0.  1.
      611    1    3    3    0    0 -0.21183788122E-02  0.15211880007E-01  0.29434069540E+01  0.29434470688E+01  0.51109989000E-03 0. -1.
       11    1    1    2    0    0  0.61463798050E-02  0.53464452152E-02  0.61090775530E+00  0.61096228130E+00  0.51109989000E-03 0. -1.
     -623    1    1    2    0    0 -0.46374297834E-02 -0.59286488748E-02  0.13002782958E-03  0.17124000017E+03  0.17124000000E+03 0.  1.
</event>
<event>
 7   1  0.1909700E+02  0.9118800E+02  0.7818608E-02  0.1180000E+00
       11   -1    0    0    0    0  0.00000000000E+00  0.00000000000E+00  0.65999999802E+01  0.66000000000E+01  0.51109989000E-03 0.  1.
     -623   -1    0    0    0    0  0.00000000000E+00  0.00000000000E+00  0.75637274222E-11  0.17124000000E+03  0.17124000000E+03 0. -1.
      622    2    1    2    0    0  0.68318426989E-03  0.84975603604E-03  0.65759207292E+01  0.65759892507E+01  0.29999999796E-01 0.  0.
     -611    1    3    3    0    0  0.68800352556E-02  0.12701834787E-01  0.46263224928E+01  0.46263450736E+01  0.51109989000E-03 0.  1.
      611    1    3    3    0    0 -0.61968509858E-02 -0.11852078751E-01  0.19495982364E+01  0.19496441771E+01  0.51109989000E-03 0. -1.
       11    1    1    2    0    0  0.33125569350E-03 -0.11038818326E-02  0.23977619818E-01  0.24010742545E-01  0.51109989000E-03 0.  1.
     -623    1    1    2    0    0 -0.10144399638E-02  0.25412579610E-03  0.10162768485E-03  0.17124000000E+03  0.17124000000E+03 0. -1.
</event>
<event>
 7   1  0.1909700E+02  0.9118800E+02  0.7818608E-02  0.1180000E+00
       11   -1    0    0    0    0  0.00000000000E+00  0.00000000000E+00  0.65999999802E+01  0.66000000000E+01  0.51109989000E-03 0.  1.
     -623   -1    0    0    0    0  0.00000000000E+00  0.00000000000E+00  0.75637274222E-11  0.17124000000E+03  0.17124000000E+03 0.  1.
      622    2    1    2    0    0  0.10368091529E-03 -0.15862160599E-02  0.65467347090E+01  0.65468036382E+01  0.29999999602E-01 0.  0.
     -611    1    3    3    0    0 -0.46212992862E-02  0.13442545776E-01  0.29067850006E+01  0.29068198017E+01  0.51109989000E-03 0. -1.
      611    1    3    3    0    0  0.47249802015E-02 -0.15028761835E-01  0.36399497084E+01  0.36399838365E+01  0.51109989000E-03 0.  1.
       11    1    1    2    0    0  0.16608714402E-02  0.47587026429E-02  0.52954549053E-01  0.53196327241E-01  0.51109989000E-03 0. -1.
     -623    1    1    2    0    0 -0.17645523555E-02 -0.31724865840E-02  0.31072634315E-03  0.17124000004E+03  0.17124000000E+03 0.  1.
</event>
<event>
 7   1  0.1909700E+02  0.9118800E+02  0.7818608E-02  0.1180000E+00
       11   -1    0    0    0    0  0.00000000000E+00  0.00000000000E+00  0.65999999802E+01  0.66000000000E+01  0.51109989000E-03 0. -1.
     -623   -1    0    0    0    0  0.00000000000E+00  0.00000000000E+00  0.75637274222E-11  0.17124000000E+03  0.17124000000E+03 0. -1.
      622    2    1    2    0    0  0.00000000000E+00  0.00000000000E+00  0.65910093682E+01  0.65910776426E+01  0.29999999822E-01 0.  0.
     -611    1    3    3    0    0 -0.10960772091E-01  0.74143779175E-02  0.17477744072E+01  0.17478245768E+01  0.51109989000E-03 0.  1.
      611    1    3    3    0    0  0.10960772091E-01 -0.74143779175E-02  0.48432349609E+01  0.48432530658E+01  0.51109989000E-03 0. -1.
       11    1    1    2    0    0  0.16226249756E-03  0.25180170195E-03  0.94413703146E-02  0.94599381129E-02  0.51109989000E-03 0.  1.
     -623    1    1    2    0    0 -0.16226249756E-03 -0.25180170195E-03  0.86817200729E-04  0.17124000000E+03  0.17124000000E+03 0. -1.
</event>
<event>
 7   1  0.1909700E+02  0.9118800E+02  0.7818608E-02  0.1180000E+00
       11   -1    0    0    0    0  0.00000000000E+00  0.00000000000E+00  0.65999999802E+01  0.66000000000E+01  0.51109989000E-03 0.  1.
     -623   -1    0    0    0    0  0.00000000000E+00  0.00000000000E+00  0.75637274222E-11  0.17124000000E+03  0.17124000000E+03 0.  1.
      622    2    1    2    0    0 -0.17365664916E-02 -0.29431940951E-02  0.65791619439E+01  0.65792312288E+01  0.30000000030E-01 0.  0.
     -611    1    3    3    0    0 -0.82976626054E-02 -0.89786070301E-03  0.62061286567E+01  0.62061342897E+01  0.51109989000E-03 0.  1.
      611    1    3    3    0    0  0.65610961138E-02 -0.20453333920E-02  0.37303328723E+00  0.37309693911E+00  0.51109989000E-03 0. -1.
       11    1    1    2    0    0  0.21245183666E-02  0.27844354102E-02  0.20464941759E-01  0.20768767951E-01  0.51109989000E-03 0.  1.
     -623    1    1    2    0    0 -0.38795187435E-03  0.15875868592E-03  0.37309223699E-03  0.17124000000E+03  0.17124000000E+03 0.  1.
</event>
<event>
 7   1  0.1909700E+02  0.9118800E+02  0.7818608E-02  0.1180000E+00
       11   -1    0    0    0    0  0.00000000000E+00  0.00000000000E+00  0.65999999802E+01  0.66000000000E+01  0.51109989000E-03 0. -1.
     -623   -1    0    0    0    0  0.00000000000E+00  0.00000000000E+00  0.75637274222E-11  0.17124000000E+03  0.17124000000E+03 0.  1.
      622    2    1    2    0    0  0.79316401862E-02  0.53649610085E-02  0.63524055241E+01  0.63524835802E+01  0.30000000121E-01 0.  0.
     -611    1    3    3    0    0 -0.49971628346E-03  0.15420553664E-01  0.47195478457E+01  0.47195730922E+01  0.51109989000E-03 0. -1.
      611    1    3    3    0    0  0.84313564696E-02 -0.10055592655E-01  0.16328576784E+01  0.16329104880E+01  0.51109989000E-03 0.  1.
       11    1    1    2    0    0  0.33184332965E-02 -0.21031704499E-02  0.24748430406E+00  0.24751601424E+00  0.51109989000E-03 0. -1.
     -623    1    1    2    0    0 -0.11250073489E-01 -0.32617905627E-02  0.11014711537E-03  0.17124000040E+03  0.17124000000E+03 0.  1.
</event>
<event>
 7   1  0.1909700E+02  0.9118800E+02  0.7818608E-02  0.1180000E+00
       11   -1    0    0    0    0  0.00000000000E+00  0.00000000000E+00  0.65999999802E+01  0.66000000000E+01  0.51109989000E-03 0. -1.
     -623   -1    0    0    0    0  0.00000000000E+00  0.00000000000E+00  0.75637274222E-11  0.17124000000E+03  0.17124000000E+03 0.  1.
      622    2    1    2    0    0 -0.86687362998E-04 -0.25401323737E-01  0.49068461018E+01  0.49070035563E+01  0.30000000251E-01 0.  0.
     -611    1    3    3    0    0  0.12021704159E-01 -0.24324594026E-01  0.34224483791E+01  0.34225559712E+01  0.51109989000E-03 0.  1.
      611    1    3    3    0    0 -0.12108391522E-01 -0.10767297115E-02  0.14843977227E+01  0.14844475851E+01  0.51109989000E-03 0. -1.
       11    1    1    2    0    0  0.28426632404E-02  0.26167868390E-01  0.16927917109E+01  0.16929964193E+01  0.51109989000E-03 0. -1.
     -623    1    1    2    0    0 -0.27559758774E-02 -0.76654465265E-03  0.36216739942E-03  0.17124000002E+03  0.17124000000E+03 0.  1.
</event>
<event>
 7   1  0.5966306E+02  0.9118800E+02  0.7818608E-02  0.1180000E+00
       11   -1    0    0    0    0  0.00000000000E+00  0.00000000000E+00  0.65999999802E+01  0.66000000000E+01  0.51109989000E-03 0. -1.
     -623   -1    0    0    0    0  0.00000000000E+00  0.00000000000E+00  0.75637274222E-11  0.17124000000E+03  0.17124000000E+03 0. -1.
      622    2    1    2    0    0  0.00000000000E+00  0.00000000000E+00  0.65668099416E+01  0.65668784677E+01  0.30000000533E-01 0.  0.
     -611    1    3    3    0    0 -0.13915432399E-01  0.47405611944E-02  0.26404838574E+01  0.26405248294E+01  0.51109989000E-03 0.  1.
      611    1    3    3    0    0  0.13915432399E-01 -0.47405611944E-02  0.39263260842E+01  0.39263536383E+01  0.51109989000E-03 0. -1.
       11    1    1    2    0    0  0.29774359438E-03  0.47259766590E-04  0.33865068458E-01  0.33870266714E-01  0.51109989000E-03 0. -1.
     -623    1    1    2    0    0 -0.29774359438E-03 -0.47259766590E-04  0.73697011627E-04  0.17124000000E+03  0.17124000000E+03 0. -1.
</event>
<event>
 7   1  0.1909700E+02  0.9118800E+02  0.7818608E-02  0.1180000E+00
       11   -1    0    0    0    0  0.00000000000E+00  0.00000000000E+00  0.65999999802E+01  0.66000000000E+01  0.51109989000E-03 0. -1.
     -623   -1    0    0    0    0  0.00000000000E+00  0.00000000000E+00  0.75637274222E-11  0.17124000000E+03  0.17124000000E+03 0. -1.
      622    2    1    2    0    0 -0.65678539383E-02 -0.39027767479E-02  0.65542963754E+01  0.65543694849E+01  0.30000000251E-01 0.  0.
     -611    1    3    3    0    0  0.25161788912E-02 -0.11902733326E-01  0.12507140284E+01  0.12507733001E+01  0.51109989000E-03 0. -1.
      611    1    3    3    0    0 -0.90840328296E-02  0.79999565776E-02  0.53035823470E+01  0.53035961849E+01  0.51109989000E-03 0.  1.
       11    1    1    2    0    0  0.64462317095E-02  0.25580461114E-02  0.45097505594E-01  0.45630513200E-01  0.51109989000E-03 0. -1.
     -623    1    1    2    0    0  0.12162222429E-03  0.13447306338E-02  0.60610374808E-03  0.17124000001E+03  0.17124000000E+03 0. -1.
</event>
<event>
 7   1  0.1909700E+02  0.9118800E+02  0.7818608E-02  0.1180000E+00
       11   -1    0    0    0    0  0.00000000000E+00  0.00000000000E+00  0.65999999802E+01  0.66000000000E+01  0.51109989000E-03 0. -1.
     -623   -1    0    0    0    0  0.00000000000E+00  0.00000000000E+00  0.75637274222E-11  0.17124000000E+03  0.17124000000E+03 0.  1.
      622    2    1    2    0    0 -0.35608503932E-03 -0.79974093216E-03  0.65462050852E+01  0.65462738855E+01  0.29999999805E-01 0.  0.
     -611    1    3    3    0    0  0.24072505015E-02  0.50704605571E-02  0.24267344084E+00  0.24273888139E+00  0.51109989000E-03 0.  1.
      611    1    3    3    0    0 -0.27633355408E-02 -0.58702014893E-02  0.63035316444E+01  0.63035350041E+01  0.51109989000E-03 0. -1.
       11    1    1    2    0    0  0.28841104031E-03  0.68377190338E-03  0.53718551982E-01  0.53726108857E-01  0.51109989000E-03 0. -1.
     -623    1    1    2    0    0  0.67673999318E-04  0.11596902946E-03  0.76337454941E-04  0.17124000000E+03  0.17124000000E+03 0.  1.
</event>
<event>
 7   1  0.1909700E+02  0.9118800E+02  0.7818608E-02  0.1180000E+00
       11   -1    0    0    0    0  0.00000000000E+00  0.00000000000E+00  0.65999999802E+01  0.66000000000E+01  0.51109989000E-03 0.  1.
     -623   -1    0    0    0    0  0.00000000000E+00  0.00000000000E+00  0.75637274222E-11  0.17124000000E+03  0.17124000000E+03 0.  1.
      622    2    1    2    0    0  0.53317574579E-03 -0.79748117242E-03  0.65500289885E+01  0.65500977604E+01  0.30000000628E-01 0.  0.
     -611    1    3    3    0    0 -0.11168755497E-01  0.27623893810E-05  0.53425102913E+01  0.53425219902E+01  0.51109989000E-03 0.  1.
      611    1    3    3    0    0  0.11701931243E-01 -0.80024356180E-03  0.12075186972E+01  0.12075757703E+01  0.51109989000E-03 0. -1.
       11    1    1    2    0    0 -0.49942543842E-03  0.60355299195E-03  0.49893473553E-01  0.49902240703E-01  0.51109989000E-03 0.  1.
     -623    1    1    2    0    0 -0.33750307264E-04  0.19392818031E-03  0.77519373708E-04  0.17124000000E+03  0.17124000000E+03 0.  1.
</event>
<event>
 7   1  0.1909700E+02  0.9118800E+02  0.7818608E-02  0.1180000E+00
       11   -1    0    0    0    0  0.00000000000E+00  0.00000000000E+00  0.65999999802E+01  0.66000000000E+01  0.51109989000E-03 0. -1.
     -623   -1    0    0    0    0  0.00000000000E+00  0.00000000000E+00  0.75637274222E-11  0.17124000000E+03  0.17124000000E+03 0. -1.
      622    2    1    2    0    0  0.41549734212E-03  0.97508738392E-03  0.65355473628E+01  0.65356163026E+01  0.29999999096E-01 0.  0.
     -611    1    3    3    0    0  0.12434810221E-01 -0.53940730888E-02  0.18750011729E+01  0.18750502340E+01  0.51109989000E-03 0.  1.
      611    1    3    3    0    0 -0.12019312879E-01  0.63691604727E-02  0.46605461899E+01  0.46605660686E+01  0.51109989000E-03 0. -1.
       11    1    1    2    0    0 -0.50873654792E-03 -0.91973640241E-03  0.64373083387E-01  0.64383692144E-01  0.51109989000E-03 0. -1.
     -623    1    1    2    0    0  0.93239205469E-04 -0.55350982283E-04  0.79528826043E-04  0.17124000000E+03  0.17124000000E+03 0. -1.
</event>
<event>
 7   1  0.1909700E+02  0.9118800E+02  0.7818608E-02  0.1180000E+00
       11   -1    0    0    0    0  0.00000000000E+00  0.00000000000E+00  0.65999999802E+01  0.66000000000E+01  0.51109989000E-03 0. -1.
     -623   -1    0    0    0    0  0.00000000000E+00  0.00000000000E+00  0.75637274222E-11  0.17124000000E+03  0.17124000000E+03 0. -1.
      622    2    1    2    0    0 -0.80020948436E-03  0.53709840088E-07  0.65934611060E+01  0.65935294037E+01  0.29999999979E-01 0.  0.
     -611    1    3    3    0    0 -0.56290744545E-02  0.84165106128E-02  0.57992208321E+01  0.57992296941E+01  0.51109989000E-03 0. -1.
      611    1    3    3    0    0  0.48288649702E-02 -0.84164569029E-02  0.79424027394E+00  0.79429970959E+00  0.51109989000E-03 0.  1.
       11    1    1    2    0    0  0.87859563260E-03  0.11995161121E-03  0.63891304662E-02  0.64705894495E-02  0.51109989000E-03 0. -1.
     -623    1    1    2    0    0 -0.78386147415E-04 -0.12000532105E-03  0.14973696716E-03  0.17124000000E+03  0.17124000000E+03 0. -1.
</event>
<event>
 7   1  0.1909700E+02  0.9118800E+02  0.7818608E-02  0.1180000E+00
       11   -1    0    0    0    0  0.00000000000E+00  0.00000000000E+00  0.65999999802E+01  0.66000000000E+01  0.51109989000E-03 0.  1.
     -623   -1    0    0    0    0  0.00000000000E+00  0.00000000000E+00  0.75637274222E-11  0.17124000000E+03  0.17124000000E+03 0.  1.
      622    2    1    2    0    0  0.50737533878E-02  0.61086377179E-01  0.48836530669E+01  0.48841298679E+01  0.30000000196E-01 0.  0.
     -611    1    3    3    0    0 -0.64874586510E-03  0.57984292460E-01  0.47052883269E+01  0.47056456623E+01  0.51109989000E-03 0.  1.
      611    1    3    3    0    0  0.57224992529E-02  0.31020847191E-02  0.17836474003E+00  0.17848420556E+00  0.51109989000E-03 0. -1.
       11    1    1    2    0    0 -0.21115451019E-01 -0.50135434857E-01  0.17150063655E+01  0.17158690273E+01  0.51109989000E-03 0.  1.
     -623    1    1    2    0    0  0.16041697633E-01 -0.10950942297E-01  0.13405498470E-02  0.17124000111E+03  0.17124000000E+03 0.  1.
</event>
<event>
 7   1  0.1909700E+02  0.9118800E+02  0.7818608E-02  0.1180000E+00
       11   -1    0    0    0    0  0.00000000000E+00  0.00000000000E+00  0.65999999802E+01  0.66000000000E+01  0.51109989000E-03 0. -1.
     -623   -1    0    0    0    0  0.00000000000E+00  0.00000000000E+00  0.75637274222E-11  0.17124000000E+03  0.17124000000E+03 0.  1.
      622    2    1    2    0    0  0.12262224235E-02 -0.16573579036E-02  0.61864322807E+01  0.61865053636E+01  0.29999999489E-01 0.  0.
     -611    1    3    3    0    0  0.89414193974E-02 -0.80795376511E-02  0.11538121178E+01  0.11538751632E+01  0.51109989000E-03 0.  1.
      611    1    3    3    0    0 -0.77151969739E-02  0.64221797474E-02  0.50326201630E+01  0.50326302005E+01  0.51109989000E-03 0. -1.
       11    1    1    2    0    0 -0.82110296586E-03  0.13352609546E-02  0.41349134160E+00  0.41349462866E+00  0.51109989000E-03 0. -1.
     -623    1    1    2    0    0 -0.40511945904E-03  0.32209695083E-03  0.76350999431E-04  0.17124000000E+03  0.17124000000E+03 0.  1.
</event>
<event>
 7   1  0.1909700E+02  0.9118800E+02  0.7818608E-02  0.1180000E+00
       11   -1    0    0    0    0  0.00000000000E+00  0.00000000000E+00  0.65999999802E+01  0.66000000000E+01  0.51109989000E-03 0. -1.
     -623   -1    0    0    0    0  0.00000000000E+00  0.00000000000E+00  0.75637274222E-11  0.17124000000E+03  0.17124000000E+03 0. -1.
      622    2    1    2    0    0  0.21169862959E-01  0.15507586450E-01  0.48222301869E+01  0.48223949054E+01  0.29999997398E-01 0.  0.
     -611    1    3    3    0    0  0.10651332367E-01 -0.12762715071E-02  0.34980335228E+01  0.34980500093E+01  0.51109989000E-03 0. -1.
      611    1    3    3    0    0  0.10518530592E-01  0.16783857957E-01  0.13241966640E+01  0.13243448960E+01  0.51109989000E-03 0.  1.
       11    1    1    2    0    0  0.28622980811E-01  0.28620181939E-01  0.17771311881E+01  0.17775921666E+01  0.51109989000E-03 0. -1.
     -623    1    1    2    0    0 -0.49792843778E-01 -0.44127768394E-01  0.63860351332E-03  0.17124001293E+03  0.17124000000E+03 0. -1.
</event>
<event>
 7   1  0.1909700E+02  0.9118800E+02  0.7818608E-02  0.1180000E+00
       11   -1    0    0    0    0  0.00000000000E+00  0.00000000000E+00  0.65999999802E+01  0.66000000000E+01  0.51109989000E-03 0. -1.
     -623   -1    0    0    0    0  0.00000000000E+00  0.00000000000E+00  0.75637274222E-11  0.17124000000E+03  0.17124000000E+03 0. -1.
      622    2    1    2    0    0  0.69609259315E-03  0.86185851737E-02  0.61561932776E+01  0.61562724465E+01  0.30000000328E-01 0.  0.
     -611    1    3    3    0    0  0.50952605027E-02  0.50006478529E-02  0.59377861128E+01  0.59377904267E+01  0.51109989000E-03 0. -1.
      611    1    3    3    0    0 -0.43991679095E-02  0.36179373208E-02  0.21840716481E+00  0.21848201989E+00  0.51109989000E-03 0.  1.
       11    1    1    2    0    0 -0.38940327211E-02 -0.71187505229E-02  0.44365302924E+00  0.44372751963E+00  0.51109989000E-03 0. -1.
     -623    1    1    2    0    0  0.31979401283E-02 -0.14998346470E-02  0.15367602024E-03  0.17124000004E+03  0.17124000000E+03 0. -1.
</event>
<event>
 7   1  0.1909700E+02  0.9118800E+02  0.7818608E-02  0.1180000E+00
       11   -1    0    0    0    0  0.00000000000E+00  0.00000000000E+00  0.65999999802E+01  0.66000000000E+01  0.51109989000E-03 0. -1.
     -623   -1    0    0    0    0  0.00000000000E+00  0.00000000000E+00  0.75637274222E-11  0.17124000000E+03  0.17124000000E+03 0.  1.
      622    2    1    2    0    0  0.54522876221E-02  0.40653324699E-03  0.63925037736E+01  0.63925765062E+01  0.30000000035E-01 0.  0.
     -611    1    3    3    0    0  0.58926589500E-02 -0.56222965100E-02  0.61190840850E+01  0.61190895266E+01  0.51109989000E-03 0. -1.
      611    1    3    3    0    0 -0.44037132783E-03  0.60288297570E-02  0.27341968853E+00  0.27348697960E+00  0.51109989000E-03 0.  1.
       11    1    1    2    0    0 -0.72333706119E-02  0.12659592055E-02  0.20729281756E+00  0.20742347441E+00  0.51109989000E-03 0. -1.
     -623    1    1    2    0    0  0.17810829882E-02 -0.16724924526E-02  0.20338726273E-03  0.17124000002E+03  0.17124000000E+03 0.  1.
</event>
<event>
 7   1  0.1909700E+02  0.9118800E+02  0.7818608E-02  0.1180000E+00
       11   -1    0    0    0    0  0.00000000000E+00  0.00000000000E+00  0.65999999802E+01  0.66000000000E+01  0.51109989000E-03 0. -1.
     -623   -1    0    0    0    0  0.00000000000E+00  0.00000000000E+00  0.75637274222E-11  0.17124000000E+03  0.17124000000E+03 0.  1.
      622    2    1    2    0    0 -0.70567614216E-03  0.21482184359E-02  0.61513955806E+01  0.61514691499E+01  0.30000002655E-01 0.  0.
     -611    1    3    3    0    0 -0.73436899643E-02  0.90839279582E-02  0.10598465522E+01  0.10599110448E+01  0.51109989000E-03 0.  1.
      611    1    3    3    0    0  0.66380138222E-02 -0.69357095223E-02  0.50915490284E+01  0.50915581051E+01  0.51109989000E-03 0. -1.
       11    1    1    2    0    0  0.12696226496E-03 -0.24862246560E-03  0.44853046207E+00  0.44853084014E+00  0.51109989000E-03 0. -1.
     -623    1    1    2    0    0  0.57871387702E-03 -0.18995959697E-02  0.73939106377E-04  0.17124000001E+03  0.17124000000E+03 0.  1.
</event>
<event>
 7   1  0.1909700E+02  0.9118800E+02  0.7818608E-02  0.1180000E+00
       11   -1    0    0    0    0  0.00000000000E+00  0.00000000000E+00  0.65999999802E+01  0.66000000000E+01  0.51109989000E-03 0. -1.
     -623   -1    0    0    0    0  0.00000000000E+00  0.00000000000E+00  0.75637274222E-11  0.17124000000E+03  0.17124000000E+03 0.  1.
      622    2    1    2    0    0 -0.89480001460E-02  0.38364887364E-03  0.65940517425E+01  0.65941260677E+01  0.30000000200E-01 0.  0.
     -611    1    3    3    0    0 -0.17857344600E-01  0.58097901721E-02  0.52557425194E+01  0.52557760920E+01  0.51109989000E-03 0. -1.
      611    1    3    3    0    0  0.89093444536E-02 -0.54261412984E-02  0.13383092231E+01  0.13383499757E+01  0.51109989000E-03 0.  1.
       11    1    1    2    0    0 -0.29146890344E-02 -0.22670844064E-02  0.45389081291E-02  0.58734990965E-02  0.51109989000E-03 0. -1.
     -623    1    1    2    0    0  0.11862689189E-01  0.18834355325E-02  0.14093234343E-02  0.17124000043E+03  0.17124000000E+03 0.  1.
</event>
<event>
 7   1  0.1909700E+02  0.9118800E+02  0.7818608E-02  0.1180000E+00
       11   -1    0    0    0    0  0.00000000000E+00  0.00000000000E+00  0.65999999802E+01  0.66000000000E+01  0.51109989000E-03 0. -1.
     -623   -1    0    0    0    0  0.00000000000E+00  0.00000000000E+00  0.75637274222E-11  0.17124000000E+03  0.17124000000E+03 0. -1.
      622    2    1    2    0    0 -0.50442457540E-02 -0.76155248642E-04  0.62175754659E+01  0.62176498876E+01  0.30000000069E-01 0.  0.
     -611    1    3    3    0    0  0.63774896615E-02 -0.12060598711E-01  0.31722847337E+01  0.31723141117E+01  0.51109989000E-03 0.  1.
      611    1    3    3    0    0 -0.11421735415E-01  0.11984443462E-01  0.30452907323E+01  0.30453357760E+01  0.51109989000E-03 0. -1.
       11    1    1    2    0    0 -0.10276308511E-02  0.16426860706E-02  0.38234474874E+00  0.38235000007E+00  0.51109989000E-03 0. -1.
     -623    1    1    2    0    0  0.60718766031E-02 -0.15665308220E-02  0.79768049287E-04  0.17124000011E+03  0.17124000000E+03 0. -1.
</event>
<event>
 7   1  0.1909700E+02  0.9118800E+02  0.7818608E-02  0.1180000E+00
       11   -1    0    0    0    0  0.00000000000E+00  0.00000000000E+00  0.65999999802E+01  0.66000000000E+01  0.51109989000E-03 0. -1.
     -623   -1    0    0    0    0  0.00000000000E+00  0.00000000000E+00  0.75637274222E-11  0.17124000000E+03  0.17124000000E+03 0. -1.
      622    2    1    2    0    0 -0.26495509207E-02 -0.17700740198E-01  0.54628066732E+01  0.54629183670E+01  0.29999999773E-01 0.  0.
     -611    1    3    3    0    0 -0.14746765630E-01 -0.87472899454E-02  0.39374070072E+01  0.39374443721E+01  0.51109989000E-03 0. -1.
      611    1    3    3    0    0  0.12097214709E-01 -0.89534502527E-02  0.15253996660E+01  0.15254739949E+01  0.51109989000E-03 0.  1.
       11    1    1    2    0    0 -0.29654700032E-01  0.28436065024E-01  0.11363356243E+01  0.11370782397E+01  0.51109989000E-03 0. -1.
     -623    1    1    2    0    0  0.32304250956E-01 -0.10735324801E-01  0.85767525337E-03  0.17124000339E+03  0.17124000000E+03 0. -1.
</event>
<event>
 7   1  0.1909700E+02  0.9118800E+02  0.7818608E-02  0.1180000E+00
       11   -1    0    0    0    0  0.00000000000E+00  0.00000000000E+00  0.65999999802E+01  0.66000000000E+01  0.51109989000E-03 0. -1.
     -623   -1    0    0    0    0  0.00000000000E+00  0.00000000000E+00  0.75637274222E-11  0.17124000000E+03  0.17124000000E+03 0. -1.
      622    2    1    2    0    0  0.12588778471E-02 -0.33556286383E-02  0.56142687011E+01  0.56143499973E+01  0.29999999644E-01 0.  0.
     -611    1    3    3    0    0 -0.76763052707E-02 -0.12894437225E-01  0.40047628281E+01  0.40047909761E+01  0.51109989000E-03 0. -1.
      611    1    3    3    0    0  0.89351831179E-02  0.95388085866E-02  0.16095058730E+01  0.16095590212E+01  0.51109989000E-03 0.  1.
       11    1    1    2    0    0 -0.20159722974E-02  0.32073190716E-02  0.98564258899E+00  0.98565000151E+00  0.51109989000E-03 0. -1.
     -623    1    1    2    0    0  0.75709445043E-03  0.14830956640E-03  0.88690793031E-04  0.17124000000E+03  0.17124000000E+03 0. -1.
</event>
<event>
 7   1  0.1909700E+02  0.9118800E+02  0.7818608E-02  0.1180000E+00
       11   -1    0    0    0    0  0.00000000000E+00  0.00000000000E+00  0.65999999802E+01  0.66000000000E+01  0.51109989000E-03 0.  1.
     -623   -1    0    0    0    0  0.00000000000E+00  0.00000000000E+00  0.75637274222E-11  0.17124000000E+03  0.17124000000E+03 0. -1.
      622    2    1    2    0    0  0.58406540596E-03  0.23273669872E-01  0.54629391259E+01  0.54630711050E+01  0.30000000179E-01 0.  0.
     -611    1    3    3    0    0 -0.65017349728E-02  0.24398898250E-01  0.50898115631E+01  0.50898742212E+01  0.51109989000E-03 0.  1.
      611    1    3    3    0    0  0.70858003787E-02 -0.11252283775E-02  0.37312756279E+00  0.37319688375E+00  0.51109989000E-03 0. -1.
       11    1    1    2    0    0  0.64471581158E-02 -0.24321931824E-01  0.11366501621E+01  0.11369287465E+01  0.51109989000E-03 0.  1.
     -623    1    1    2    0    0 -0.70312235218E-02  0.10482619499E-02  0.41069167994E-03  0.17124000015E+03  0.17124000000E+03 0. -1.
</event>
<event>
 7   1  0.1909700E+02  0.9118800E+02  0.7818608E-02  0.1180000E+00
       11   -1    0    0    0    0  0.00000000000E+00  0.00000000000E+00  0.65999999802E+01  0.66000000000E+01  0.51109989000E-03 0.  1.
     -623   -1    0    0    0    0  0.00000000000E+00  0.00000000000E+00  0.75637274222E-11  0.17124000000E+03  0.17124000000E+03 0.  1.
      622    2    1    2    0    0 -0.37293217769E-01 -0.23143975641E-01  0.56414663964E+01  0.56417168955E+01  0.29999999918E-01 0.  0.
     -611    1    3    3    0    0 -0.37837220244E-01 -0.18662327546E-01  0.36273895009E+01  0.36276348755E+01  0.51109989000E-03 0.  1.
      611    1    3    3    0    0  0.54400247489E-03 -0.44816480947E-02  0.20140768955E+01  0.20140820201E+01  0.51109989000E-03 0. -1.
       11    1    1    2    0    0  0.39045221673E-01  0.21601464734E-01  0.95724346417E+00  0.95828308110E+00  0.51109989000E-03 0.  1.
     -623    1    1    2    0    0 -0.17520038871E-02  0.15425109169E-02  0.12901170615E-02  0.17124000002E+03  0.17124000000E+03 0.  1.
</event>
<event>
 7   1  0.1909700E+02  0.9118800E+02  0.7818608E-02  0.1180000E+00
       11   -1    0    0    0    0  0.00000000000E+00  0.00000000000E+00  0.65999999802E+01  0.66000000000E+01  0.51109989000E-03 0.  1.
     -623   -1    0    0    0    0  0.00000000000E+00  0.00000000000E+00  0.75637274222E-11  0.17124000000E+03  0.17124000000E+03 0. -1.
      622    2    1    2    0    0 -0.74734100902E-02 -0.11274956071E-01  0.56596478441E+01  0.56597435185E+01  0.30000000610E-01 0.  0.
     -611    1    3    3    0    0 -0.98581275823E-03  0.80582367568E-02  0.32237105744E+01  0.32237208371E+01  0.51109989000E-03 0.  1.
      611    1    3    3    0    0 -0.64875973319E-02 -0.19333192827E-01  0.24359372697E+01  0.24360226814E+01  0.51109989000E-03 0. -1.
       11    1    1    2    0    0  0.73207979983E-02  0.11337792889E-01  0.94015948262E+00  0.94025648289E+00  0.51109989000E-03 0.  1.
     -623    1    1    2    0    0  0.15261208974E-03 -0.62836821826E-04  0.19265512243E-03  0.17124000000E+03  0.17124000000E+03 0. -1.
</event>
<event>
 7   1  0.1909700E+02  0.9118800E+02  0.7818608E-02  0.1180000E+00
       11   -1    0    0    0    0  0.00000000000E+00  0.00000000000E+00  0.65999999802E+01  0.66000000000E+01  0.51109989000E-03 0. -1.
     -623   -1    0    0    0    0  0.00000000000E+00  0.00000000000E+00  0.75637274222E-11  0.17124000000E+03  0.17124000000E+03 0.  1.
      622    2    1    2    0    0 -0.16997166634E-01  0.17663609175E-02  0.57744059074E+01  0.57745091226E+01  0.30000000006E-01 0.  0.
     -611    1    3    3    0    0  0.12162989155E-03 -0.30043924414E-02  0.42268141326E+01  0.42268152330E+01  0.51109989000E-03 0. -1.
      611    1    3    3    0    0 -0.17118796526E-01  0.47707533589E-02  0.15475917748E+01  0.15476938896E+01  0.51109989000E-03 0.  1.
       11    1    1    2    0    0  0.18395513802E-01 -0.57224956675E-03  0.82528551699E+00  0.82549086498E+00  0.51109989000E-03 0. -1.
     -623    1    1    2    0    0 -0.13983471606E-02 -0.11941113515E-02  0.30855357456E-03  0.17124000001E+03  0.17124000000E+03 0.  1.
</event>
<event>
 7   1  0.1909700E+02  0.9118800E+02  0.7818608E-02  0.1180000E+00
       11   -1    0    0    0    0  0.00000000000E+00  0.00000000000E+00  0.65999999802E+01  0.66000000000E+01  0.51109989000E-03 0.  1.
     -623   -1    0    0    0    0  0.00000000000E+00  0.00000000000E+00  0.75637274222E-11  0.17124000000E+03  0.17124000000E+03 0.  1.
      622    2    1    2    0    0  0.15978579636E-02 -0.12199560165E-02  0.65276652978E+01  0.65277345444E+01  0.29999997880E-01 0.  0.
     -611    1    3    3    0    0  0.27880863840E-02 -0.15475295938E-01  0.32974740043E+01  0.32975115358E+01  0.51109989000E-03 0.  1.
      611    1    3    3    0    0 -0.11902284204E-02  0.14255339921E-01  0.32301912935E+01  0.32302230086E+01  0.51109989000E-03 0. -1.
       11    1    1    2    0    0 -0.14400976626E-02  0.28078821341E-02  0.72194704074E-01  0.72265445404E-01  0.51109989000E-03 0.  1.
     -623    1    1    2    0    0 -0.15776030167E-03 -0.15879261171E-02  0.13997558415E-03  0.17124000001E+03  0.17124000000E+03 0.  1.
</event>
<event>
 7   1  0.1909700E+02  0.9118800E+02  0.7818608E-02  0.1180000E+00
       11   -1    0    0    0    0  0.00000000000E+00  0.00000000000E+00  0.65999999802E+01  0.66000000000E+01  0.51109989000E-03 0. -1.
     -623   -1    0    0    0    0  0.00000000000E+00  0.00000000000E+00  0.75637274222E-11  0.17124000000E+03  0.17124000000E+03 0. -1.
      622    2    1    2    0    0  0.15809646140E-03 -0.83995405602E-03  0.65932227574E+01  0.65932910644E+01  0.29999999673E-01 0.  0.
     -611    1    3    3    0    0 -0.45265406739E-02  0.94355362848E-02  0.96368632578E+00  0.96374328253E+00  0.51109989000E-03 0.  1.
      611    1    3    3    0    0  0.46846371353E-02 -0.10275490341E-01  0.56295364317E+01  0.56295477819E+01  0.51109989000E-03 0. -1.
       11    1    1    2    0    0  0.62708592767E-03  0.29658503984E-02  0.59631265116E-02  0.67089197447E-02  0.51109989000E-03 0. -1.
     -623    1    1    2    0    0 -0.78518238904E-03 -0.21258963425E-02  0.81409732945E-03  0.17124000002E+03  0.17124000000E+03 0. -1.
</event>
<event>
 7   1  0.1909700E+02  0.9118800E+02  0.7818608E-02  0.1180000E+00
       11   -1    0    0    0    0  0.00000000000E+00  0.00000000000E+00  0.65999999802E+01  0.66000000000E+01  0.51109989000E-03 0. -1.
     -623   -1    0    0    0    0  0.00000000000E+00  0.00000000000E+00  0.75637274222E-11  0.17124000000E+03  0.17124000000E+03 0. -1.
      622    2    1    2    0    0  0.48387330712E-02 -0.62383396805E-02  0.63748703345E+01  0.63749458125E+01  0.29999999885E-01 0.  0.
     -611    1    3    3    0    0 -0.24507785022E-02 -0.55347667420E-02  0.60027377753E+01  0.60027408490E+01  0.51109989000E-03 0. -1.
      611    1    3    3    0    0  0.72895115734E-02 -0.70357293845E-03  0.37213255919E+00  0.37220496347E+00  0.51109989000E-03 0.  1.
       11    1    1    2    0    0 -0.46943607825E-02  0.61599231241E-02  0.22492029817E+00  0.22505417887E+00  0.51109989000E-03 0. -1.
     -623    1    1    2    0    0 -0.14437229520E-03  0.78416564617E-04  0.20933909026E-03  0.17124000000E+03  0.17124000000E+03 0. -1.
</event>
