<event>
 7   1  0.1356560E+02  0.9118800E+02  0.7818608E-02  0.1180000E+00
       11   -1    0    0    0    0  0.00000000000E+00  0.00000000000E+00  0.65999999802E+01  0.66000000000E+01  0.51109989000E-03 0. -1.
     -623   -1    0    0    0    0  0.00000000000E+00  0.00000000000E+00  0.75637274222E-11  0.17124000000E+03  0.17124000000E+03 0.  1.
      622    2    1    2    0    0 -0.44841602452E-01  0.72916205111E-01  0.61835578662E+01  0.61842231062E+01  0.29999999758E-01 0.  0.
     -611    1    3    3    0    0 -0.87986351208E-02  0.12785653416E-01  0.21494934376E+01  0.21495495315E+01  0.51109989000E-03 0.  1.
      611    1    3    3    0    0 -0.36042967331E-01  0.60130551695E-01  0.40340644286E+01  0.40346735747E+01  0.51109989000E-03 0. -1.
       11    1    1    2    0    0  0.18408390181E-01 -0.60271537353E-01  0.41097016898E+00  0.41577429942E+00  0.51109989000E-03 0. -1.
     -623    1    1    2    0    0  0.26433212271E-01 -0.12644667758E-01  0.54719450721E-02  0.17124000259E+03  0.17124000000E+03 0.  1.
</event>
<event>
 7   1  0.1356560E+02  0.9118800E+02  0.7818608E-02  0.1180000E+00
       11   -1    0    0    0    0  0.00000000000E+00  0.00000000000E+00  0.65999999802E+01  0.66000000000E+01  0.51109989000E-03 0.  1.
     -623   -1    0    0    0    0  0.00000000000E+00  0.00000000000E+00  0.75637274222E-11  0.17124000000E+03  0.17124000000E+03 0. -1.
      622    2    1    2    0    0  0.11271002843E-01 -0.10201978273E-02  0.17203434766E+01  0.17206422503E+01  0.29999996566E-01 0.  0.
     -611    1    3    3    0    0  0.19073153696E-01 -0.81447129623E-02  0.13009253688E+01  0.13010907723E+01  0.51109989000E-03 0. -1.
      611    1    3    3    0    0 -0.78021508533E-02  0.71245151350E-02  0.41941810782E+00  0.41955147796E+00  0.51109989000E-03 0.  1.
       11    1    1    2    0    0 -0.11664598824E-01 -0.63429989175E-03  0.48793437296E+01  0.48793577403E+01  0.51109989000E-03 0.  1.
     -623    1    1    2    0    0  0.39359598046E-03  0.16544977192E-02  0.31277338699E-03  0.17124000001E+03  0.17124000000E+03 0. -1.
</event>
<event>
 7   1  0.1356560E+02  0.9118800E+02  0.7818608E-02  0.1180000E+00
       11   -1    0    0    0    0  0.00000000000E+00  0.00000000000E+00  0.65999999802E+01  0.66000000000E+01  0.51109989000E-03 0. -1.
     -623   -1    0    0    0    0  0.00000000000E+00  0.00000000000E+00  0.75637274222E-11  0.17124000000E+03  0.17124000000E+03 0. -1.
      622    2    1    2    0    0 -0.22899704907E-02 -0.21267407330E-02  0.54338539463E+01  0.54339376585E+01  0.30000000154E-01 0.  0.
     -611    1    3    3    0    0  0.98073347742E-03  0.22599212178E-03  0.77098298495E-02  0.77920222021E-02  0.51109989000E-03 0.  1.
      611    1    3    3    0    0 -0.32707039681E-02 -0.23527328547E-02  0.54261441164E+01  0.54261456363E+01  0.51109989000E-03 0.  1.
       11    1    1    2    0    0  0.37019425692E-02  0.40740414621E-02  0.11660492201E+01  0.11660623256E+01  0.51109989000E-03 0. -1.
     -623    1    1    2    0    0 -0.14119720783E-02 -0.19473007288E-02  0.96814831453E-04  0.17124000002E+03  0.17124000000E+03 0. -1.
</event>
<event>
 7   1  0.1356560E+02  0.9118800E+02  0.7818608E-02  0.1180000E+00
       11   -1    0    0    0    0  0.00000000000E+00  0.00000000000E+00  0.65999999802E+01  0.66000000000E+01  0.51109989000E-03 0.  1.
     -623   -1    0    0    0    0  0.00000000000E+00  0.00000000000E+00  0.75637274222E-11  0.17124000000E+03  0.17124000000E+03 0.  1.
      622    2    1    2    0    0 -0.70318030743E-03 -0.27187856568E-02  0.65164016768E+01  0.65164713381E+01  0.29999999800E-01 0.  0.
     -611    1    3    3    0    0 -0.25736659486E-02 -0.16246328989E-01  0.36368969154E+01  0.36369341486E+01  0.51109989000E-03 0. -1.
      611    1    3    3    0    0  0.18704856411E-02  0.13527543333E-01  0.28795047614E+01  0.28795371894E+01  0.51109989000E-03 0.  1.
       11    1    1    2    0    0  0.91354808403E-03  0.30296229997E-02  0.83467135452E-01  0.83528660407E-01  0.51109989000E-03 0.  1.
     -623    1    1    2    0    0 -0.21036777663E-03 -0.31083734294E-03  0.13116688565E-03  0.17124000000E+03  0.17124000000E+03 0.  1.
</event>
<event>
 7   1  0.1356560E+02  0.9118800E+02  0.7818608E-02  0.1180000E+00
       11   -1    0    0    0    0  0.00000000000E+00  0.00000000000E+00  0.65999999802E+01  0.66000000000E+01  0.51109989000E-03 0. -1.
     -623   -1    0    0    0    0  0.00000000000E+00  0.00000000000E+00  0.75637274222E-11  0.17124000000E+03  0.17124000000E+03 0.  1.
      622    2    1    2    0    0  0.30110235133E-01 -0.36817467196E-02  0.12635319842E+01  0.12642520542E+01  0.29999999501E-01 0.  0.
     -611    1    3    3    0    0  0.28954466185E-01  0.86335245432E-02  0.92722909544E+00  0.92772137817E+00  0.51109989000E-03 0. -1.
      611    1    3    3    0    0  0.11557689481E-02 -0.12315271263E-01  0.33630288872E+00  0.33653067601E+00  0.51109989000E-03 0.  1.
       11    1    1    2    0    0 -0.29744567178E-01  0.29488083912E-02  0.53356641954E+01  0.53357479422E+01  0.51109989000E-03 0. -1.
     -623    1    1    2    0    0 -0.36566795463E-03  0.73293832837E-03  0.80380081725E-03  0.17124000000E+03  0.17124000000E+03 0.  1.
</event>
<event>
 7   1  0.1356560E+02  0.9118800E+02  0.7818608E-02  0.1180000E+00
       11   -1    0    0    0    0  0.00000000000E+00  0.00000000000E+00  0.65999999802E+01  0.66000000000E+01  0.51109989000E-03 0.  1.
     -623   -1    0    0    0    0  0.00000000000E+00  0.00000000000E+00  0.75637274222E-11  0.17124000000E+03  0.17124000000E+03 0.  1.
      622    2    1    2    0    0 -0.29078137933E-01 -0.42125652517E-02  0.52796836452E+01  0.52798506302E+01  0.30000000322E-01 0.  0.
     -611    1    3    3    0    0 -0.31715430695E-01 -0.10409733723E-01  0.36403868349E+01  0.36405399050E+01  0.51109989000E-03 0. -1.
      611    1    3    3    0    0  0.26372927619E-02  0.61971684712E-02  0.16392968103E+01  0.16393107252E+01  0.51109989000E-03 0.  1.
       11    1    1    2    0    0  0.49120395856E-02  0.19202584831E-01  0.13199981036E+01  0.13201470078E+01  0.51109989000E-03 0.  1.
     -623    1    1    2    0    0  0.24166098349E-01 -0.14990019580E-01  0.31823099388E-03  0.17124000236E+03  0.17124000000E+03 0.  1.
</event>
<event>
 7   1  0.1356560E+02  0.9118800E+02  0.7818608E-02  0.1180000E+00
       11   -1    0    0    0    0  0.00000000000E+00  0.00000000000E+00  0.65999999802E+01  0.66000000000E+01  0.51109989000E-03 0.  1.
     -623   -1    0    0    0    0  0.00000000000E+00  0.00000000000E+00  0.75637274222E-11  0.17124000000E+03  0.17124000000E+03 0. -1.
      622    2    1    2    0    0 -0.16250856114E-01  0.26542344321E-01  0.40379266585E+01  0.40381580313E+01  0.30000000258E-01 0.  0.
     -611    1    3    3    0    0 -0.23971141785E-01  0.13814871347E-01  0.29425442399E+01  0.29426743502E+01  0.51109989000E-03 0. -1.
      611    1    3    3    0    0  0.77202856709E-02  0.12727472974E-01  0.10953824186E+01  0.10954836812E+01  0.51109989000E-03 0.  1.
       11    1    1    2    0    0  0.15245735781E-01 -0.19486225528E-01  0.25617222930E+01  0.25618418204E+01  0.51109989000E-03 0.  1.
     -623    1    1    2    0    0  0.10051203337E-02 -0.70561187923E-02  0.35102918409E-03  0.17124000015E+03  0.17124000000E+03 0. -1.
</event>
<event>
 7   1  0.1356560E+02  0.9118800E+02  0.7818608E-02  0.1180000E+00
       11   -1    0    0    0    0  0.00000000000E+00  0.00000000000E+00  0.65999999802E+01  0.66000000000E+01  0.51109989000E-03 0.  1.
     -623   -1    0    0    0    0  0.00000000000E+00  0.00000000000E+00  0.75637274222E-11  0.17124000000E+03  0.17124000000E+03 0. -1.
      622    2    1    2    0    0  0.25354505618E-02  0.23389298822E-02  0.62648248743E+01  0.62648976532E+01  0.29999999909E-01 0.  0.
     -611    1    3    3    0    0  0.87560028809E-03  0.57996576157E-02  0.24225362029E+00  0.24232515443E+00  0.51109989000E-03 0. -1.
      611    1    3    3    0    0  0.16598502737E-02 -0.34607277335E-02  0.60225712540E+01  0.60225724987E+01  0.51109989000E-03 0.  1.
       11    1    1    2    0    0  0.94580985045E-02  0.92572128336E-02  0.33483970117E+00  0.33510153434E+00  0.51109989000E-03 0.  1.
     -623    1    1    2    0    0 -0.11993549065E-01 -0.11596142715E-01  0.33540524239E-03  0.17124000081E+03  0.17124000000E+03 0. -1.
</event>
<event>
 7   1  0.1356560E+02  0.9118800E+02  0.7818608E-02  0.1180000E+00
       11   -1    0    0    0    0  0.00000000000E+00  0.00000000000E+00  0.65999999802E+01  0.66000000000E+01  0.51109989000E-03 0.  1.
     -623   -1    0    0    0    0  0.00000000000E+00  0.00000000000E+00  0.75637274222E-11  0.17124000000E+03  0.17124000000E+03 0.  1.
      622    2    1    2    0    0  0.54277557772E-03  0.39420196605E-03  0.65868564824E+01  0.65869248340E+01  0.30000000012E-01 0.  0.
     -611    1    3    3    0    0  0.10566511793E-01 -0.10402975733E-01  0.38586137143E+01  0.38586422392E+01  0.51109989000E-03 0. -1.
      611    1    3    3    0    0 -0.10023736216E-01  0.10797177699E-01  0.27282427681E+01  0.27282825948E+01  0.51109989000E-03 0.  1.
       11    1    1    2    0    0  0.17390321834E-03 -0.88558244466E-03  0.13033966767E-01  0.13075167738E-01  0.51109989000E-03 0.  1.
     -623    1    1    2    0    0 -0.71667879563E-03  0.49138047831E-03  0.10953510246E-03  0.17124000000E+03  0.17124000000E+03 0.  1.
</event>
<event>
 7   1  0.1356560E+02  0.9118800E+02  0.7818608E-02  0.1180000E+00
       11   -1    0    0    0    0  0.00000000000E+00  0.00000000000E+00  0.65999999802E+01  0.66000000000E+01  0.51109989000E-03 0. -1.
     -623   -1    0    0    0    0  0.00000000000E+00  0.00000000000E+00  0.75637274222E-11  0.17124000000E+03  0.17124000000E+03 0.  1.
      622    2    1    2    0    0 -0.25784226790E-02  0.19656519599E-02  0.14950643967E+01  0.14953688716E+01  0.29999999930E-01 0.  0.
     -611    1    3    3    0    0 -0.14703044853E-01 -0.74556730614E-03  0.11232919869E+01  0.11233885723E+01  0.51109989000E-03 0.  1.
      611    1    3    3    0    0  0.12124622174E-01  0.27112192661E-02  0.37177240979E+00  0.37198029931E+00  0.51109989000E-03 0. -1.
       11    1    1    2    0    0  0.25449856173E-02 -0.95979239811E-02  0.51046212754E+01  0.51046309586E+01  0.51109989000E-03 0. -1.
     -623    1    1    2    0    0  0.33437061758E-04  0.76322720204E-02  0.31430876503E-03  0.17124000017E+03  0.17124000000E+03 0.  1.
</event>
<event>
 7   1  0.2070523E+02  0.9118800E+02  0.7818608E-02  0.1180000E+00
       11   -1    0    0    0    0  0.00000000000E+00  0.00000000000E+00  0.65999999802E+01  0.66000000000E+01  0.51109989000E-03 0.  1.
     -623   -1    0    0    0    0  0.00000000000E+00  0.00000000000E+00  0.75637274222E-11  0.17124000000E+03  0.17124000000E+03 0.  1.
      622    2    1    2    0    0 -0.56551084138E-04 -0.69670455303E-03  0.65920694717E+01  0.65921377723E+01  0.29999999993E-01 0.  0.
     -611    1    3    3    0    0 -0.26831472408E-02  0.47991104770E-02  0.23321976562E+00  0.23328512820E+00  0.51109989000E-03 0. -1.
      611    1    3    3    0    0  0.26265961567E-02 -0.54958150301E-02  0.63588497061E+01  0.63588526441E+01  0.51109989000E-03 0.  1.
       11    1    1    2    0    0  0.34790796484E-03  0.94411939174E-03  0.77808127122E-02  0.78622306591E-02  0.51109989000E-03 0.  1.
     -623    1    1    2    0    0 -0.29135688055E-03 -0.24741483858E-03  0.14969920617E-03  0.17124000000E+03  0.17124000000E+03 0.  1.
</event>
<event>
 7   1  0.1413999E+02  0.9118800E+02  0.7818608E-02  0.1180000E+00
       11   -1    0    0    0    0  0.00000000000E+00  0.00000000000E+00  0.65999999802E+01  0.66000000000E+01  0.51109989000E-03 0. -1.
     -623   -1    0    0    0    0  0.00000000000E+00  0.00000000000E+00  0.75637274222E-11  0.17124000000E+03  0.17124000000E+03 0. -1.
      622    2    1    2    0    0 -0.68740868818E-04  0.63208704343E-03  0.65929950944E+01  0.65930633790E+01  0.29999994128E-01 0.  0.
     -611    1    3    3    0    0  0.70230156397E-02 -0.47060690637E-02  0.59582388405E+01  0.59582448600E+01  0.51109989000E-03 0. -1.
      611    1    3    3    0    0 -0.70917565085E-02  0.53381561071E-02  0.63475625390E+00  0.63481851896E+00  0.51109989000E-03 0.  1.
       11    1    1    2    0    0 -0.17751536563E-03  0.87676166739E-03  0.68596770396E-02  0.69366140812E-02  0.51109989000E-03 0. -1.
     -623    1    1    2    0    0  0.24625623445E-03 -0.15088487108E-02  0.14520868351E-03  0.17124000001E+03  0.17124000000E+03 0. -1.
</event>
<event>
 7   1  0.1356560E+02  0.9118800E+02  0.7818608E-02  0.1180000E+00
       11   -1    0    0    0    0  0.00000000000E+00  0.00000000000E+00  0.65999999802E+01  0.66000000000E+01  0.51109989000E-03 0.  1.
     -623   -1    0    0    0    0  0.00000000000E+00  0.00000000000E+00  0.75637274222E-11  0.17124000000E+03  0.17124000000E+03 0. -1.
      622    2    1    2    0    0  0.10272975153E-01  0.94076080746E-02  0.34770962256E+01  0.34772535425E+01  0.29999998772E-01 0.  0.
     -611    1    3    3    0    0  0.73682189889E-02  0.79208688408E-02  0.34382771106E+01  0.34382941673E+01  0.51109989000E-03 0.  1.
      611    1    3    3    0    0  0.29047561636E-02  0.14867392338E-02  0.38819115037E-01  0.38959375217E-01  0.51109989000E-03 0. -1.
       11    1    1    2    0    0 -0.20045588439E-01 -0.77324152830E-02  0.31226722166E+01  0.31227461712E+01  0.51109989000E-03 0.  1.
     -623    1    1    2    0    0  0.97726132850E-02 -0.16751927914E-02  0.23153891648E-03  0.17124000029E+03  0.17124000000E+03 0. -1.
</event>
<event>
 7   1  0.1356560E+02  0.9118800E+02  0.7818608E-02  0.1180000E+00
       11   -1    0    0    0    0  0.00000000000E+00  0.00000000000E+00  0.65999999802E+01  0.66000000000E+01  0.51109989000E-03 0. -1.
     -623   -1    0    0    0    0  0.00000000000E+00  0.00000000000E+00  0.75637274222E-11  0.17124000000E+03  0.17124000000E+03 0.  1.
      622    2    1    2    0    0 -0.10519749847E-01 -0.57905053162E-02  0.65735544304E+01  0.65736338539E+01  0.29999999949E-01 0.  0.
     -611    1    3    3    0    0  0.10841427272E-03  0.11617465817E-01  0.28195517422E+01  0.28195757244E+01  0.51109989000E-03 0.  1.
      611    1    3    3    0    0 -0.10628164120E-01 -0.17407971133E-01  0.37540026882E+01  0.37540581295E+01  0.51109989000E-03 0. -1.
       11    1    1    2    0    0  0.44883674792E-03  0.36919350613E-02  0.26097207905E-01  0.26365836275E-01  0.51109989000E-03 0. -1.
     -623    1    1    2    0    0  0.10070913100E-01  0.20985702551E-02  0.34834139742E-03  0.17124000031E+03  0.17124000000E+03 0.  1.
</event>
<event>
 7   1  0.1356560E+02  0.9118800E+02  0.7818608E-02  0.1180000E+00
       11   -1    0    0    0    0  0.00000000000E+00  0.00000000000E+00  0.65999999802E+01  0.66000000000E+01  0.51109989000E-03 0. -1.
     -623   -1    0    0    0    0  0.00000000000E+00  0.00000000000E+00  0.75637274222E-11  0.17124000000E+03  0.17124000000E+03 0.  1.
      622    2    1    2    0    0 -0.27522815074E-02 -0.65693157919E-02  0.32372027127E+01  0.32373495539E+01  0.29999998553E-01 0.  0.
     -611    1    3    3    0    0 -0.44737550492E-02  0.43018022829E-02  0.15242260205E+00  0.15254976508E+00  0.51109989000E-03 0.  1.
      611    1    3    3    0    0  0.17214735418E-02 -0.10871118075E-01  0.30847801107E+01  0.30847997888E+01  0.51109989000E-03 0. -1.
       11    1    1    2    0    0  0.11103448824E-02  0.58300943227E-02  0.33626451598E+01  0.33626504360E+01  0.51109989000E-03 0. -1.
     -623    1    1    2    0    0  0.16419366251E-02  0.73922146928E-03  0.15210714279E-03  0.17124000001E+03  0.17124000000E+03 0.  1.
</event>
<event>
 7   1  0.1356560E+02  0.9118800E+02  0.7818608E-02  0.1180000E+00
       11   -1    0    0    0    0  0.00000000000E+00  0.00000000000E+00  0.65999999802E+01  0.66000000000E+01  0.51109989000E-03 0. -1.
     -623   -1    0    0    0    0  0.00000000000E+00  0.00000000000E+00  0.75637274222E-11  0.17124000000E+03  0.17124000000E+03 0. -1.
      622    2    1    2    0    0 -0.35239536934E-02  0.23088591703E-02  0.65366524933E+01  0.65367226931E+01  0.30000000036E-01 0.  0.
     -611    1    3    3    0    0 -0.10792244503E-01  0.44636329794E-02  0.60465898660E+01  0.60466011664E+01  0.51109989000E-03 0. -1.
      611    1    3    3    0    0  0.72682908096E-02 -0.21547738091E-02  0.49006262728E+00  0.49012152675E+00  0.51109989000E-03 0.  1.
       11    1    1    2    0    0  0.12103466756E-02  0.11775519745E-02  0.63252651383E-01  0.63277252610E-01  0.51109989000E-03 0. -1.
     -623    1    1    2    0    0  0.23136070189E-02 -0.34864111464E-02  0.94832449718E-04  0.17124000005E+03  0.17124000000E+03 0. -1.
</event>
<event>
 7   1  0.1356560E+02  0.9118800E+02  0.7818608E-02  0.1180000E+00
       11   -1    0    0    0    0  0.00000000000E+00  0.00000000000E+00  0.65999999802E+01  0.66000000000E+01  0.51109989000E-03 0.  1.
     -623   -1    0    0    0    0  0.00000000000E+00  0.00000000000E+00  0.75637274222E-11  0.17124000000E+03  0.17124000000E+03 0.  1.
      622    2    1    2    0    0  0.47627370193E-02 -0.74352796117E-01  0.43563280884E+01  0.43570684452E+01  0.30000000474E-01 0.  0.
     -611    1    3    3    0    0  0.27878188622E-03 -0.35909639943E-01  0.29131434933E+01  0.29133648679E+01  0.51109989000E-03 0.  1.
      611    1    3    3    0    0  0.44839551331E-02 -0.38443156173E-01  0.14431845952E+01  0.14437035773E+01  0.51109989000E-03 0. -1.
       11    1    1    2    0    0  0.14304006507E-01  0.72916575471E-01  0.22416992276E+01  0.22429304759E+01  0.51109989000E-03 0.  1.
     -623    1    1    2    0    0 -0.19066743527E-01  0.14362206462E-02  0.19726641766E-02  0.17124000108E+03  0.17124000000E+03 0.  1.
</event>
<event>
 7   1  0.1356560E+02  0.9118800E+02  0.7818608E-02  0.1180000E+00
       11   -1    0    0    0    0  0.00000000000E+00  0.00000000000E+00  0.65999999802E+01  0.66000000000E+01  0.51109989000E-03 0.  1.
     -623   -1    0    0    0    0  0.00000000000E+00  0.00000000000E+00  0.75637274222E-11  0.17124000000E+03  0.17124000000E+03 0.  1.
      622    2    1    2    0    0  0.63188251263E-03  0.13140395242E-02  0.65112283057E+01  0.65112975800E+01  0.30000000494E-01 0.  0.
     -611    1    3    3    0    0 -0.12852718391E-01  0.77681857361E-02  0.34517005156E+01  0.34517332238E+01  0.51109989000E-03 0.  1.
      611    1    3    3    0    0  0.13484600904E-01 -0.64541462120E-02  0.30595277901E+01  0.30595643563E+01  0.51109989000E-03 0. -1.
       11    1    1    2    0    0 -0.91615358996E-03 -0.10727957611E-02  0.88689733029E-01  0.88702424972E-01  0.51109989000E-03 0.  1.
     -623    1    1    2    0    0  0.28427107710E-03 -0.24124376289E-03  0.81946859366E-04  0.17124000000E+03  0.17124000000E+03 0.  1.
</event>
<event>
 7   1  0.1356560E+02  0.9118800E+02  0.7818608E-02  0.1180000E+00
       11   -1    0    0    0    0  0.00000000000E+00  0.00000000000E+00  0.65999999802E+01  0.66000000000E+01  0.51109989000E-03 0.  1.
     -623   -1    0    0    0    0  0.00000000000E+00  0.00000000000E+00  0.75637274222E-11  0.17124000000E+03  0.17124000000E+03 0.  1.
      622    2    1    2    0    0 -0.84104160804E-03  0.16115004871E-02  0.65837425326E+01  0.65838111334E+01  0.30000000225E-01 0.  0.
     -611    1    3    3    0    0 -0.42606261021E-02 -0.13694645083E-01  0.32379959360E+01  0.32380277391E+01  0.51109989000E-03 0. -1.
      611    1    3    3    0    0  0.34195844940E-02  0.15306145570E-01  0.33457465966E+01  0.33457833943E+01  0.51109989000E-03 0.  1.
       11    1    1    2    0    0  0.74222821898E-04  0.22537761852E-02  0.16022847645E-01  0.16188819780E-01  0.51109989000E-03 0.  1.
     -623    1    1    2    0    0  0.76681878629E-03 -0.38652766730E-02  0.23459862324E-03  0.17124000005E+03  0.17124000000E+03 0.  1.
</event>
<event>
 7   1  0.1356560E+02  0.9118800E+02  0.7818608E-02  0.1180000E+00
       11   -1    0    0    0    0  0.00000000000E+00  0.00000000000E+00  0.65999999802E+01  0.66000000000E+01  0.51109989000E-03 0.  1.
     -623   -1    0    0    0    0  0.00000000000E+00  0.00000000000E+00  0.75637274222E-11  0.17124000000E+03  0.17124000000E+03 0.  1.
      622    2    1    2    0    0 -0.85558683736E-03  0.44002045100E-02  0.65867747579E+01  0.65868446016E+01  0.30000000139E-01 0.  0.
     -611    1    3    3    0    0 -0.86434283627E-02  0.44015347499E-02  0.72968598854E+00  0.72975063238E+00  0.51109989000E-03 0. -1.
      611    1    3    3    0    0  0.77878415253E-02 -0.13302399078E-05  0.58570887694E+01  0.58570939692E+01  0.51109989000E-03 0.  1.
       11    1    1    2    0    0 -0.13753678728E-02 -0.34259275906E-02  0.12616424903E-01  0.13155379777E-01  0.51109989000E-03 0.  1.
     -623    1    1    2    0    0  0.22309547102E-02 -0.97427691941E-03  0.60879714190E-03  0.17124000002E+03  0.17124000000E+03 0.  1.
</event>
<event>
 7   1  0.1356560E+02  0.9118800E+02  0.7818608E-02  0.1180000E+00
       11   -1    0    0    0    0  0.00000000000E+00  0.00000000000E+00  0.65999999802E+01  0.66000000000E+01  0.51109989000E-03 0. -1.
     -623   -1    0    0    0    0  0.00000000000E+00  0.00000000000E+00  0.75637274222E-11  0.17124000000E+03  0.17124000000E+03 0.  1.
      622    2    1    2    0    0 -0.25951785681E-02  0.49153663019E-04  0.65846567316E+01  0.65847255835E+01  0.30000004673E-01 0.  0.
     -611    1    3    3    0    0  0.11905120675E-01  0.58352406347E-02  0.21194621872E+01  0.21195037169E+01  0.51109989000E-03 0.  1.
      611    1    3    3    0    0 -0.14500299244E-01 -0.57860869716E-02  0.44651945444E+01  0.44652218666E+01  0.51109989000E-03 0. -1.
       11    1    1    2    0    0  0.62223787518E-03 -0.12517290602E-02  0.15201714000E-01  0.15274401371E-01  0.51109989000E-03 0. -1.
     -623    1    1    2    0    0  0.19729406927E-02  0.12025753971E-02  0.14153518576E-03  0.17124000002E+03  0.17124000000E+03 0.  1.
</event>
<event>
 7   1  0.1356560E+02  0.9118800E+02  0.7818608E-02  0.1180000E+00
       11   -1    0    0    0    0  0.00000000000E+00  0.00000000000E+00  0.65999999802E+01  0.66000000000E+01  0.51109989000E-03 0. -1.
     -623   -1    0    0    0    0  0.00000000000E+00  0.00000000000E+00  0.75637274222E-11  0.17124000000E+03  0.17124000000E+03 0. -1.
      622    2    1    2    0    0  0.12616947445E-02  0.17513598850E-01  0.57722038724E+01  0.57723085384E+01  0.30000000281E-01 0.  0.
     -611    1    3    3    0    0  0.11814941711E-02  0.22786385671E-01  0.55283877553E+01  0.55284348644E+01  0.51109989000E-03 0. -1.
      611    1    3    3    0    0  0.80200573470E-04 -0.52727868211E-02  0.24381611710E+00  0.24387367405E+00  0.51109989000E-03 0.  1.
       11    1    1    2    0    0  0.12573342820E-02 -0.17955631265E-01  0.82749554654E+00  0.82769144393E+00  0.51109989000E-03 0. -1.
     -623    1    1    2    0    0 -0.25190290259E-02  0.44203241477E-03  0.30056297621E-03  0.17124000002E+03  0.17124000000E+03 0. -1.
</event>
<event>
 7   1  0.1356560E+02  0.9118800E+02  0.7818608E-02  0.1180000E+00
       11   -1    0    0    0    0  0.00000000000E+00  0.00000000000E+00  0.65999999802E+01  0.66000000000E+01  0.51109989000E-03 0. -1.
     -623   -1    0    0    0    0  0.00000000000E+00  0.00000000000E+00  0.75637274222E-11  0.17124000000E+03  0.17124000000E+03 0.  1.
      622    2    1    2    0    0 -0.51587085536E-03 -0.11206650048E-02  0.62320886250E+01  0.62321609536E+01  0.30000000070E-01 0.  0.
     -611    1    3    3    0    0  0.37646239103E-02  0.12772805972E-01  0.41560530115E+01  0.41560743753E+01  0.51109989000E-03 0.  1.
      611    1    3    3    0    0 -0.42804947657E-02 -0.13893470977E-01  0.20760356134E+01  0.20760865783E+01  0.51109989000E-03 0. -1.
       11    1    1    2    0    0 -0.41095412700E-03 -0.15044458925E-02  0.36783536507E+00  0.36783902629E+00  0.51109989000E-03 0. -1.
     -623    1    1    2    0    0  0.92682498201E-03  0.26251108962E-02  0.75992705610E-04  0.17124000002E+03  0.17124000000E+03 0.  1.
</event>
<event>
 7   1  0.1356560E+02  0.9118800E+02  0.7818608E-02  0.1180000E+00
       11   -1    0    0    0    0  0.00000000000E+00  0.00000000000E+00  0.65999999802E+01  0.66000000000E+01  0.51109989000E-03 0. -1.
     -623   -1    0    0    0    0  0.00000000000E+00  0.00000000000E+00  0.75637274222E-11  0.17124000000E+03  0.17124000000E+03 0. -1.
      622    2    1    2    0    0 -0.12362804519E-01  0.36275336500E-01  0.24419211712E+01  0.24424061385E+01  0.30000000010E-01 0.  0.
     -611    1    3    3    0    0 -0.18180793628E-02  0.31111532452E-01  0.11225729156E+01  0.11230055409E+01  0.51109989000E-03 0. -1.
      611    1    3    3    0    0 -0.10544725156E-01  0.51638040477E-02  0.13193482556E+01  0.13194005976E+01  0.51109989000E-03 0.  1.
       11    1    1    2    0    0  0.90926386188E-02 -0.36708026307E-01  0.41574218009E+01  0.41575938290E+01  0.51109989000E-03 0. -1.
     -623    1    1    2    0    0  0.32701659000E-02  0.43268980774E-03  0.65700865798E-03  0.17124000003E+03  0.17124000000E+03 0. -1.
</event>
<event>
 7   1  0.1356560E+02  0.9118800E+02  0.7818608E-02  0.1180000E+00
       11   -1    0    0    0    0  0.00000000000E+00  0.00000000000E+00  0.65999999802E+01  0.66000000000E+01  0.51109989000E-03 0.  1.
     -623   -1    0    0    0    0  0.00000000000E+00  0.00000000000E+00  0.75637274222E-11  0.17124000000E+03  0.17124000000E+03 0. -1.
      622    2    1    2    0    0 -0.41055614762E-03  0.20623675208E-02  0.65131065265E+01  0.65131759571E+01  0.29999999981E-01 0.  0.
     -611    1    3    3    0    0  0.41583287421E-02  0.24877712392E-02  0.17518626696E+00  0.17525401581E+00  0.51109989000E-03 0. -1.
      611    1    3    3    0    0 -0.45688848897E-02 -0.42540371841E-03  0.63379202596E+01  0.63379219413E+01  0.51109989000E-03 0.  1.
       11    1    1    2    0    0  0.98306674161E-03 -0.14003560598E-02  0.86805677665E-01  0.86824042265E-01  0.51109989000E-03 0.  1.
     -623    1    1    2    0    0 -0.57251059385E-03 -0.66201146078E-03  0.87777624363E-04  0.17124000000E+03  0.17124000000E+03 0. -1.
</event>
<event>
 7   1  0.1356560E+02  0.9118800E+02  0.7818608E-02  0.1180000E+00
       11   -1    0    0    0    0  0.00000000000E+00  0.00000000000E+00  0.65999999802E+01  0.66000000000E+01  0.51109989000E-03 0.  1.
     -623   -1    0    0    0    0  0.00000000000E+00  0.00000000000E+00  0.75637274222E-11  0.17124000000E+03  0.17124000000E+03 0. -1.
      622    2    1    2    0    0 -0.12548112588E-02  0.20495369343E-03  0.65921735734E+01  0.65922419584E+01  0.29999999535E-01 0.  0.
     -611    1    3    3    0    0 -0.17964730360E-02  0.32933940844E-02  0.10598323627E+00  0.10605084324E+00  0.51109989000E-03 0. -1.
      611    1    3    3    0    0  0.54166177717E-03 -0.30884403909E-02  0.64861903372E+01  0.64861911152E+01  0.51109989000E-03 0.  1.
       11    1    1    2    0    0  0.98921671413E-03  0.72000975710E-03  0.76438838741E-02  0.77580376085E-02  0.51109989000E-03 0.  1.
     -623    1    1    2    0    0  0.26559454473E-03 -0.92496345069E-03  0.18252177471E-03  0.17124000000E+03  0.17124000000E+03 0. -1.
</event>
<event>
 7   1  0.1356560E+02  0.9118800E+02  0.7818608E-02  0.1180000E+00
       11   -1    0    0    0    0  0.00000000000E+00  0.00000000000E+00  0.65999999802E+01  0.66000000000E+01  0.51109989000E-03 0. -1.
     -623   -1    0    0    0    0  0.00000000000E+00  0.00000000000E+00  0.75637274222E-11  0.17124000000E+03  0.17124000000E+03 0. -1.
      622    2    1    2    0    0 -0.67522924026E-03 -0.32325713504E-02  0.63377116667E+01  0.63377835302E+01  0.30000000057E-01 0.  0.
     -611    1    3    3    0    0  0.82541045015E-03 -0.38381422536E-02  0.63173580094E+01  0.63173592500E+01  0.51109989000E-03 0. -1.
      611    1    3    3    0    0 -0.15006396904E-02  0.60557090318E-03  0.20353657218E-01  0.20424280179E-01  0.51109989000E-03 0. -1.
       11    1    1    2    0    0  0.21927690761E-02  0.10968169483E-02  0.26220448774E+00  0.26221644849E+00  0.51109989000E-03 0. -1.
     -623    1    1    2    0    0 -0.15175398361E-02  0.21357544025E-02  0.83824530416E-04  0.17124000002E+03  0.17124000000E+03 0. -1.
</event>
<event>
 7   1  0.1356560E+02  0.9118800E+02  0.7818608E-02  0.1180000E+00
       11   -1    0    0    0    0  0.00000000000E+00  0.00000000000E+00  0.65999999802E+01  0.66000000000E+01  0.51109989000E-03 0. -1.
     -623   -1    0    0    0    0  0.00000000000E+00  0.00000000000E+00  0.75637274222E-11  0.17124000000E+03  0.17124000000E+03 0. -1.
      622    2    1    2    0    0 -0.49127147194E-03  0.42450829859E-03  0.65822036814E+01  0.65822720792E+01  0.30000000052E-01 0.  0.
     -611    1    3    3    0    0 -0.36950107560E-02  0.33383668594E-02  0.18722274355E+00  0.18728965460E+00  0.51109989000E-03 0.  1.
      611    1    3    3    0    0  0.32037392841E-02 -0.29138585608E-02  0.63949809378E+01  0.63949824246E+01  0.51109989000E-03 0. -1.
       11    1    1    2    0    0  0.55563652490E-03 -0.53519074667E-03  0.17703748746E-01  0.17727918768E-01  0.51109989000E-03 0.  1.
     -623    1    1    2    0    0 -0.64365052977E-04  0.11068244811E-03  0.92548141635E-04  0.17124000000E+03  0.17124000000E+03 0. -1.
</event>
<event>
 7   1  0.1356560E+02  0.9118800E+02  0.7818608E-02  0.1180000E+00
       11   -1    0    0    0    0  0.00000000000E+00  0.00000000000E+00  0.65999999802E+01  0.66000000000E+01  0.51109989000E-03 0.  1.
     -623   -1    0    0    0    0  0.00000000000E+00  0.00000000000E+00  0.75637274222E-11  0.17124000000E+03  0.17124000000E+03 0.  1.
      622    2    1    2    0    0 -0.12486062296E-01 -0.12984156601E-01  0.63894254510E+01  0.63895212719E+01  0.30000000342E-01 0.  0.
     -611    1    3    3    0    0 -0.14189085583E-01 -0.10110341483E-01  0.16052518182E+01  0.16053464456E+01  0.51109989000E-03 0. -1.
      611    1    3    3    0    0  0.17030232869E-02 -0.28738151178E-02  0.47841736328E+01  0.47841748264E+01  0.51109989000E-03 0.  1.
       11    1    1    2    0    0  0.12519530429E-01  0.94704708687E-02  0.20989185215E+00  0.21047869081E+00  0.51109989000E-03 0.  1.
     -623    1    1    2    0    0 -0.33468133685E-04  0.35136857325E-02  0.68267717892E-03  0.17124000004E+03  0.17124000000E+03 0.  1.
</event>
<event>
 7   1  0.1356560E+02  0.9118800E+02  0.7818608E-02  0.1180000E+00
       11   -1    0    0    0    0  0.00000000000E+00  0.00000000000E+00  0.65999999802E+01  0.66000000000E+01  0.51109989000E-03 0.  1.
     -623   -1    0    0    0    0  0.00000000000E+00  0.00000000000E+00  0.75637274222E-11  0.17124000000E+03  0.17124000000E+03 0. -1.
      622    2    1    2    0    0  0.16497009073E-01  0.84925095258E-02  0.52988709683E+01  0.52989883764E+01  0.29999999959E-01 0.  0.
     -611    1    3    3    0    0  0.25291953921E-01  0.49939923519E-02  0.39295041345E+01  0.39295887352E+01  0.51109989000E-03 0.  1.
      611    1    3    3    0    0 -0.87949448473E-02  0.34985171739E-02  0.13693668338E+01  0.13693996412E+01  0.51109989000E-03 0. -1.
       11    1    1    2    0    0 -0.16245561316E-01 -0.75721025135E-02  0.13008880502E+01  0.13010116200E+01  0.51109989000E-03 0.  1.
     -623    1    1    2    0    0 -0.25144775689E-03 -0.92040701239E-03  0.24096089820E-03  0.17124000000E+03  0.17124000000E+03 0. -1.
</event>
<event>
 7   1  0.1356560E+02  0.9118800E+02  0.7818608E-02  0.1180000E+00
       11   -1    0    0    0    0  0.00000000000E+00  0.00000000000E+00  0.65999999802E+01  0.66000000000E+01  0.51109989000E-03 0. -1.
     -623   -1    0    0    0    0  0.00000000000E+00  0.00000000000E+00  0.75637274222E-11  0.17124000000E+03  0.17124000000E+03 0. -1.
      622    2    1    2    0    0 -0.70552585344E-03  0.30144203395E-03  0.65961408986E+01  0.65962091646E+01  0.30000000797E-01 0.  0.
     -611    1    3    3    0    0  0.94360265884E-02 -0.14711901281E-02  0.57145850346E+01  0.57145930373E+01  0.51109989000E-03 0. -1.
      611    1    3    3    0    0 -0.10141552442E-01  0.17726321621E-02  0.88155586403E+00  0.88161612731E+00  0.51109989000E-03 0.  1.
       11    1    1    2    0    0 -0.25110077721E-04 -0.11904411346E-02  0.35624987923E-02  0.37908312219E-02  0.51109989000E-03 0.  1.
     -623    1    1    2    0    0  0.73063593117E-03  0.88899910062E-03  0.29658274918E-03  0.17124000000E+03  0.17124000000E+03 0. -1.
</event>
<event>
 7   1  0.1356560E+02  0.9118800E+02  0.7818608E-02  0.1180000E+00
       11   -1    0    0    0    0  0.00000000000E+00  0.00000000000E+00  0.65999999802E+01  0.66000000000E+01  0.51109989000E-03 0.  1.
     -623   -1    0    0    0    0  0.00000000000E+00  0.00000000000E+00  0.75637274222E-11  0.17124000000E+03  0.17124000000E+03 0.  1.
      622    2    1    2    0    0  0.95726669120E-03 -0.88889601426E-02  0.63785854960E+01  0.63786623096E+01  0.30000000015E-01 0.  0.
     -611    1    3    3    0    0 -0.12673402184E-01 -0.64212725300E-02  0.18117463449E+01  0.18118021215E+01  0.51109989000E-03 0. -1.
      611    1    3    3    0    0  0.13630668875E-01 -0.24676876127E-02  0.45668391511E+01  0.45668601881E+01  0.51109989000E-03 0.  1.
       11    1    1    2    0    0 -0.66815289198E-02 -0.29662125490E-02  0.22121583827E+00  0.22133718524E+00  0.51109989000E-03 0.  1.
     -623    1    1    2    0    0  0.57242622277E-02  0.11855172690E-01  0.19864694233E-03  0.17124000051E+03  0.17124000000E+03 0.  1.
</event>
<event>
 7   1  0.3353184E+02  0.9118800E+02  0.7818608E-02  0.1180000E+00
       11   -1    0    0    0    0  0.00000000000E+00  0.00000000000E+00  0.65999999802E+01  0.66000000000E+01  0.51109989000E-03 0. -1.
     -623   -1    0    0    0    0  0.00000000000E+00  0.00000000000E+00  0.75637274222E-11  0.17124000000E+03  0.17124000000E+03 0. -1.
      622    2    1    2    0    0  0.64992723768E-04  0.51539569085E-05  0.65974104805E+01  0.65974786890E+01  0.30000000492E-01 0.  0.
     -611    1    3    3    0    0  0.85446194256E-02 -0.89883418072E-02  0.51612750508E+01  0.51612899756E+01  0.51109989000E-03 0. -1.
      611    1    3    3    0    0 -0.84796267019E-02  0.89934957641E-02  0.14361354296E+01  0.14361887134E+01  0.51109989000E-03 0.  1.
       11    1    1    2    0    0  0.11394763259E-03 -0.56286378389E-03  0.24012454582E-02  0.25213096895E-02  0.51109989000E-03 0. -1.
     -623    1    1    2    0    0 -0.17894035636E-03  0.55770982700E-03  0.18825410626E-03  0.17124000000E+03  0.17124000000E+03 0. -1.
</event>
<event>
 7   1  0.1356560E+02  0.9118800E+02  0.7818608E-02  0.1180000E+00
       11   -1    0    0    0    0  0.00000000000E+00  0.00000000000E+00  0.65999999802E+01  0.66000000000E+01  0.51109989000E-03 0. -1.
     -623   -1    0    0    0    0  0.00000000000E+00  0.00000000000E+00  0.75637274222E-11  0.17124000000E+03  0.17124000000E+03 0. -1.
      622    2    1    2    0    0  0.65427519337E-02  0.13265313249E-01  0.65830862048E+01  0.65831711778E+01  0.29999998386E-01 0.  0.
     -611    1    3    3    0    0  0.50263391133E-02  0.41815121864E-02  0.60607043877E+01  0.60607079360E+01  0.51109989000E-03 0. -1.
      611    1    3    3    0    0  0.15164128204E-02  0.90838010628E-02  0.52238181706E+00  0.52246324174E+00  0.51109989000E-03 0.  1.
       11    1    1    2    0    0  0.42261340051E-02  0.20659807584E-03  0.16279308211E-01  0.16827952648E-01  0.51109989000E-03 0. -1.
     -623    1    1    2    0    0 -0.10768885939E-01 -0.13471911325E-01  0.63446735491E-03  0.17124000087E+03  0.17124000000E+03 0. -1.
</event>
<event>
 7   1  0.1356560E+02  0.9118800E+02  0.7818608E-02  0.1180000E+00
       11   -1    0    0    0    0  0.00000000000E+00  0.00000000000E+00  0.65999999802E+01  0.66000000000E+01  0.51109989000E-03 0.  1.
     -623   -1    0    0    0    0  0.00000000000E+00  0.00000000000E+00  0.75637274222E-11  0.17124000000E+03  0.17124000000E+03 0.  1.
      622    2    1    2    0    0 -0.10984114007E-01 -0.14606200348E-01  0.59275655949E+01  0.59276696833E+01  0.30000000094E-01 0.  0.
     -611    1    3    3    0    0 -0.47312856784E-02  0.89648054123E-02  0.12890261277E+01  0.12890660852E+01  0.51109989000E-03 0. -1.
      611    1    3    3    0    0 -0.62528283288E-02 -0.23571005760E-01  0.46385394672E+01  0.46386035981E+01  0.51109989000E-03 0.  1.
       11    1    1    2    0    0  0.70748844339E-02  0.12932170289E-01  0.67216845214E+00  0.67233026430E+00  0.51109989000E-03 0.  1.
     -623    1    1    2    0    0  0.39092295730E-02  0.16740300588E-02  0.26593373680E-03  0.17124000005E+03  0.17124000000E+03 0.  1.
</event>
<event>
 7   1  0.1356560E+02  0.9118800E+02  0.7818608E-02  0.1180000E+00
       11   -1    0    0    0    0  0.00000000000E+00  0.00000000000E+00  0.65999999802E+01  0.66000000000E+01  0.51109989000E-03 0.  1.
     -623   -1    0    0    0    0  0.00000000000E+00  0.00000000000E+00  0.75637274222E-11  0.17124000000E+03  0.17124000000E+03 0. -1.
      622    2    1    2    0    0  0.27053632589E-01 -0.47253266249E-01  0.29029033917E+01  0.29035689886E+01  0.29999999944E-01 0.  0.
     -611    1    3    3    0    0  0.29498468622E-01 -0.22442896840E-01  0.18369001460E+01  0.18372741361E+01  0.51109989000E-03 0.  1.
      611    1    3    3    0    0 -0.24448360334E-02 -0.24810369409E-01  0.10660032456E+01  0.10662948525E+01  0.51109989000E-03 0. -1.
       11    1    1    2    0    0 -0.38551230360E-01  0.37787931504E-01  0.36960361232E+01  0.36964303606E+01  0.51109989000E-03 0.  1.
     -623    1    1    2    0    0  0.11497597771E-01  0.94653347446E-02  0.10604653702E-02  0.17124000065E+03  0.17124000000E+03 0. -1.
</event>
<event>
 7   1  0.1356560E+02  0.9118800E+02  0.7818608E-02  0.1180000E+00
       11   -1    0    0    0    0  0.00000000000E+00  0.00000000000E+00  0.65999999802E+01  0.66000000000E+01  0.51109989000E-03 0. -1.
     -623   -1    0    0    0    0  0.00000000000E+00  0.00000000000E+00  0.75637274222E-11  0.17124000000E+03  0.17124000000E+03 0.  1.
      622    2    1    2    0    0 -0.52054462115E-02 -0.28034539771E-02  0.61832123579E+01  0.61832879618E+01  0.29999999916E-01 0.  0.
     -611    1    3    3    0    0 -0.81158736315E-02 -0.14293367286E-01  0.23649932554E+01  0.23650504281E+01  0.51109989000E-03 0. -1.
      611    1    3    3    0    0  0.29104274200E-02  0.11489913309E-01  0.38182191024E+01  0.38182375338E+01  0.51109989000E-03 0.  1.
       11    1    1    2    0    0  0.55766592045E-02 -0.46413229286E-03  0.41667412115E+00  0.41671200967E+00  0.51109989000E-03 0. -1.
     -623    1    1    2    0    0 -0.37121299274E-03  0.32675862685E-02  0.11350428672E-03  0.17124000003E+03  0.17124000000E+03 0.  1.
</event>
<event>
 7   1  0.1356560E+02  0.9118800E+02  0.7818608E-02  0.1180000E+00
       11   -1    0    0    0    0  0.00000000000E+00  0.00000000000E+00  0.65999999802E+01  0.66000000000E+01  0.51109989000E-03 0.  1.
     -623   -1    0    0    0    0  0.00000000000E+00  0.00000000000E+00  0.75637274222E-11  0.17124000000E+03  0.17124000000E+03 0. -1.
      622    2    1    2    0    0  0.12767503395E-02  0.91267755810E-04  0.59444402833E+01  0.59445161216E+01  0.29999999722E-01 0.  0.
     -611    1    3    3    0    0  0.22178588617E-02  0.56833935809E-02  0.25672398615E+00  0.25679697457E+00  0.51109989000E-03 0. -1.
      611    1    3    3    0    0 -0.94110852216E-03 -0.55921258251E-02  0.56877162972E+01  0.56877191471E+01  0.51109989000E-03 0.  1.
       11    1    1    2    0    0 -0.22372638464E-02  0.58692971837E-03  0.65547959764E+00  0.65548387774E+00  0.51109989000E-03 0.  1.
     -623    1    1    2    0    0  0.96051350636E-03 -0.67819747382E-03  0.80102690584E-04  0.17124000000E+03  0.17124000000E+03 0. -1.
</event>
<event>
 7   1  0.1356560E+02  0.9118800E+02  0.7818608E-02  0.1180000E+00
       11   -1    0    0    0    0  0.00000000000E+00  0.00000000000E+00  0.65999999802E+01  0.66000000000E+01  0.51109989000E-03 0.  1.
     -623   -1    0    0    0    0  0.00000000000E+00  0.00000000000E+00  0.75637274222E-11  0.17124000000E+03  0.17124000000E+03 0. -1.
      622    2    1    2    0    0  0.16219291453E-02  0.12638295441E-01  0.50219520278E+01  0.50220577981E+01  0.29999998325E-01 0.  0.
     -611    1    3    3    0    0  0.46787151767E-02  0.25883571762E-02  0.15274611021E+00  0.15284052269E+00  0.51109989000E-03 0. -1.
      611    1    3    3    0    0 -0.30567860314E-02  0.10049938265E-01  0.48692059176E+01  0.48692172754E+01  0.51109989000E-03 0.  1.
       11    1    1    2    0    0  0.13512757877E-02 -0.13913710689E-01  0.15778801650E+01  0.15779421706E+01  0.51109989000E-03 0.  1.
     -623    1    1    2    0    0 -0.29732049333E-02  0.12754152475E-02  0.16778662998E-03  0.17124000003E+03  0.17124000000E+03 0. -1.
</event>
<event>
 7   1  0.1356560E+02  0.9118800E+02  0.7818608E-02  0.1180000E+00
       11   -1    0    0    0    0  0.00000000000E+00  0.00000000000E+00  0.65999999802E+01  0.66000000000E+01  0.51109989000E-03 0.  1.
     -623   -1    0    0    0    0  0.00000000000E+00  0.00000000000E+00  0.75637274222E-11  0.17124000000E+03  0.17124000000E+03 0.  1.
      622    2    1    2    0    0 -0.83041751784E-02  0.81832990470E-02  0.25371928298E+01  0.25373969695E+01  0.30000000077E-01 0.  0.
     -611    1    3    3    0    0 -0.11343838096E-01  0.14200819600E-01  0.86787602656E+00  0.86806647478E+00  0.51109989000E-03 0. -1.
      611    1    3    3    0    0  0.30396629180E-02 -0.60175205530E-02  0.16693168032E+01  0.16693304948E+01  0.51109989000E-03 0.  1.
       11    1    1    2    0    0  0.13383567309E-01  0.19052518772E-02  0.40625801336E+01  0.40626026575E+01  0.51109989000E-03 0.  1.
     -623    1    1    2    0    0 -0.50793921311E-02 -0.10088550925E-01  0.22701661154E-03  0.17124000037E+03  0.17124000000E+03 0.  1.
</event>
<event>
 7   1  0.1356560E+02  0.9118800E+02  0.7818608E-02  0.1180000E+00
       11   -1    0    0    0    0  0.00000000000E+00  0.00000000000E+00  0.65999999802E+01  0.66000000000E+01  0.51109989000E-03 0.  1.
     -623   -1    0    0    0    0  0.00000000000E+00  0.00000000000E+00  0.75637274222E-11  0.17124000000E+03  0.17124000000E+03 0.  1.
      622    2    1    2    0    0 -0.59341244694E-03  0.12367157281E-02  0.65960338405E+01  0.65961022056E+01  0.29999999947E-01 0.  0.
     -611    1    3    3    0    0 -0.10200934013E-02 -0.30642828023E-02  0.64558344101E+01  0.64558352382E+01  0.51109989000E-03 0.  1.
      611    1    3    3    0    0  0.42668095437E-03  0.43009985304E-02  0.14019943033E+00  0.14026696736E+00  0.51109989000E-03 0. -1.
       11    1    1    2    0    0  0.23554439353E-02 -0.23045396558E-03  0.30545439022E-02  0.38977797155E-02  0.51109989000E-03 0.  1.
     -623    1    1    2    0    0 -0.17620314884E-02 -0.10062617626E-02  0.91159557244E-03  0.17124000001E+03  0.17124000000E+03 0.  1.
</event>
<event>
 7   1  0.1356560E+02  0.9118800E+02  0.7818608E-02  0.1180000E+00
       11   -1    0    0    0    0  0.00000000000E+00  0.00000000000E+00  0.65999999802E+01  0.66000000000E+01  0.51109989000E-03 0.  1.
     -623   -1    0    0    0    0  0.00000000000E+00  0.00000000000E+00  0.75637274222E-11  0.17124000000E+03  0.17124000000E+03 0.  1.
      622    2    1    2    0    0  0.13997277364E-01 -0.18215018986E-02  0.64873723534E+01  0.64874570745E+01  0.29999998672E-01 0.  0.
     -611    1    3    3    0    0 -0.53658264145E-02 -0.10198000898E-01  0.28681815072E+01  0.28682047017E+01  0.51109989000E-03 0. -1.
      611    1    3    3    0    0  0.19363103778E-01  0.83764989995E-02  0.36191908462E+01  0.36192523728E+01  0.51109989000E-03 0.  1.
       11    1    1    2    0    0 -0.10319257227E-01  0.35634070953E-02  0.11201094915E+00  0.11254287580E+00  0.51109989000E-03 0.  1.
     -623    1    1    2    0    0 -0.36780201373E-02 -0.17419051968E-02  0.61667741376E-03  0.17124000005E+03  0.17124000000E+03 0.  1.
</event>
<event>
 7   1  0.1356560E+02  0.9118800E+02  0.7818608E-02  0.1180000E+00
       11   -1    0    0    0    0  0.00000000000E+00  0.00000000000E+00  0.65999999802E+01  0.66000000000E+01  0.51109989000E-03 0. -1.
     -623   -1    0    0    0    0  0.00000000000E+00  0.00000000000E+00  0.75637274222E-11  0.17124000000E+03  0.17124000000E+03 0.  1.
      622    2    1    2    0    0  0.31410603509E-02 -0.32212198014E-03  0.65809149074E+01  0.65809840441E+01  0.29999999536E-01 0.  0.
     -611    1    3    3    0    0  0.12695144980E-01 -0.26615691909E-02  0.56880114444E+01  0.56880262573E+01  0.51109989000E-03 0. -1.
      611    1    3    3    0    0 -0.95540846296E-02  0.23394472107E-02  0.89290346299E+00  0.89295778679E+00  0.51109989000E-03 0.  1.
       11    1    1    2    0    0 -0.44527871178E-02 -0.10502841958E-02  0.18450325178E-01  0.19015944160E-01  0.51109989000E-03 0. -1.
     -623    1    1    2    0    0  0.13117267669E-02  0.13724061759E-02  0.63474757962E-03  0.17124000001E+03  0.17124000000E+03 0.  1.
</event>
<event>
 7   1  0.1356560E+02  0.9118800E+02  0.7818608E-02  0.1180000E+00
       11   -1    0    0    0    0  0.00000000000E+00  0.00000000000E+00  0.65999999802E+01  0.66000000000E+01  0.51109989000E-03 0.  1.
     -623   -1    0    0    0    0  0.00000000000E+00  0.00000000000E+00  0.75637274222E-11  0.17124000000E+03  0.17124000000E+03 0.  1.
      622    2    1    2    0    0  0.81860968101E-01  0.44379948526E-01  0.59761375729E+01  0.59769382704E+01  0.29999996198E-01 0.  0.
     -611    1    3    3    0    0  0.11769123030E-01  0.17842476072E-02  0.34976492623E+00  0.34996779943E+00  0.51109989000E-03 0. -1.
      611    1    3    3    0    0  0.70091845071E-01  0.42595700919E-01  0.56263726467E+01  0.56269704709E+01  0.51109989000E-03 0.  1.
       11    1    1    2    0    0 -0.46887029064E-01 -0.42314856243E-01  0.61984852378E+00  0.62305809858E+00  0.51109989000E-03 0.  1.
     -623    1    1    2    0    0 -0.34973939038E-01 -0.20650922829E-02  0.40138835213E-02  0.17124000363E+03  0.17124000000E+03 0.  1.
</event>
<event>
 7   1  0.1356560E+02  0.9118800E+02  0.7818608E-02  0.1180000E+00
       11   -1    0    0    0    0  0.00000000000E+00  0.00000000000E+00  0.65999999802E+01  0.66000000000E+01  0.51109989000E-03 0.  1.
     -623   -1    0    0    0    0  0.00000000000E+00  0.00000000000E+00  0.75637274222E-11  0.17124000000E+03  0.17124000000E+03 0. -1.
      622    2    1    2    0    0 -0.76194030653E-02  0.12003490517E-01  0.65013941122E+01  0.65014788734E+01  0.29999999248E-01 0.  0.
     -611    1    3    3    0    0  0.10126570520E-01  0.61019331418E-02  0.38778493323E+01  0.38778673890E+01  0.51109989000E-03 0.  1.
      611    1    3    3    0    0 -0.17745973585E-01  0.59015573752E-02  0.26235447799E+01  0.26236114844E+01  0.51109989000E-03 0. -1.
       11    1    1    2    0    0  0.20297142272E-03 -0.51777603223E-02  0.98383139461E-01  0.98520829030E-01  0.51109989000E-03 0.  1.
     -623    1    1    2    0    0  0.74164316435E-02 -0.68257301955E-02  0.22272776795E-03  0.17124000030E+03  0.17124000000E+03 0. -1.
</event>
<event>
 7   1  0.1356560E+02  0.9118800E+02  0.7818608E-02  0.1180000E+00
       11   -1    0    0    0    0  0.00000000000E+00  0.00000000000E+00  0.65999999802E+01  0.66000000000E+01  0.51109989000E-03 0. -1.
     -623   -1    0    0    0    0  0.00000000000E+00  0.00000000000E+00  0.75637274222E-11  0.17124000000E+03  0.17124000000E+03 0. -1.
      622    2    1    2    0    0 -0.32374785755E-02 -0.17096561102E-02  0.65481272452E+01  0.65481969903E+01  0.29999999618E-01 0.  0.
     -611    1    3    3    0    0  0.11306963258E-01 -0.24653045677E-03  0.12980244612E+01  0.12980738312E+01  0.51109989000E-03 0.  1.
      611    1    3    3    0    0 -0.14544441834E-01 -0.14631256534E-02  0.52501027840E+01  0.52501231591E+01  0.51109989000E-03 0. -1.
       11    1    1    2    0    0  0.38353980692E-02  0.85981087256E-03  0.51651143228E-01  0.51803005443E-01  0.51109989000E-03 0. -1.
     -623    1    1    2    0    0 -0.59791949388E-03  0.84984523773E-03  0.22159080840E-03  0.17124000000E+03  0.17124000000E+03 0. -1.
</event>
<event>
 7   1  0.1356560E+02  0.9118800E+02  0.7818608E-02  0.1180000E+00
       11   -1    0    0    0    0  0.00000000000E+00  0.00000000000E+00  0.65999999802E+01  0.66000000000E+01  0.51109989000E-03 0.  1.
     -623   -1    0    0    0    0  0.00000000000E+00  0.00000000000E+00  0.75637274222E-11  0.17124000000E+03  0.17124000000E+03 0. -1.
      622    2    1    2    0    0  0.12485577508E-02  0.83338153709E-03  0.64735913134E+01  0.64736610003E+01  0.30000000383E-01 0.  0.
     -611    1    3    3    0    0 -0.12861603405E-01  0.40283158696E-02  0.19563896005E+01  0.19564360910E+01  0.51109989000E-03 0. -1.
      611    1    3    3    0    0  0.14110161156E-01 -0.31949343325E-02  0.45172017129E+01  0.45172249093E+01  0.51109989000E-03 0.  1.
       11    1    1    2    0    0 -0.12526031163E-02 -0.22220067248E-03  0.12633155805E+00  0.12633899703E+00  0.51109989000E-03 0.  1.
     -623    1    1    2    0    0  0.40453655062E-05 -0.61118086475E-03  0.77107171191E-04  0.17124000000E+03  0.17124000000E+03 0. -1.
</event>
<event>
 7   1  0.1356560E+02  0.9118800E+02  0.7818608E-02  0.1180000E+00
       11   -1    0    0    0    0  0.00000000000E+00  0.00000000000E+00  0.65999999802E+01  0.66000000000E+01  0.51109989000E-03 0.  1.
     -623   -1    0    0    0    0  0.00000000000E+00  0.00000000000E+00  0.75637274222E-11  0.17124000000E+03  0.17124000000E+03 0. -1.
      622    2    1    2    0    0 -0.21043516952E-02  0.17989156853E-02  0.65714887194E+01  0.65715577798E+01  0.30000000185E-01 0.  0.
     -611    1    3    3    0    0  0.16838205019E-02  0.73741093824E-02  0.43981227597E+00  0.43987761032E+00  0.51109989000E-03 0. -1.
      611    1    3    3    0    0 -0.37881721970E-02 -0.55751936971E-02  0.61316764434E+01  0.61316801695E+01  0.51109989000E-03 0.  1.
       11    1    1    2    0    0  0.52533554360E-03 -0.41987567331E-02  0.28121018570E-01  0.28442194782E-01  0.51109989000E-03 0.  1.
     -623    1    1    2    0    0  0.15790161518E-02  0.23998410481E-02  0.39024139888E-03  0.17124000002E+03  0.17124000000E+03 0. -1.
</event>
<event>
 7   1  0.1356560E+02  0.9118800E+02  0.7818608E-02  0.1180000E+00
       11   -1    0    0    0    0  0.00000000000E+00  0.00000000000E+00  0.65999999802E+01  0.66000000000E+01  0.51109989000E-03 0.  1.
     -623   -1    0    0    0    0  0.00000000000E+00  0.00000000000E+00  0.75637274222E-11  0.17124000000E+03  0.17124000000E+03 0. -1.
      622    2    1    2    0    0  0.13782529828E-02 -0.48025709268E-02  0.63115227339E+01  0.63115960093E+01  0.30000000241E-01 0.  0.
     -611    1    3    3    0    0  0.14420959371E-03 -0.69009543767E-02  0.32917141771E+00  0.32924417600E+00  0.51109989000E-03 0. -1.
      611    1    3    3    0    0  0.12340433891E-02  0.20983834499E-02  0.59823513162E+01  0.59823518333E+01  0.51109989000E-03 0.  1.
       11    1    1    2    0    0 -0.25591537395E-02  0.41431905279E-02  0.28836241775E+00  0.28840398833E+00  0.51109989000E-03 0.  1.
     -623    1    1    2    0    0  0.11809007562E-02  0.65938039856E-03  0.11483160252E-03  0.17124000001E+03  0.17124000000E+03 0. -1.
</event>
<event>
 7   1  0.1356560E+02  0.9118800E+02  0.7818608E-02  0.1180000E+00
       11   -1    0    0    0    0  0.00000000000E+00  0.00000000000E+00  0.65999999802E+01  0.66000000000E+01  0.51109989000E-03 0. -1.
     -623   -1    0    0    0    0  0.00000000000E+00  0.00000000000E+00  0.75637274222E-11  0.17124000000E+03  0.17124000000E+03 0.  1.
      622    2    1    2    0    0 -0.44348369807E-02  0.23957264273E-02  0.64423044733E+01  0.64423762956E+01  0.29999999984E-01 0.  0.
     -611    1    3    3    0    0 -0.12661003297E-01  0.10988429527E-01  0.26463848254E+01  0.26464379743E+01  0.51109989000E-03 0.  1.
      611    1    3    3    0    0  0.82261663159E-02 -0.85927031002E-02  0.37959196480E+01  0.37959383213E+01  0.51109989000E-03 0. -1.
       11    1    1    2    0    0  0.38489563076E-02 -0.28174910733E-02  0.15755068321E+00  0.15762370292E+00  0.51109989000E-03 0. -1.
     -623    1    1    2    0    0  0.58588067304E-03  0.42176464601E-03  0.14482380589E-03  0.17124000000E+03  0.17124000000E+03 0.  1.
</event>
<event>
 7   1  0.1356560E+02  0.9118800E+02  0.7818608E-02  0.1180000E+00
       11   -1    0    0    0    0  0.00000000000E+00  0.00000000000E+00  0.65999999802E+01  0.66000000000E+01  0.51109989000E-03 0. -1.
     -623   -1    0    0    0    0  0.00000000000E+00  0.00000000000E+00  0.75637274222E-11  0.17124000000E+03  0.17124000000E+03 0.  1.
      622    2    1    2    0    0  0.47983898334E-02 -0.19258659792E-02  0.53440049771E+01  0.53440916841E+01  0.29999999213E-01 0.  0.
     -611    1    3    3    0    0 -0.51109306180E-02 -0.80511426299E-02  0.44549806172E+01  0.44549908533E+01  0.51109989000E-03 0. -1.
      611    1    3    3    0    0  0.99093204514E-02  0.61252766507E-02  0.88902435986E+00  0.88910083078E+00  0.51109989000E-03 0.  1.
       11    1    1    2    0    0 -0.49747401166E-02  0.26974622782E-02  0.12558954645E+01  0.12559083181E+01  0.51109989000E-03 0. -1.
     -623    1    1    2    0    0  0.17635028311E-03 -0.77159629857E-03  0.99542675825E-04  0.17124000000E+03  0.17124000000E+03 0.  1.
</event>
<event>
 7   1  0.1356560E+02  0.9118800E+02  0.7818608E-02  0.1180000E+00
       11   -1    0    0    0    0  0.00000000000E+00  0.00000000000E+00  0.65999999802E+01  0.66000000000E+01  0.51109989000E-03 0. -1.
     -623   -1    0    0    0    0  0.00000000000E+00  0.00000000000E+00  0.75637274222E-11  0.17124000000E+03  0.17124000000E+03 0.  1.
      622    2    1    2    0    0 -0.39410616493E-04 -0.75650111603E-04  0.65446096599E+01  0.65446784190E+01  0.30000000223E-01 0.  0.
     -611    1    3    3    0    0 -0.61314775077E-03  0.70784881972E-02  0.61441135813E+01  0.61441177106E+01  0.51109989000E-03 0. -1.
      611    1    3    3    0    0  0.57373713427E-03 -0.71541383088E-02  0.40049607869E+00  0.40056070843E+00  0.51109989000E-03 0.  1.
       11    1    1    2    0    0 -0.66690508907E-03 -0.59077895847E-03  0.55312041602E-01  0.55321577630E-01  0.51109989000E-03 0. -1.
     -623    1    1    2    0    0  0.70631570563E-03  0.66642907013E-03  0.78278088408E-04  0.17124000000E+03  0.17124000000E+03 0.  1.
</event>
<event>
 7   1  0.1356560E+02  0.9118800E+02  0.7818608E-02  0.1180000E+00
       11   -1    0    0    0    0  0.00000000000E+00  0.00000000000E+00  0.65999999802E+01  0.66000000000E+01  0.51109989000E-03 0.  1.
     -623   -1    0    0    0    0  0.00000000000E+00  0.00000000000E+00  0.75637274222E-11  0.17124000000E+03  0.17124000000E+03 0. -1.
      622    2    1    2    0    0  0.15463686615E-03  0.43357193076E-03  0.65324929122E+01  0.65325618145E+01  0.29999997086E-01 0.  0.
     -611    1    3    3    0    0  0.14105925279E-01 -0.47245476153E-02  0.36749413055E+01  0.36749714501E+01  0.51109989000E-03 0. -1.
      611    1    3    3    0    0 -0.13951288413E-01  0.51581195460E-02  0.28575516067E+01  0.28575903644E+01  0.51109989000E-03 0.  1.
       11    1    1    2    0    0  0.69050511218E-03 -0.85915651373E-04  0.67432651785E-01  0.67438178569E-01  0.51109989000E-03 0.  1.
     -623    1    1    2    0    0 -0.84514197891E-03 -0.34765627963E-03  0.74411710730E-04  0.17124000000E+03  0.17124000000E+03 0. -1.
</event>
<event>
 7   1  0.1356560E+02  0.9118800E+02  0.7818608E-02  0.1180000E+00
       11   -1    0    0    0    0  0.00000000000E+00  0.00000000000E+00  0.65999999802E+01  0.66000000000E+01  0.51109989000E-03 0. -1.
     -623   -1    0    0    0    0  0.00000000000E+00  0.00000000000E+00  0.75637274222E-11  0.17124000000E+03  0.17124000000E+03 0.  1.
      622    2    1    2    0    0  0.18047543159E-01  0.11855173049E-01  0.48870491865E+01  0.48871889682E+01  0.30000000215E-01 0.  0.
     -611    1    3    3    0    0 -0.59235518221E-02  0.62721017719E-02  0.53190669955E+00  0.53197690361E+00  0.51109989000E-03 0. -1.
      611    1    3    3    0    0  0.23971094981E-01  0.55830712772E-02  0.43551424870E+01  0.43552120646E+01  0.51109989000E-03 0.  1.
       11    1    1    2    0    0 -0.18095891156E-01 -0.23484450028E-02  0.17127134880E+01  0.17128107688E+01  0.51109989000E-03 0. -1.
     -623    1    1    2    0    0  0.48347997687E-04 -0.95067280448E-02  0.23730669963E-03  0.17124000026E+03  0.17124000000E+03 0.  1.
</event>
<event>
 7   1  0.1356560E+02  0.9118800E+02  0.7818608E-02  0.1180000E+00
       11   -1    0    0    0    0  0.00000000000E+00  0.00000000000E+00  0.65999999802E+01  0.66000000000E+01  0.51109989000E-03 0.  1.
     -623   -1    0    0    0    0  0.00000000000E+00  0.00000000000E+00  0.75637274222E-11  0.17124000000E+03  0.17124000000E+03 0.  1.
      622    2    1    2    0    0  0.59022879844E-03 -0.39801080314E-03  0.65947988705E+01  0.65948671441E+01  0.30000000229E-01 0.  0.
     -611    1    3    3    0    0 -0.20987782793E-03  0.13014259529E-01  0.17038390545E+01  0.17038888461E+01  0.51109989000E-03 0. -1.
      611    1    3    3    0    0  0.80010662637E-03 -0.13412270333E-01  0.48909598160E+01  0.48909782980E+01  0.51109989000E-03 0.  1.
       11    1    1    2    0    0 -0.22635288393E-03  0.39727117872E-03  0.50868380334E-02  0.51328553742E-02  0.51109989000E-03 0.  1.
     -623    1    1    2    0    0 -0.36387591451E-03  0.73962442075E-06  0.11427164548E-03  0.17124000000E+03  0.17124000000E+03 0.  1.
</event>
<event>
 7   1  0.1356560E+02  0.9118800E+02  0.7818608E-02  0.1180000E+00
       11   -1    0    0    0    0  0.00000000000E+00  0.00000000000E+00  0.65999999802E+01  0.66000000000E+01  0.51109989000E-03 0.  1.
     -623   -1    0    0    0    0  0.00000000000E+00  0.00000000000E+00  0.75637274222E-11  0.17124000000E+03  0.17124000000E+03 0. -1.
      622    2    1    2    0    0 -0.15613229639E-02  0.13509285151E-01  0.65252709347E+01  0.65253540678E+01  0.30000000429E-01 0.  0.
     -611    1    3    3    0    0  0.18330649142E-02  0.22523904323E-01  0.51293116920E+01  0.51293614984E+01  0.51109989000E-03 0. -1.
      611    1    3    3    0    0 -0.33943878781E-02 -0.90146191717E-02  0.13959592427E+01  0.13959925694E+01  0.51109989000E-03 0.  1.
       11    1    1    2    0    0  0.30783271668E-02 -0.12359751958E-01  0.73549386744E-01  0.74645918041E-01  0.51109989000E-03 0.  1.
     -623    1    1    2    0    0 -0.15170042028E-02 -0.11495331937E-02  0.11796592272E-02  0.17124000001E+03  0.17124000000E+03 0. -1.
</event>
<event>
 7   1  0.1356560E+02  0.9118800E+02  0.7818608E-02  0.1180000E+00
       11   -1    0    0    0    0  0.00000000000E+00  0.00000000000E+00  0.65999999802E+01  0.66000000000E+01  0.51109989000E-03 0. -1.
     -623   -1    0    0    0    0  0.00000000000E+00  0.00000000000E+00  0.75637274222E-11  0.17124000000E+03  0.17124000000E+03 0.  1.
      622    2    1    2    0    0  0.92171091487E-03 -0.35368993152E-02  0.63627185589E+01  0.63627903327E+01  0.29999999837E-01 0.  0.
     -611    1    3    3    0    0 -0.63824155301E-02  0.31893635724E-02  0.56275328168E+01  0.56275373630E+01  0.51109989000E-03 0. -1.
      611    1    3    3    0    0  0.73041264450E-02 -0.67262628876E-02  0.73518574208E+00  0.73525296970E+00  0.51109989000E-03 0.  1.
       11    1    1    2    0    0 -0.73258797331E-03 -0.78463366750E-03  0.23720663507E+00  0.23720961464E+00  0.51109989000E-03 0. -1.
     -623    1    1    2    0    0 -0.18912294150E-03  0.43215329814E-02  0.74788327189E-04  0.17124000005E+03  0.17124000000E+03 0.  1.
</event>
<event>
 7   1  0.1356560E+02  0.9118800E+02  0.7818608E-02  0.1180000E+00
       11   -1    0    0    0    0  0.00000000000E+00  0.00000000000E+00  0.65999999802E+01  0.66000000000E+01  0.51109989000E-03 0. -1.
     -623   -1    0    0    0    0  0.00000000000E+00  0.00000000000E+00  0.75637274222E-11  0.17124000000E+03  0.17124000000E+03 0.  1.
      622    2    1    2    0    0  0.32334146090E-02  0.66892631908E-02  0.64342910008E+01  0.64343652277E+01  0.29999999484E-01 0.  0.
     -611    1    3    3    0    0  0.28544034186E-02  0.83720000173E-02  0.64105638867E+01  0.64105700093E+01  0.51109989000E-03 0. -1.
      611    1    3    3    0    0  0.37901119039E-03 -0.16827368266E-02  0.23727114073E-01  0.23795218386E-01  0.51109989000E-03 0.  1.
       11    1    1    2    0    0 -0.33877912257E-02 -0.54593177984E-02  0.16550931798E+00  0.16563476942E+00  0.51109989000E-03 0. -1.
     -623    1    1    2    0    0  0.15437661663E-03 -0.12299453921E-02  0.19966321935E-03  0.17124000000E+03  0.17124000000E+03 0.  1.
</event>
<event>
 7   1  0.1356560E+02  0.9118800E+02  0.7818608E-02  0.1180000E+00
       11   -1    0    0    0    0  0.00000000000E+00  0.00000000000E+00  0.65999999802E+01  0.66000000000E+01  0.51109989000E-03 0.  1.
     -623   -1    0    0    0    0  0.00000000000E+00  0.00000000000E+00  0.75637274222E-11  0.17124000000E+03  0.17124000000E+03 0.  1.
      622    2    1    2    0    0 -0.80698455611E-02 -0.36899032205E-02  0.51877843572E+01  0.51878786874E+01  0.30000000080E-01 0.  0.
     -611    1    3    3    0    0 -0.99768119457E-02  0.72311510355E-02  0.43880401810E+01  0.43880575108E+01  0.51109989000E-03 0.  1.
      611    1    3    3    0    0  0.19069663846E-02 -0.10921054256E-01  0.79974417622E+00  0.79982117661E+00  0.51109989000E-03 0. -1.
       11    1    1    2    0    0 -0.14560589982E-01  0.10399977147E-01  0.14120062258E+01  0.14121196880E+01  0.51109989000E-03 0.  1.
     -623    1    1    2    0    0  0.22630435535E-01 -0.67100739237E-02  0.20939953155E-03  0.17124000163E+03  0.17124000000E+03 0.  1.
</event>
<event>
 7   1  0.1356560E+02  0.9118800E+02  0.7818608E-02  0.1180000E+00
       11   -1    0    0    0    0  0.00000000000E+00  0.00000000000E+00  0.65999999802E+01  0.66000000000E+01  0.51109989000E-03 0.  1.
     -623   -1    0    0    0    0  0.00000000000E+00  0.00000000000E+00  0.75637274222E-11  0.17124000000E+03  0.17124000000E+03 0.  1.
      622    2    1    2    0    0  0.49313460868E-03  0.71820805115E-03  0.65794043325E+01  0.65794727851E+01  0.30000000830E-01 0.  0.
     -611    1    3    3    0    0 -0.71348356624E-02  0.99119707206E-02  0.13646312419E+01  0.13646859860E+01  0.51109989000E-03 0. -1.
      611    1    3    3    0    0  0.76279702711E-02 -0.91937626695E-02  0.52147730906E+01  0.52147867990E+01  0.51109989000E-03 0.  1.
       11    1    1    2    0    0 -0.52915328026E-03  0.55557692658E-03  0.20506503793E-01  0.20527215833E-01  0.51109989000E-03 0.  1.
     -623    1    1    2    0    0  0.36018671550E-04 -0.12737849766E-02  0.89149599290E-04  0.17124000000E+03  0.17124000000E+03 0.  1.
</event>
<event>
 7   1  0.1356560E+02  0.9118800E+02  0.7818608E-02  0.1180000E+00
       11   -1    0    0    0    0  0.00000000000E+00  0.00000000000E+00  0.65999999802E+01  0.66000000000E+01  0.51109989000E-03 0. -1.
     -623   -1    0    0    0    0  0.00000000000E+00  0.00000000000E+00  0.75637274222E-11  0.17124000000E+03  0.17124000000E+03 0.  1.
      622    2    1    2    0    0 -0.23902482563E-01 -0.11946155597E-01  0.22627347178E+01  0.22630913464E+01  0.30000001943E-01 0.  0.
     -611    1    3    3    0    0 -0.23750145210E-02 -0.13411085551E-01  0.40105689596E+00  0.40128841614E+00  0.51109989000E-03 0.  1.
      611    1    3    3    0    0 -0.21527468042E-01  0.14649299541E-02  0.18616778218E+01  0.18618029303E+01  0.51109989000E-03 0. -1.
       11    1    1    2    0    0 -0.14491693871E-01 -0.53106368389E-01  0.43365425847E+01  0.43368919915E+01  0.51109989000E-03 0. -1.
     -623    1    1    2    0    0  0.38394176433E-01  0.65052523984E-01  0.72267786719E-03  0.17124001666E+03  0.17124000000E+03 0.  1.
</event>
<event>
 7   1  0.1356560E+02  0.9118800E+02  0.7818608E-02  0.1180000E+00
       11   -1    0    0    0    0  0.00000000000E+00  0.00000000000E+00  0.65999999802E+01  0.66000000000E+01  0.51109989000E-03 0. -1.
     -623   -1    0    0    0    0  0.00000000000E+00  0.00000000000E+00  0.75637274222E-11  0.17124000000E+03  0.17124000000E+03 0. -1.
      622    2    1    2    0    0  0.56649248778E-02 -0.13924065040E-02  0.60571084122E+01  0.60571855137E+01  0.30000000421E-01 0.  0.
     -611    1    3    3    0    0 -0.44797469307E-02 -0.27516715947E-02  0.53522448748E+01  0.53522474813E+01  0.51109989000E-03 0. -1.
      611    1    3    3    0    0  0.10144671808E-01  0.13592650907E-02  0.70486353743E+00  0.70493803244E+00  0.51109989000E-03 0.  1.
       11    1    1    2    0    0 -0.56467685006E-02  0.11341829982E-02  0.54278368917E+00  0.54281448656E+00  0.51109989000E-03 0. -1.
     -623    1    1    2    0    0 -0.18156377219E-04  0.25822350581E-03  0.10787933299E-03  0.17124000000E+03  0.17124000000E+03 0. -1.
</event>
<event>
 7   1  0.1356560E+02  0.9118800E+02  0.7818608E-02  0.1180000E+00
       11   -1    0    0    0    0  0.00000000000E+00  0.00000000000E+00  0.65999999802E+01  0.66000000000E+01  0.51109989000E-03 0.  1.
     -623   -1    0    0    0    0  0.00000000000E+00  0.00000000000E+00  0.75637274222E-11  0.17124000000E+03  0.17124000000E+03 0.  1.
      622    2    1    2    0    0  0.44409550964E-04  0.42211399956E-02  0.65987746691E+01  0.65988442134E+01  0.30000000201E-01 0.  0.
     -611    1    3    3    0    0  0.31162755887E-02  0.15934315044E-01  0.48682878706E+01  0.48683149719E+01  0.51109989000E-03 0.  1.
      611    1    3    3    0    0 -0.30718660378E-02 -0.11713175049E-01  0.17304867985E+01  0.17305292415E+01  0.51109989000E-03 0. -1.
       11    1    1    2    0    0  0.58454776078E-03  0.73942242043E-03 -0.43126651024E-03  0.11557056290E-02  0.51109989000E-03 0.  1.
     -623    1    1    2    0    0 -0.62895731174E-03 -0.49605624160E-02  0.16565777389E-02  0.17124000008E+03  0.17124000000E+03 0.  1.
</event>
<event>
 7   1  0.1356560E+02  0.9118800E+02  0.7818608E-02  0.1180000E+00
       11   -1    0    0    0    0  0.00000000000E+00  0.00000000000E+00  0.65999999802E+01  0.66000000000E+01  0.51109989000E-03 0.  1.
     -623   -1    0    0    0    0  0.00000000000E+00  0.00000000000E+00  0.75637274222E-11  0.17124000000E+03  0.17124000000E+03 0. -1.
      622    2    1    2    0    0  0.42475154761E-01  0.10679394007E-01  0.30000376893E+01  0.30005073447E+01  0.29999999909E-01 0.  0.
     -611    1    3    3    0    0  0.33636881947E-01  0.50922481709E-02  0.13244455410E+01  0.13248824941E+01  0.51109989000E-03 0.  1.
      611    1    3    3    0    0  0.88382728141E-02  0.55871458362E-02  0.16755921483E+01  0.16756248506E+01  0.51109989000E-03 0. -1.
       11    1    1    2    0    0  0.45699989451E-02 -0.33458611775E-01  0.35993262307E+01  0.35994846770E+01  0.51109989000E-03 0.  1.
     -623    1    1    2    0    0 -0.47045153704E-01  0.22779217767E-01  0.63606056898E-03  0.17124000798E+03  0.17124000000E+03 0. -1.
</event>
<event>
 7   1  0.1356560E+02  0.9118800E+02  0.7818608E-02  0.1180000E+00
       11   -1    0    0    0    0  0.00000000000E+00  0.00000000000E+00  0.65999999802E+01  0.66000000000E+01  0.51109989000E-03 0.  1.
     -623   -1    0    0    0    0  0.00000000000E+00  0.00000000000E+00  0.75637274222E-11  0.17124000000E+03  0.17124000000E+03 0. -1.
      622    2    1    2    0    0  0.34547409306E-01 -0.20219866661E-01  0.45892877296E+01  0.45895603527E+01  0.30000000263E-01 0.  0.
     -611    1    3    3    0    0  0.34138817584E-01 -0.26786482374E-01  0.40338620544E+01  0.40340954760E+01  0.51109989000E-03 0.  1.
      611    1    3    3    0    0  0.40859172221E-03  0.65666157129E-02  0.55542567523E+00  0.55546487677E+00  0.51109989000E-03 0. -1.
       11    1    1    2    0    0 -0.33691917761E-01  0.18585648135E-01  0.20100713171E+01  0.20104396367E+01  0.51109989000E-03 0.  1.
     -623    1    1    2    0    0 -0.85549154473E-03  0.16342185260E-02  0.64093407552E-03  0.17124000001E+03  0.17124000000E+03 0. -1.
</event>
<event>
 7   1  0.1356560E+02  0.9118800E+02  0.7818608E-02  0.1180000E+00
       11   -1    0    0    0    0  0.00000000000E+00  0.00000000000E+00  0.65999999802E+01  0.66000000000E+01  0.51109989000E-03 0.  1.
     -623   -1    0    0    0    0  0.00000000000E+00  0.00000000000E+00  0.75637274222E-11  0.17124000000E+03  0.17124000000E+03 0. -1.
      622    2    1    2    0    0 -0.71435409422E-03  0.78240346516E-03  0.52959411030E+01  0.52960261790E+01  0.30000000927E-01 0.  0.
     -611    1    3    3    0    0 -0.13267454589E-02  0.66480598265E-03  0.52921524881E+01  0.52921527208E+01  0.51109989000E-03 0.  1.
      611    1    3    3    0    0  0.61239136470E-03  0.11759748252E-03  0.37886149482E-02  0.38734582320E-02  0.51109989000E-03 0. -1.
       11    1    1    2    0    0  0.67928018253E-02  0.41779256243E-02  0.13039491546E+01  0.13039736410E+01  0.51109989000E-03 0.  1.
     -623    1    1    2    0    0 -0.60784477313E-02 -0.49603290897E-02  0.10972233137E-03  0.17124000018E+03  0.17124000000E+03 0. -1.
</event>
<event>
 7   1  0.1356560E+02  0.9118800E+02  0.7818608E-02  0.1180000E+00
       11   -1    0    0    0    0  0.00000000000E+00  0.00000000000E+00  0.65999999802E+01  0.66000000000E+01  0.51109989000E-03 0.  1.
     -623   -1    0    0    0    0  0.00000000000E+00  0.00000000000E+00  0.75637274222E-11  0.17124000000E+03  0.17124000000E+03 0. -1.
      622    2    1    2    0    0  0.11192198930E-02  0.41087734962E-02  0.64127526025E+01  0.64128241887E+01  0.29999999649E-01 0.  0.
     -611    1    3    3    0    0  0.35724394826E-02 -0.92613983951E-02  0.49089545797E+01  0.49089646426E+01  0.51109989000E-03 0.  1.
      611    1    3    3    0    0 -0.24532195895E-02  0.13370171891E-01  0.15037980228E+01  0.15038595461E+01  0.51109989000E-03 0. -1.
       11    1    1    2    0    0 -0.14697729156E-02 -0.40358261323E-02  0.18712582320E+00  0.18717580788E+00  0.51109989000E-03 0.  1.
     -623    1    1    2    0    0  0.35055302269E-03 -0.72947363972E-04  0.12155154490E-03  0.17124000000E+03  0.17124000000E+03 0. -1.
</event>
<event>
 7   1  0.1356560E+02  0.9118800E+02  0.7818608E-02  0.1180000E+00
       11   -1    0    0    0    0  0.00000000000E+00  0.00000000000E+00  0.65999999802E+01  0.66000000000E+01  0.51109989000E-03 0. -1.
     -623   -1    0    0    0    0  0.00000000000E+00  0.00000000000E+00  0.75637274222E-11  0.17124000000E+03  0.17124000000E+03 0. -1.
      622    2    1    2    0    0  0.16721666581E-01 -0.58525723348E-02  0.44503499354E+01  0.44504863121E+01  0.29999999959E-01 0.  0.
     -611    1    3    3    0    0  0.12917519527E-02 -0.12661458399E-01  0.83635820292E+00  0.83645519065E+00  0.51109989000E-03 0. -1.
      611    1    3    3    0    0  0.15429914628E-01  0.68088860639E-02  0.36139917325E+01  0.36140311214E+01  0.51109989000E-03 0.  1.
       11    1    1    2    0    0  0.13835347734E-01  0.29373046749E-01  0.21492640556E+01  0.21495093474E+01  0.51109989000E-03 0. -1.
     -623    1    1    2    0    0 -0.30557014307E-01 -0.23520474409E-01  0.38599087352E-03  0.17124000434E+03  0.17124000000E+03 0. -1.
</event>
<event>
 7   1  0.1356560E+02  0.9118800E+02  0.7818608E-02  0.1180000E+00
       11   -1    0    0    0    0  0.00000000000E+00  0.00000000000E+00  0.65999999802E+01  0.66000000000E+01  0.51109989000E-03 0.  1.
     -623   -1    0    0    0    0  0.00000000000E+00  0.00000000000E+00  0.75637274222E-11  0.17124000000E+03  0.17124000000E+03 0.  1.
      622    2    1    2    0    0  0.44562907047E-02 -0.21578785551E-01  0.64068529000E+01  0.64069610257E+01  0.30000000274E-01 0.  0.
     -611    1    3    3    0    0  0.62430859854E-03  0.44726789694E-02  0.30973540272E+01  0.30973573616E+01  0.51109989000E-03 0.  1.
      611    1    3    3    0    0  0.38319821062E-02 -0.26051464521E-01  0.33094988728E+01  0.33096036641E+01  0.51109989000E-03 0. -1.
       11    1    1    2    0    0 -0.64129328482E-02  0.21365177042E-01  0.19174509451E+00  0.19303895718E+00  0.51109989000E-03 0.  1.
     -623    1    1    2    0    0  0.19566421436E-02  0.21360850955E-03  0.14019856345E-02  0.17124000002E+03  0.17124000000E+03 0.  1.
</event>
<event>
 7   1  0.1356560E+02  0.9118800E+02  0.7818608E-02  0.1180000E+00
       11   -1    0    0    0    0  0.00000000000E+00  0.00000000000E+00  0.65999999802E+01  0.66000000000E+01  0.51109989000E-03 0. -1.
     -623   -1    0    0    0    0  0.00000000000E+00  0.00000000000E+00  0.75637274222E-11  0.17124000000E+03  0.17124000000E+03 0.  1.
      622    2    1    2    0    0  0.22847460225E-02 -0.14097532037E-01  0.65549775537E+01  0.65550617609E+01  0.29999999931E-01 0.  0.
     -611    1    3    3    0    0 -0.85918659885E-02  0.50235566359E-02  0.29668974656E+01  0.29669142032E+01  0.51109989000E-03 0.  1.
      611    1    3    3    0    0  0.10876612011E-01 -0.19121088673E-01  0.35880800880E+01  0.35881475577E+01  0.51109989000E-03 0. -1.
       11    1    1    2    0    0  0.48953479771E-03  0.35042235944E-02  0.44795460867E-01  0.44937887853E-01  0.51109989000E-03 0. -1.
     -623    1    1    2    0    0 -0.27742808206E-02  0.10593308444E-01  0.22696474992E-03  0.17124000035E+03  0.17124000000E+03 0.  1.
</event>
<event>
 7   1  0.1356560E+02  0.9118800E+02  0.7818608E-02  0.1180000E+00
       11   -1    0    0    0    0  0.00000000000E+00  0.00000000000E+00  0.65999999802E+01  0.66000000000E+01  0.51109989000E-03 0. -1.
     -623   -1    0    0    0    0  0.00000000000E+00  0.00000000000E+00  0.75637274222E-11  0.17124000000E+03  0.17124000000E+03 0.  1.
      622    2    1    2    0    0 -0.35448862206E-02  0.53259321247E-02  0.65959154216E+01  0.65959867481E+01  0.29999999793E-01 0.  0.
     -611    1    3    3    0    0  0.10469332636E-01  0.88325076176E-02  0.45308795732E+01  0.45309003066E+01  0.51109989000E-03 0. -1.
      611    1    3    3    0    0 -0.14014218857E-01 -0.35065754929E-02  0.20650358484E+01  0.20650864415E+01  0.51109989000E-03 0.  1.
       11    1    1    2    0    0 -0.93433443944E-03 -0.14815733693E-02  0.35743688225E-02  0.40131503922E-02  0.51109989000E-03 0.  1.
     -623    1    1    2    0    0  0.44792206594E-02 -0.38443587548E-02  0.51019074941E-03  0.17124000010E+03  0.17124000000E+03 0.  1.
</event>
<event>
 7   1  0.1356560E+02  0.9118800E+02  0.7818608E-02  0.1180000E+00
       11   -1    0    0    0    0  0.00000000000E+00  0.00000000000E+00  0.65999999802E+01  0.66000000000E+01  0.51109989000E-03 0. -1.
     -623   -1    0    0    0    0  0.00000000000E+00  0.00000000000E+00  0.75637274222E-11  0.17124000000E+03  0.17124000000E+03 0. -1.
      622    2    1    2    0    0 -0.22217544736E-02  0.28300389171E-02  0.64270243830E+01  0.64270954066E+01  0.30000000562E-01 0.  0.
     -611    1    3    3    0    0 -0.13386782368E-03  0.15784927689E-02  0.19604315839E-01  0.19674856610E-01  0.51109989000E-03 0.  1.
      611    1    3    3    0    0 -0.20878866500E-02  0.12515461482E-02  0.64074200672E+01  0.64074205500E+01  0.51109989000E-03 0. -1.
       11    1    1    2    0    0  0.41799341288E-02 -0.17504121396E-02  0.17284443223E+00  0.17290458284E+00  0.51109989000E-03 0. -1.
     -623    1    1    2    0    0 -0.19581796540E-02 -0.10796267769E-02  0.13116904038E-03  0.17124000001E+03  0.17124000000E+03 0. -1.
</event>
<event>
 7   1  0.1356560E+02  0.9118800E+02  0.7818608E-02  0.1180000E+00
       11   -1    0    0    0    0  0.00000000000E+00  0.00000000000E+00  0.65999999802E+01  0.66000000000E+01  0.51109989000E-03 0.  1.
     -623   -1    0    0    0    0  0.00000000000E+00  0.00000000000E+00  0.75637274222E-11  0.17124000000E+03  0.17124000000E+03 0. -1.
      622    2    1    2    0    0  0.34042270091E-02  0.81834837293E-03  0.65716646462E+01  0.65717340543E+01  0.29999999739E-01 0.  0.
     -611    1    3    3    0    0 -0.13120544943E-01 -0.18586597755E-02  0.25394193666E+01  0.25394539933E+01  0.51109989000E-03 0. -1.
      611    1    3    3    0    0  0.16524771952E-01  0.26770081484E-02  0.40322452796E+01  0.40322800610E+01  0.51109989000E-03 0.  1.
       11    1    1    2    0    0 -0.13686678776E-02  0.23371250226E-02  0.28131205894E-01  0.28265904785E-01  0.51109989000E-03 0.  1.
     -623    1    1    2    0    0 -0.20355591314E-02 -0.31554733953E-02  0.20412851016E-03  0.17124000004E+03  0.17124000000E+03 0. -1.
</event>
<event>
 7   1  0.1356560E+02  0.9118800E+02  0.7818608E-02  0.1180000E+00
       11   -1    0    0    0    0  0.00000000000E+00  0.00000000000E+00  0.65999999802E+01  0.66000000000E+01  0.51109989000E-03 0.  1.
     -623   -1    0    0    0    0  0.00000000000E+00  0.00000000000E+00  0.75637274222E-11  0.17124000000E+03  0.17124000000E+03 0. -1.
      622    2    1    2    0    0  0.11560450787E-02  0.21255848388E-02  0.61748408123E+01  0.61749141623E+01  0.29999999373E-01 0.  0.
     -611    1    3    3    0    0  0.49044516270E-02 -0.11349713957E-01  0.14557444378E+01  0.14557970322E+01  0.51109989000E-03 0. -1.
      611    1    3    3    0    0 -0.37484065483E-02  0.13475298796E-01  0.47190963745E+01  0.47191171300E+01  0.51109989000E-03 0.  1.
       11    1    1    2    0    0 -0.94330643249E-03 -0.22865843774E-02  0.42507833261E+00  0.42508583647E+00  0.51109989000E-03 0.  1.
     -623    1    1    2    0    0 -0.21273864621E-03  0.16099953862E-03  0.80834310179E-04  0.17124000000E+03  0.17124000000E+03 0. -1.
</event>
<event>
 7   1  0.1356560E+02  0.9118800E+02  0.7818608E-02  0.1180000E+00
       11   -1    0    0    0    0  0.00000000000E+00  0.00000000000E+00  0.65999999802E+01  0.66000000000E+01  0.51109989000E-03 0.  1.
     -623   -1    0    0    0    0  0.00000000000E+00  0.00000000000E+00  0.75637274222E-11  0.17124000000E+03  0.17124000000E+03 0.  1.
      622    2    1    2    0    0 -0.10494927185E-02 -0.56804685316E-03  0.64562189123E+01  0.64562887224E+01  0.30000000212E-01 0.  0.
     -611    1    3    3    0    0 -0.30578761838E-02  0.10214911787E-02  0.76870429503E-01  0.76939705004E-01  0.51109989000E-03 0. -1.
      611    1    3    3    0    0  0.20083834652E-02 -0.15895380318E-02  0.63793484827E+01  0.63793490174E+01  0.51109989000E-03 0.  1.
       11    1    1    2    0    0  0.11048118504E-02  0.58537679362E-03  0.14370493138E+00  0.14371127931E+00  0.51109989000E-03 0.  1.
     -623    1    1    2    0    0 -0.55319131853E-04 -0.17329940452E-04  0.76138328282E-04  0.17124000000E+03  0.17124000000E+03 0.  1.
</event>
<event>
 7   1  0.1356560E+02  0.9118800E+02  0.7818608E-02  0.1180000E+00
       11   -1    0    0    0    0  0.00000000000E+00  0.00000000000E+00  0.65999999802E+01  0.66000000000E+01  0.51109989000E-03 0. -1.
     -623   -1    0    0    0    0  0.00000000000E+00  0.00000000000E+00  0.75637274222E-11  0.17124000000E+03  0.17124000000E+03 0. -1.
      622    2    1    2    0    0 -0.11051184601E-01  0.14717349591E-01  0.35106463460E+01  0.35108227662E+01  0.29999999970E-01 0.  0.
     -611    1    3    3    0    0 -0.17838126411E-01  0.16627060595E-01  0.32126444327E+01  0.32127370217E+01  0.51109989000E-03 0.  1.
      611    1    3    3    0    0  0.67869418094E-02 -0.19097110045E-02  0.29800191324E+00  0.29808574453E+00  0.51109989000E-03 0. -1.
       11    1    1    2    0    0  0.12584900206E-01 -0.61285161983E-02  0.30891452547E+01  0.30891770109E+01  0.51109989000E-03 0. -1.
     -623    1    1    2    0    0 -0.15337156048E-02 -0.85888333932E-02  0.20837895428E-03  0.17124000022E+03  0.17124000000E+03 0. -1.
</event>
<event>
 7   1  0.1356560E+02  0.9118800E+02  0.7818608E-02  0.1180000E+00
       11   -1    0    0    0    0  0.00000000000E+00  0.00000000000E+00  0.65999999802E+01  0.66000000000E+01  0.51109989000E-03 0.  1.
     -623   -1    0    0    0    0  0.00000000000E+00  0.00000000000E+00  0.75637274222E-11  0.17124000000E+03  0.17124000000E+03 0.  1.
      622    2    1    2    0    0 -0.11481454577E-02  0.42322752395E-04  0.63758636454E+01  0.63759343272E+01  0.30000000384E-01 0.  0.
     -611    1    3    3    0    0 -0.13800187159E-01 -0.10129357036E-02  0.18085106717E+01  0.18085636793E+01  0.51109989000E-03 0. -1.
      611    1    3    3    0    0  0.12652041701E-01  0.10552584560E-02  0.45673529737E+01  0.45673706479E+01  0.51109989000E-03 0.  1.
       11    1    1    2    0    0  0.19537101978E-02  0.18359981557E-03  0.22405648916E+00  0.22406566504E+00  0.51109989000E-03 0.  1.
     -623    1    1    2    0    0 -0.80556474079E-03 -0.22592256816E-03  0.79839962984E-04  0.17124000000E+03  0.17124000000E+03 0.  1.
</event>
<event>
 7   1  0.1356560E+02  0.9118800E+02  0.7818608E-02  0.1180000E+00
       11   -1    0    0    0    0  0.00000000000E+00  0.00000000000E+00  0.65999999802E+01  0.66000000000E+01  0.51109989000E-03 0.  1.
     -623   -1    0    0    0    0  0.00000000000E+00  0.00000000000E+00  0.75637274222E-11  0.17124000000E+03  0.17124000000E+03 0. -1.
      622    2    1    2    0    0  0.70488941037E-02 -0.87100859197E-02  0.59839013350E+01  0.59839870270E+01  0.30000000277E-01 0.  0.
     -611    1    3    3    0    0  0.45176479210E-02  0.96012888963E-02  0.35311752656E+01  0.35311912454E+01  0.51109989000E-03 0. -1.
      611    1    3    3    0    0  0.25312461827E-02 -0.18311374816E-01  0.24527260694E+01  0.24527957816E+01  0.51109989000E-03 0.  1.
       11    1    1    2    0    0 -0.78268614392E-02  0.76258422330E-02  0.61591582159E+00  0.61601296556E+00  0.51109989000E-03 0.  1.
     -623    1    1    2    0    0  0.77796733577E-03  0.10842436871E-02  0.18282150466E-03  0.17124000001E+03  0.17124000000E+03 0. -1.
</event>
<event>
 7   1  0.1356560E+02  0.9118800E+02  0.7818608E-02  0.1180000E+00
       11   -1    0    0    0    0  0.00000000000E+00  0.00000000000E+00  0.65999999802E+01  0.66000000000E+01  0.51109989000E-03 0.  1.
     -623   -1    0    0    0    0  0.00000000000E+00  0.00000000000E+00  0.75637274222E-11  0.17124000000E+03  0.17124000000E+03 0.  1.
      622    2    1    2    0    0 -0.30194408382E-02 -0.18161278953E-02  0.60010636692E+01  0.60011396898E+01  0.29999999568E-01 0.  0.
     -611    1    3    3    0    0 -0.14565122036E-01  0.37470500198E-02  0.20512794074E+01  0.20513346025E+01  0.51109989000E-03 0. -1.
      611    1    3    3    0    0  0.11545681198E-01 -0.55631779151E-02  0.39497842618E+01  0.39498050873E+01  0.51109989000E-03 0.  1.
       11    1    1    2    0    0  0.21456768157E-02  0.16974294987E-02  0.59885383680E+00  0.59886030447E+00  0.51109989000E-03 0.  1.
     -623    1    1    2    0    0  0.87376402296E-03  0.11869839666E-03  0.82470829073E-04  0.17124000000E+03  0.17124000000E+03 0.  1.
</event>
<event>
 7   1  0.1356560E+02  0.9118800E+02  0.7818608E-02  0.1180000E+00
       11   -1    0    0    0    0  0.00000000000E+00  0.00000000000E+00  0.65999999802E+01  0.66000000000E+01  0.51109989000E-03 0.  1.
     -623   -1    0    0    0    0  0.00000000000E+00  0.00000000000E+00  0.75637274222E-11  0.17124000000E+03  0.17124000000E+03 0.  1.
      622    2    1    2    0    0  0.84618888400E-04 -0.38605030773E-02  0.65419695984E+01  0.65420395242E+01  0.30000000036E-01 0.  0.
     -611    1    3    3    0    0 -0.72068341543E-02  0.63201596048E-02  0.81974294535E+00  0.81979914647E+00  0.51109989000E-03 0. -1.
      611    1    3    3    0    0  0.72914530427E-02 -0.10180662682E-01  0.57222266530E+01  0.57222403777E+01  0.51109989000E-03 0.  1.
       11    1    1    2    0    0  0.12004008643E-02  0.35291945058E-02  0.57838213911E-01  0.57960472631E-01  0.51109989000E-03 0.  1.
     -623    1    1    2    0    0 -0.12850197523E-02  0.33130857145E-03  0.19217005219E-03  0.17124000001E+03  0.17124000000E+03 0.  1.
</event>
<event>
 7   1  0.1356560E+02  0.9118800E+02  0.7818608E-02  0.1180000E+00
       11   -1    0    0    0    0  0.00000000000E+00  0.00000000000E+00  0.65999999802E+01  0.66000000000E+01  0.51109989000E-03 0. -1.
     -623   -1    0    0    0    0  0.00000000000E+00  0.00000000000E+00  0.75637274222E-11  0.17124000000E+03  0.17124000000E+03 0. -1.
      622    2    1    2    0    0  0.20677966693E-03  0.10011015340E-02  0.65226628012E+01  0.65227318712E+01  0.29999999671E-01 0.  0.
     -611    1    3    3    0    0 -0.11570303169E-01 -0.20842240683E-02  0.51905685710E+01  0.51905819103E+01  0.51109989000E-03 0. -1.
      611    1    3    3    0    0  0.11777082835E-01  0.30853256023E-02  0.13320942302E+01  0.13321499609E+01  0.51109989000E-03 0.  1.
       11    1    1    2    0    0  0.31834770819E-03 -0.35370779222E-02  0.77184762444E-01  0.77268111418E-01  0.51109989000E-03 0. -1.
     -623    1    1    2    0    0 -0.52512737494E-03  0.25359763873E-02  0.15241880762E-03  0.17124000002E+03  0.17124000000E+03 0. -1.
</event>
<event>
 7   1  0.1356560E+02  0.9118800E+02  0.7818608E-02  0.1180000E+00
       11   -1    0    0    0    0  0.00000000000E+00  0.00000000000E+00  0.65999999802E+01  0.66000000000E+01  0.51109989000E-03 0. -1.
     -623   -1    0    0    0    0  0.00000000000E+00  0.00000000000E+00  0.75637274222E-11  0.17124000000E+03  0.17124000000E+03 0.  1.
      622    2    1    2    0    0 -0.18592004568E-02 -0.34326984381E-03  0.65910372799E+01  0.65911058252E+01  0.30000003709E-01 0.  0.
     -611    1    3    3    0    0  0.42912093278E-02 -0.31263876671E-02  0.62452415809E+01  0.62452438586E+01  0.51109989000E-03 0. -1.
      611    1    3    3    0    0 -0.61504097846E-02  0.27831178233E-02  0.34579569901E+00  0.34586196663E+00  0.51109989000E-03 0.  1.
       11    1    1    2    0    0  0.16972832823E-02 -0.26992205316E-03  0.87115709147E-02  0.88941733374E-02  0.51109989000E-03 0. -1.
     -623    1    1    2    0    0  0.16191717445E-03  0.61319189698E-03  0.25112935465E-03  0.17124000000E+03  0.17124000000E+03 0.  1.
</event>
<event>
 7   1  0.1356560E+02  0.9118800E+02  0.7818608E-02  0.1180000E+00
       11   -1    0    0    0    0  0.00000000000E+00  0.00000000000E+00  0.65999999802E+01  0.66000000000E+01  0.51109989000E-03 0.  1.
     -623   -1    0    0    0    0  0.00000000000E+00  0.00000000000E+00  0.75637274222E-11  0.17124000000E+03  0.17124000000E+03 0. -1.
      622    2    1    2    0    0 -0.31547541193E-03 -0.60538676395E-02  0.65801746703E+01  0.65802458496E+01  0.30000000004E-01 0.  0.
     -611    1    3    3    0    0 -0.14866908163E-01 -0.40813492947E-03  0.29347156328E+01  0.29347533624E+01  0.51109989000E-03 0.  1.
      611    1    3    3    0    0  0.14551432751E-01 -0.56457327100E-02  0.36454590375E+01  0.36454924872E+01  0.51109989000E-03 0. -1.
       11    1    1    2    0    0  0.16804056828E-02 -0.34247076061E-02  0.19375301109E-01  0.19753883203E-01  0.51109989000E-03 0.  1.
     -623    1    1    2    0    0 -0.13649302706E-02  0.94785752439E-02  0.45000992339E-03  0.17124000027E+03  0.17124000000E+03 0. -1.
</event>
<event>
 7   1  0.1356560E+02  0.9118800E+02  0.7818608E-02  0.1180000E+00
       11   -1    0    0    0    0  0.00000000000E+00  0.00000000000E+00  0.65999999802E+01  0.66000000000E+01  0.51109989000E-03 0.  1.
     -623   -1    0    0    0    0  0.00000000000E+00  0.00000000000E+00  0.75637274222E-11  0.17124000000E+03  0.17124000000E+03 0.  1.
      622    2    1    2    0    0 -0.53003502364E-03  0.12498223848E-02  0.65231578558E+01  0.65232269817E+01  0.30000000059E-01 0.  0.
     -611    1    3    3    0    0 -0.37701058589E-02  0.62782963922E-02  0.62451144718E+01  0.62451187865E+01  0.51109989000E-03 0.  1.
      611    1    3    3    0    0  0.32400708353E-02 -0.50284740075E-02  0.27804338400E+00  0.27810819517E+00  0.51109989000E-03 0. -1.
       11    1    1    2    0    0  0.53556751446E-03 -0.13930661798E-02  0.76756805478E-01  0.76773015287E-01  0.51109989000E-03 0.  1.
     -623    1    1    2    0    0 -0.55324908295E-05  0.14324379513E-03  0.85316000771E-04  0.17124000000E+03  0.17124000000E+03 0.  1.
</event>
<event>
 7   1  0.1356560E+02  0.9118800E+02  0.7818608E-02  0.1180000E+00
       11   -1    0    0    0    0  0.00000000000E+00  0.00000000000E+00  0.65999999802E+01  0.66000000000E+01  0.51109989000E-03 0. -1.
     -623   -1    0    0    0    0  0.00000000000E+00  0.00000000000E+00  0.75637274222E-11  0.17124000000E+03  0.17124000000E+03 0.  1.
      622    2    1    2    0    0  0.28381486842E-01  0.85562941135E-02  0.47530465265E+01  0.47532336364E+01  0.30000000428E-01 0.  0.
     -611    1    3    3    0    0 -0.36828802751E-02 -0.21788345610E-02  0.15992292251E+01  0.15992350316E+01  0.51109989000E-03 0.  1.
      611    1    3    3    0    0  0.32064367117E-01  0.10735128675E-01  0.31538173015E+01  0.31539986048E+01  0.51109989000E-03 0. -1.
       11    1    1    2    0    0 -0.26676206575E-01 -0.53125347054E-02  0.18465659347E+01  0.18467663240E+01  0.51109989000E-03 0. -1.
     -623    1    1    2    0    0 -0.17052802665E-02 -0.32437594081E-02  0.38751905003E-03  0.17124000004E+03  0.17124000000E+03 0.  1.
</event>
<event>
 7   1  0.1356560E+02  0.9118800E+02  0.7818608E-02  0.1180000E+00
       11   -1    0    0    0    0  0.00000000000E+00  0.00000000000E+00  0.65999999802E+01  0.66000000000E+01  0.51109989000E-03 0. -1.
     -623   -1    0    0    0    0  0.00000000000E+00  0.00000000000E+00  0.75637274222E-11  0.17124000000E+03  0.17124000000E+03 0. -1.
      622    2    1    2    0    0 -0.54277701884E-03  0.39553432010E-03  0.65898128015E+01  0.65898811226E+01  0.30000000358E-01 0.  0.
     -611    1    3    3    0    0 -0.11069544846E-01 -0.45776942507E-02  0.53528357553E+01  0.53528491829E+01  0.51109989000E-03 0. -1.
      611    1    3    3    0    0  0.10526767827E-01  0.49732285708E-02  0.12369770462E+01  0.12370319397E+01  0.51109989000E-03 0.  1.
       11    1    1    2    0    0  0.69533646563E-03 -0.56795669187E-03  0.10066002049E-01  0.10118877801E-01  0.51109989000E-03 0. -1.
     -623    1    1    2    0    0 -0.15255944678E-03  0.17242237175E-03  0.12117725936E-03  0.17124000000E+03  0.17124000000E+03 0. -1.
</event>
<event>
 7   1  0.1356560E+02  0.9118800E+02  0.7818608E-02  0.1180000E+00
       11   -1    0    0    0    0  0.00000000000E+00  0.00000000000E+00  0.65999999802E+01  0.66000000000E+01  0.51109989000E-03 0. -1.
     -623   -1    0    0    0    0  0.00000000000E+00  0.00000000000E+00  0.75637274222E-11  0.17124000000E+03  0.17124000000E+03 0. -1.
      622    2    1    2    0    0 -0.68594027633E-02  0.94839601810E-02  0.22674215113E+01  0.22676501729E+01  0.30000000378E-01 0.  0.
     -611    1    3    3    0    0 -0.27522336328E-02 -0.10914688688E-01  0.70540444140E+00  0.70549443115E+00  0.51109989000E-03 0.  1.
      611    1    3    3    0    0 -0.41071691305E-02  0.20398648869E-01  0.15620170699E+01  0.15621557418E+01  0.51109989000E-03 0. -1.
       11    1    1    2    0    0  0.49165023599E-02 -0.11970814855E-01  0.43323304381E+01  0.43323497964E+01  0.51109989000E-03 0. -1.
     -623    1    1    2    0    0  0.19429004038E-02  0.24868546745E-02  0.24802943495E-03  0.17124000003E+03  0.17124000000E+03 0. -1.
</event>
<event>
 7   1  0.1356560E+02  0.9118800E+02  0.7818608E-02  0.1180000E+00
       11   -1    0    0    0    0  0.00000000000E+00  0.00000000000E+00  0.65999999802E+01  0.66000000000E+01  0.51109989000E-03 0. -1.
     -623   -1    0    0    0    0  0.00000000000E+00  0.00000000000E+00  0.75637274222E-11  0.17124000000E+03  0.17124000000E+03 0.  1.
      622    2    1    2    0    0  0.36343432929E-02 -0.19392376251E-01  0.32397315335E+01  0.32399305057E+01  0.30000000019E-01 0.  0.
     -611    1    3    3    0    0 -0.84833823472E-02 -0.39231439237E-02  0.33041050254E+00  0.33054306867E+00  0.51109989000E-03 0.  1.
      611    1    3    3    0    0  0.12117725640E-01 -0.15469232327E-01  0.29093210309E+01  0.29093874370E+01  0.51109989000E-03 0. -1.
       11    1    1    2    0    0 -0.23947331938E-02  0.34066955325E-01  0.33598952652E+01  0.33600688604E+01  0.51109989000E-03 0. -1.
     -623    1    1    2    0    0 -0.12396100992E-02 -0.14674579074E-01  0.37318128776E-03  0.17124000063E+03  0.17124000000E+03 0.  1.
</event>
<event>
 7   1  0.1356560E+02  0.9118800E+02  0.7818608E-02  0.1180000E+00
       11   -1    0    0    0    0  0.00000000000E+00  0.00000000000E+00  0.65999999802E+01  0.66000000000E+01  0.51109989000E-03 0.  1.
     -623   -1    0    0    0    0  0.00000000000E+00  0.00000000000E+00  0.75637274222E-11  0.17124000000E+03  0.17124000000E+03 0. -1.
      622    2    1    2    0    0 -0.20638801663E-03 -0.76350354397E-03  0.61664823557E+01  0.61665553812E+01  0.29999999919E-01 0.  0.
     -611    1    3    3    0    0  0.10749182304E-01 -0.62151694973E-02  0.48533211833E+01  0.48533370935E+01  0.51109989000E-03 0.  1.
      611    1    3    3    0    0 -0.10955570321E-01  0.54516659533E-02  0.13131611724E+01  0.13132182877E+01  0.51109989000E-03 0. -1.
       11    1    1    2    0    0  0.22577136247E-03  0.35140321132E-03  0.43344412183E+00  0.43344462441E+00  0.51109989000E-03 0.  1.
     -623    1    1    2    0    0 -0.19383345826E-04  0.41210033227E-03  0.73508751464E-04  0.17124000000E+03  0.17124000000E+03 0. -1.
</event>
<event>
 7   1  0.1356560E+02  0.9118800E+02  0.7818608E-02  0.1180000E+00
       11   -1    0    0    0    0  0.00000000000E+00  0.00000000000E+00  0.65999999802E+01  0.66000000000E+01  0.51109989000E-03 0.  1.
     -623   -1    0    0    0    0  0.00000000000E+00  0.00000000000E+00  0.75637274222E-11  0.17124000000E+03  0.17124000000E+03 0.  1.
      622    2    1    2    0    0  0.82153545670E-02  0.12270916490E-01  0.46795191535E+01  0.46796386159E+01  0.29999999770E-01 0.  0.
     -611    1    3    3    0    0 -0.10000369401E-01 -0.18835450441E-02  0.16629284544E+01  0.16629596690E+01  0.51109989000E-03 0. -1.
      611    1    3    3    0    0  0.18215723968E-01  0.14154461534E-01  0.30165906991E+01  0.30166789469E+01  0.51109989000E-03 0.  1.
       11    1    1    2    0    0 -0.74151071238E-02 -0.11575350851E-01  0.19203121087E+01  0.19203613797E+01  0.51109989000E-03 0.  1.
     -623    1    1    2    0    0 -0.80024744334E-03 -0.69556563908E-03  0.16871697133E-03  0.17124000000E+03  0.17124000000E+03 0.  1.
</event>
<event>
 7   1  0.1356560E+02  0.9118800E+02  0.7818608E-02  0.1180000E+00
       11   -1    0    0    0    0  0.00000000000E+00  0.00000000000E+00  0.65999999802E+01  0.66000000000E+01  0.51109989000E-03 0.  1.
     -623   -1    0    0    0    0  0.00000000000E+00  0.00000000000E+00  0.75637274222E-11  0.17124000000E+03  0.17124000000E+03 0.  1.
      622    2    1    2    0    0  0.90507986796E-03 -0.13322238865E-02  0.65986103652E+01  0.65986787576E+01  0.29999999657E-01 0.  0.
     -611    1    3    3    0    0  0.72531718305E-02  0.11187703902E-01  0.45842294795E+01  0.45842488976E+01  0.51109989000E-03 0.  1.
      611    1    3    3    0    0 -0.63480919625E-02 -0.12519927788E-01  0.20143808857E+01  0.20144298600E+01  0.51109989000E-03 0. -1.
       11    1    1    2    0    0 -0.75899679335E-03  0.22181101854E-03  0.92691387473E-03  0.13212375596E-02  0.51109989000E-03 0.  1.
     -623    1    1    2    0    0 -0.14608307463E-03  0.11104128681E-02  0.46270056746E-03  0.17124000000E+03  0.17124000000E+03 0.  1.
</event>
<event>
 7   1  0.1356560E+02  0.9118800E+02  0.7818608E-02  0.1180000E+00
       11   -1    0    0    0    0  0.00000000000E+00  0.00000000000E+00  0.65999999802E+01  0.66000000000E+01  0.51109989000E-03 0.  1.
     -623   -1    0    0    0    0  0.00000000000E+00  0.00000000000E+00  0.75637274222E-11  0.17124000000E+03  0.17124000000E+03 0.  1.
      622    2    1    2    0    0  0.30442356559E-02 -0.11405475944E-02  0.64487713152E+01  0.64488419150E+01  0.30000000510E-01 0.  0.
     -611    1    3    3    0    0  0.49726720767E-02  0.14004969157E-01  0.30399529209E+01  0.30399892909E+01  0.51109989000E-03 0. -1.
      611    1    3    3    0    0 -0.19284364208E-02 -0.15145516751E-01  0.34088183943E+01  0.34088526240E+01  0.51109989000E-03 0.  1.
       11    1    1    2    0    0 -0.56917853384E-03 -0.57409332820E-02  0.15104693383E+00  0.15115792974E+00  0.51109989000E-03 0.  1.
     -623    1    1    2    0    0 -0.24750571217E-02  0.68814808754E-02  0.18173212485E-03  0.17124000016E+03  0.17124000000E+03 0.  1.
</event>
<event>
 7   1  0.1356560E+02  0.9118800E+02  0.7818608E-02  0.1180000E+00
       11   -1    0    0    0    0  0.00000000000E+00  0.00000000000E+00  0.65999999802E+01  0.66000000000E+01  0.51109989000E-03 0. -1.
     -623   -1    0    0    0    0  0.00000000000E+00  0.00000000000E+00  0.75637274222E-11  0.17124000000E+03  0.17124000000E+03 0.  1.
      622    2    1    2    0    0  0.82044992827E-02  0.11184097857E-03  0.65908932504E+01  0.65909666336E+01  0.30000000130E-01 0.  0.
     -611    1    3    3    0    0  0.24410058894E-02 -0.12573492831E-01  0.15147940088E+01  0.15148482437E+01  0.51109989000E-03 0.  1.
      611    1    3    3    0    0  0.57634933934E-02  0.12685333809E-01  0.50760992416E+01  0.50761183898E+01  0.51109989000E-03 0. -1.
       11    1    1    2    0    0 -0.34559567731E-03 -0.59526931818E-03  0.89924071901E-02  0.90331828335E-02  0.51109989000E-03 0. -1.
     -623    1    1    2    0    0 -0.78589036084E-02  0.48342833979E-03  0.11432006489E-03  0.17124000018E+03  0.17124000000E+03 0.  1.
</event>
<event>
 7   1  0.1356560E+02  0.9118800E+02  0.7818608E-02  0.1180000E+00
       11   -1    0    0    0    0  0.00000000000E+00  0.00000000000E+00  0.65999999802E+01  0.66000000000E+01  0.51109989000E-03 0.  1.
     -623   -1    0    0    0    0  0.00000000000E+00  0.00000000000E+00  0.75637274222E-11  0.17124000000E+03  0.17124000000E+03 0.  1.
      622    2    1    2    0    0  0.71492587717E-04 -0.35420272523E-02  0.43654136098E+01  0.43655181291E+01  0.29999999716E-01 0.  0.
     -611    1    3    3    0    0 -0.91510125103E-03  0.19102680326E-02  0.42165467361E+01  0.42165472991E+01  0.51109989000E-03 0.  1.
      611    1    3    3    0    0  0.98659383875E-03 -0.54522952849E-02  0.14886687372E+00  0.14897083005E+00  0.51109989000E-03 0. -1.
       11    1    1    2    0    0  0.19771885000E-01  0.93553634485E-02  0.22343735003E+01  0.22344806220E+01  0.51109989000E-03 0.  1.
     -623    1    1    2    0    0 -0.19843377589E-01 -0.58133361965E-02  0.21286983039E-03  0.17124000125E+03  0.17124000000E+03 0.  1.
</event>
<event>
 7   1  0.1356560E+02  0.9118800E+02  0.7818608E-02  0.1180000E+00
       11   -1    0    0    0    0  0.00000000000E+00  0.00000000000E+00  0.65999999802E+01  0.66000000000E+01  0.51109989000E-03 0. -1.
     -623   -1    0    0    0    0  0.00000000000E+00  0.00000000000E+00  0.75637274222E-11  0.17124000000E+03  0.17124000000E+03 0. -1.
      622    2    1    2    0    0  0.80090658102E-02  0.17299594165E-01  0.65339686905E+01  0.65340653708E+01  0.30000002911E-01 0.  0.
     -611    1    3    3    0    0 -0.38758066364E-02  0.22298291812E-01  0.41221158125E+01  0.41221779763E+01  0.51109989000E-03 0. -1.
      611    1    3    3    0    0  0.11884872447E-01 -0.49986976476E-02  0.24118528781E+01  0.24118873945E+01  0.51109989000E-03 0.  1.
       11    1    1    2    0    0 -0.92738632650E-02 -0.14542463667E-01  0.63636629078E-01  0.65934585559E-01  0.51109989000E-03 0. -1.
     -623    1    1    2    0    0  0.12647974547E-02 -0.27571304979E-02  0.23946605961E-02  0.17124000004E+03  0.17124000000E+03 0. -1.
</event>
<event>
 7   1  0.1356560E+02  0.9118800E+02  0.7818608E-02  0.1180000E+00
       11   -1    0    0    0    0  0.00000000000E+00  0.00000000000E+00  0.65999999802E+01  0.66000000000E+01  0.51109989000E-03 0.  1.
     -623   -1    0    0    0    0  0.00000000000E+00  0.00000000000E+00  0.75637274222E-11  0.17124000000E+03  0.17124000000E+03 0.  1.
      622    2    1    2    0    0 -0.14739000246E-02  0.89292207135E-03  0.65848773622E+01  0.65849459257E+01  0.29999999693E-01 0.  0.
     -611    1    3    3    0    0  0.80299432035E-02  0.67275482653E-02  0.95663645295E+00  0.95669394491E+00  0.51109989000E-03 0. -1.
      611    1    3    3    0    0 -0.95038432281E-02 -0.58346261940E-02  0.56282409093E+01  0.56282519808E+01  0.51109989000E-03 0.  1.
       11    1    1    2    0    0  0.36201813273E-03  0.32964512535E-03  0.15037419735E-01  0.15054067172E-01  0.51109989000E-03 0. -1.
     -623    1    1    2    0    0  0.11118818918E-02 -0.12225671965E-02  0.85199187897E-04  0.17124000001E+03  0.17124000000E+03 0.  1.
</event>
<event>
 7   1  0.1356560E+02  0.9118800E+02  0.7818608E-02  0.1180000E+00
       11   -1    0    0    0    0  0.00000000000E+00  0.00000000000E+00  0.65999999802E+01  0.66000000000E+01  0.51109989000E-03 0. -1.
     -623   -1    0    0    0    0  0.00000000000E+00  0.00000000000E+00  0.75637274222E-11  0.17124000000E+03  0.17124000000E+03 0.  1.
      622    2    1    2    0    0  0.45919441724E-03  0.89928874839E-03  0.65368324021E+01  0.65369013204E+01  0.30000000298E-01 0.  0.
     -611    1    3    3    0    0  0.10702114434E-01 -0.37147739418E-02  0.11233256804E+01  0.11233829179E+01  0.51109989000E-03 0.  1.
      611    1    3    3    0    0 -0.10242920017E-01  0.46140626902E-02  0.54135067217E+01  0.54135184025E+01  0.51109989000E-03 0. -1.
       11    1    1    2    0    0 -0.20952910933E-03 -0.74710901838E-03  0.63091839960E-01  0.63098681183E-01  0.51109989000E-03 0. -1.
     -623    1    1    2    0    0 -0.24966530785E-03 -0.15217972996E-03  0.75740014190E-04  0.17124000000E+03  0.17124000000E+03 0.  1.
</event>
<event>
 7   1  0.1356560E+02  0.9118800E+02  0.7818608E-02  0.1180000E+00
       11   -1    0    0    0    0  0.00000000000E+00  0.00000000000E+00  0.65999999802E+01  0.66000000000E+01  0.51109989000E-03 0.  1.
     -623   -1    0    0    0    0  0.00000000000E+00  0.00000000000E+00  0.75637274222E-11  0.17124000000E+03  0.17124000000E+03 0. -1.
      622    2    1    2    0    0  0.35861788707E-03 -0.42288537279E-03  0.65878574778E+01  0.65879258082E+01  0.29999998653E-01 0.  0.
     -611    1    3    3    0    0 -0.25504259539E-02  0.41474593081E-02  0.18148436048E+00  0.18155037982E+00  0.51109989000E-03 0. -1.
      611    1    3    3    0    0  0.29090438409E-02 -0.45703446808E-02  0.64063731173E+01  0.64063754284E+01  0.51109989000E-03 0.  1.
       11    1    1    2    0    0 -0.93750976885E-04  0.10793422458E-02  0.12014619357E-01  0.12074190255E-01  0.51109989000E-03 0.  1.
     -623    1    1    2    0    0 -0.26486691018E-03 -0.65645687306E-03  0.12788308917E-03  0.17124000000E+03  0.17124000000E+03 0. -1.
</event>
<event>
 7   1  0.1356560E+02  0.9118800E+02  0.7818608E-02  0.1180000E+00
       11   -1    0    0    0    0  0.00000000000E+00  0.00000000000E+00  0.65999999802E+01  0.66000000000E+01  0.51109989000E-03 0. -1.
     -623   -1    0    0    0    0  0.00000000000E+00  0.00000000000E+00  0.75637274222E-11  0.17124000000E+03  0.17124000000E+03 0. -1.
      622    2    1    2    0    0  0.44831782030E-03  0.21393502915E-02  0.64896451005E+01  0.64897148094E+01  0.30000000140E-01 0.  0.
     -611    1    3    3    0    0 -0.12287808433E-01  0.36643735452E-02  0.49357804388E+01  0.49357971209E+01  0.51109989000E-03 0.  1.
      611    1    3    3    0    0  0.12736126253E-01 -0.15250232537E-02  0.15538646617E+01  0.15539176885E+01  0.51109989000E-03 0. -1.
       11    1    1    2    0    0 -0.17281286748E-02 -0.26496767599E-06  0.11027044541E+00  0.11028517027E+00  0.51109989000E-03 0. -1.
     -623    1    1    2    0    0  0.12798108549E-02 -0.21390853245E-02  0.84432218387E-04  0.17124000002E+03  0.17124000000E+03 0. -1.
</event>
<event>
 7   1  0.1356560E+02  0.9118800E+02  0.7818608E-02  0.1180000E+00
       11   -1    0    0    0    0  0.00000000000E+00  0.00000000000E+00  0.65999999802E+01  0.66000000000E+01  0.51109989000E-03 0.  1.
     -623   -1    0    0    0    0  0.00000000000E+00  0.00000000000E+00  0.75637274222E-11  0.17124000000E+03  0.17124000000E+03 0.  1.
      622    2    1    2    0    0  0.29624060695E-02 -0.90481631958E-02  0.61015765981E+01  0.61016577770E+01  0.30000000397E-01 0.  0.
     -611    1    3    3    0    0  0.22488988075E-02 -0.10867584836E-01  0.76374837189E+00  0.76382916855E+00  0.51109989000E-03 0. -1.
      611    1    3    3    0    0  0.71350726201E-03  0.18194216398E-02  0.53378282262E+01  0.53378286084E+01  0.51109989000E-03 0.  1.
       11    1    1    2    0    0 -0.38331453841E-02  0.75167802846E-02  0.49827051643E+00  0.49834221550E+00  0.51109989000E-03 0.  1.
     -623    1    1    2    0    0  0.87073931436E-03  0.15313829108E-02  0.15286732309E-03  0.17124000001E+03  0.17124000000E+03 0.  1.
</event>
<event>
 7   1  0.1356560E+02  0.9118800E+02  0.7818608E-02  0.1180000E+00
       11   -1    0    0    0    0  0.00000000000E+00  0.00000000000E+00  0.65999999802E+01  0.66000000000E+01  0.51109989000E-03 0.  1.
     -623   -1    0    0    0    0  0.00000000000E+00  0.00000000000E+00  0.75637274222E-11  0.17124000000E+03  0.17124000000E+03 0. -1.
      622    2    1    2    0    0  0.32486024480E-02 -0.25649528575E-01  0.24811550582E+01  0.24814711110E+01  0.29999999834E-01 0.  0.
     -611    1    3    3    0    0 -0.54368609232E-02 -0.29423329298E-01  0.17726688147E+01  0.17729213969E+01  0.51109989000E-03 0.  1.
      611    1    3    3    0    0  0.86854633712E-02  0.37738007234E-02  0.70848624352E+00  0.70854971408E+00  0.51109989000E-03 0. -1.
       11    1    1    2    0    0 -0.15591271460E-02  0.24357539926E-01  0.41184565206E+01  0.41185288750E+01  0.51109989000E-03 0.  1.
     -623    1    1    2    0    0 -0.16894753021E-02  0.12919886488E-02  0.38840099766E-03  0.17124000001E+03  0.17124000000E+03 0. -1.
</event>
<event>
 7   1  0.1356560E+02  0.9118800E+02  0.7818608E-02  0.1180000E+00
       11   -1    0    0    0    0  0.00000000000E+00  0.00000000000E+00  0.65999999802E+01  0.66000000000E+01  0.51109989000E-03 0.  1.
     -623   -1    0    0    0    0  0.00000000000E+00  0.00000000000E+00  0.75637274222E-11  0.17124000000E+03  0.17124000000E+03 0.  1.
      622    2    1    2    0    0  0.18390274738E-02  0.57290996682E-03  0.65540464154E+01  0.65541153580E+01  0.29999999330E-01 0.  0.
     -611    1    3    3    0    0 -0.18282589990E-02  0.72792908148E-04  0.26552789393E-01  0.26620662603E-01  0.51109989000E-03 0. -1.
      611    1    3    3    0    0  0.36672864728E-02  0.50011705867E-03  0.65274936260E+01  0.65274946954E+01  0.51109989000E-03 0.  1.
       11    1    1    2    0    0 -0.99891333262E-03  0.11167779446E-02  0.45857313018E-01  0.45884631426E-01  0.51109989000E-03 0.  1.
     -623    1    1    2    0    0 -0.84011414119E-03 -0.16896879115E-02  0.96251609268E-04  0.17124000001E+03  0.17124000000E+03 0.  1.
</event>
<event>
 7   1  0.1356560E+02  0.9118800E+02  0.7818608E-02  0.1180000E+00
       11   -1    0    0    0    0  0.00000000000E+00  0.00000000000E+00  0.65999999802E+01  0.66000000000E+01  0.51109989000E-03 0. -1.
     -623   -1    0    0    0    0  0.00000000000E+00  0.00000000000E+00  0.75637274222E-11  0.17124000000E+03  0.17124000000E+03 0. -1.
      622    2    1    2    0    0  0.11316563619E-02 -0.15086239837E-02  0.65645457815E+01  0.65646146021E+01  0.30000001315E-01 0.  0.
     -611    1    3    3    0    0  0.11154458535E-01 -0.33545146448E-02  0.11479031328E+01  0.11479623418E+01  0.51109989000E-03 0.  1.
      611    1    3    3    0    0 -0.10022802173E-01  0.18458906611E-02  0.54166426487E+01  0.54166522603E+01  0.51109989000E-03 0. -1.
       11    1    1    2    0    0 -0.20947685746E-03  0.72317129073E-03  0.35373694773E-01  0.35385397585E-01  0.51109989000E-03 0. -1.
     -623    1    1    2    0    0 -0.92217950392E-03  0.78545269251E-03  0.80507931827E-04  0.17124000000E+03  0.17124000000E+03 0. -1.
</event>
<event>
 7   1  0.1356560E+02  0.9118800E+02  0.7818608E-02  0.1180000E+00
       11   -1    0    0    0    0  0.00000000000E+00  0.00000000000E+00  0.65999999802E+01  0.66000000000E+01  0.51109989000E-03 0.  1.
     -623   -1    0    0    0    0  0.00000000000E+00  0.00000000000E+00  0.75637274222E-11  0.17124000000E+03  0.17124000000E+03 0. -1.
      622    2    1    2    0    0 -0.17360308612E-02  0.24099753946E-03  0.64627676337E+01  0.64628375006E+01  0.30000000193E-01 0.  0.
     -611    1    3    3    0    0  0.92574209878E-02  0.31258653301E-03  0.54863829467E+01  0.54863907896E+01  0.51109989000E-03 0.  1.
      611    1    3    3    0    0 -0.10993451849E-01 -0.71588993546E-04  0.97638468705E+00  0.97644671101E+00  0.51109989000E-03 0. -1.
       11    1    1    2    0    0  0.19153880056E-02 -0.26683762246E-03  0.13714791516E+00  0.13716250133E+00  0.51109989000E-03 0.  1.
     -623    1    1    2    0    0 -0.17935714441E-03  0.25840082985E-04  0.84433393258E-04  0.17124000000E+03  0.17124000000E+03 0. -1.
</event>
<event>
 7   1  0.1356560E+02  0.9118800E+02  0.7818608E-02  0.1180000E+00
       11   -1    0    0    0    0  0.00000000000E+00  0.00000000000E+00  0.65999999802E+01  0.66000000000E+01  0.51109989000E-03 0.  1.
     -623   -1    0    0    0    0  0.00000000000E+00  0.00000000000E+00  0.75637274222E-11  0.17124000000E+03  0.17124000000E+03 0. -1.
      622    2    1    2    0    0 -0.47026521641E-02 -0.52371918695E-02  0.56137636888E+01  0.56138482610E+01  0.30000000232E-01 0.  0.
     -611    1    3    3    0    0  0.45275135695E-02 -0.31815287246E-02  0.50637566005E+01  0.50637596498E+01  0.51109989000E-03 0.  1.
      611    1    3    3    0    0 -0.92301657337E-02 -0.20556631449E-02  0.55000708828E+00  0.55008861113E+00  0.51109989000E-03 0. -1.
       11    1    1    2    0    0  0.52940251873E-02  0.48613723679E-02  0.98612541512E+00  0.98615174046E+00  0.51109989000E-03 0.  1.
     -623    1    1    2    0    0 -0.59137302287E-03  0.37581950151E-03  0.11087916416E-03  0.17124000000E+03  0.17124000000E+03 0. -1.
</event>
<event>
 7   1  0.1356560E+02  0.9118800E+02  0.7818608E-02  0.1180000E+00
       11   -1    0    0    0    0  0.00000000000E+00  0.00000000000E+00  0.65999999802E+01  0.66000000000E+01  0.51109989000E-03 0. -1.
     -623   -1    0    0    0    0  0.00000000000E+00  0.00000000000E+00  0.75637274222E-11  0.17124000000E+03  0.17124000000E+03 0.  1.
      622    2    1    2    0    0 -0.16425700490E-01  0.73513708065E-02  0.64305109734E+01  0.64306061320E+01  0.29999999922E-01 0.  0.
     -611    1    3    3    0    0 -0.23929178572E-01  0.78488890319E-02  0.57139295279E+01  0.57139850474E+01  0.51109989000E-03 0. -1.
      611    1    3    3    0    0  0.75034780826E-02 -0.49751822540E-03  0.71658144547E+00  0.71662108462E+00  0.51109989000E-03 0.  1.
       11    1    1    2    0    0  0.97483063116E-02 -0.92010083359E-02  0.16886173438E+00  0.16939372654E+00  0.51109989000E-03 0. -1.
     -623    1    1    2    0    0  0.66773941783E-02  0.18496375295E-02  0.62727233723E-03  0.17124000014E+03  0.17124000000E+03 0.  1.
</event>
<event>
 7   1  0.1356560E+02  0.9118800E+02  0.7818608E-02  0.1180000E+00
       11   -1    0    0    0    0  0.00000000000E+00  0.00000000000E+00  0.65999999802E+01  0.66000000000E+01  0.51109989000E-03 0.  1.
     -623   -1    0    0    0    0  0.00000000000E+00  0.00000000000E+00  0.75637274222E-11  0.17124000000E+03  0.17124000000E+03 0. -1.
      622    2    1    2    0    0 -0.13694689830E-02  0.11535483777E-02  0.65941555155E+01  0.65942240005E+01  0.30000000197E-01 0.  0.
     -611    1    3    3    0    0 -0.12847935149E-01  0.11448625192E-02  0.53464028213E+01  0.53464184057E+01  0.51109989000E-03 0. -1.
      611    1    3    3    0    0  0.11478466166E-01  0.86858585297E-05  0.12477526942E+01  0.12478055948E+01  0.51109989000E-03 0.  1.
       11    1    1    2    0    0  0.24053239947E-02  0.15225592026E-02  0.49996875308E-02  0.57759733853E-02  0.51109989000E-03 0.  1.
     -623    1    1    2    0    0 -0.10358550117E-02 -0.26761075804E-02  0.84477719727E-03  0.17124000003E+03  0.17124000000E+03 0. -1.
</event>
<event>
 7   1  0.1356560E+02  0.9118800E+02  0.7818608E-02  0.1180000E+00
       11   -1    0    0    0    0  0.00000000000E+00  0.00000000000E+00  0.65999999802E+01  0.66000000000E+01  0.51109989000E-03 0.  1.
     -623   -1    0    0    0    0  0.00000000000E+00  0.00000000000E+00  0.75637274222E-11  0.17124000000E+03  0.17124000000E+03 0.  1.
      622    2    1    2    0    0 -0.21800388377E-01 -0.50106443443E-02  0.52445279979E+01  0.52446615033E+01  0.29999999680E-01 0.  0.
     -611    1    3    3    0    0  0.21001103771E-02 -0.10766166045E-01  0.24747188656E+01  0.24747432283E+01  0.51109989000E-03 0. -1.
      611    1    3    3    0    0 -0.23900498754E-01  0.57555217008E-02  0.27698091323E+01  0.27699182751E+01  0.51109989000E-03 0.  1.
       11    1    1    2    0    0  0.20747044973E-01  0.27074974571E-02  0.13551768726E+01  0.13553384772E+01  0.51109989000E-03 0.  1.
     -623    1    1    2    0    0  0.10533434036E-02  0.23031468873E-02  0.29510916359E-03  0.17124000002E+03  0.17124000000E+03 0.  1.
</event>
<event>
 7   1  0.1356560E+02  0.9118800E+02  0.7818608E-02  0.1180000E+00
       11   -1    0    0    0    0  0.00000000000E+00  0.00000000000E+00  0.65999999802E+01  0.66000000000E+01  0.51109989000E-03 0. -1.
     -623   -1    0    0    0    0  0.00000000000E+00  0.00000000000E+00  0.75637274222E-11  0.17124000000E+03  0.17124000000E+03 0.  1.
      622    2    1    2    0    0 -0.29861757903E-01 -0.43696713284E-01  0.45198690379E+01  0.45202784480E+01  0.30000000284E-01 0.  0.
     -611    1    3    3    0    0 -0.27292562500E-01 -0.41083043016E-01  0.44700637964E+01  0.44703359276E+01  0.51109989000E-03 0. -1.
      611    1    3    3    0    0 -0.25691954034E-02 -0.26136702679E-02  0.49805241541E-01  0.49942520414E-01  0.51109989000E-03 0.  1.
       11    1    1    2    0    0  0.28388666363E-01  0.41609495191E-01  0.20791113763E+01  0.20797215301E+01  0.51109989000E-03 0. -1.
     -623    1    1    2    0    0  0.14730915402E-02  0.20872180929E-02  0.10195661706E-02  0.17124000002E+03  0.17124000000E+03 0.  1.
</event>
<event>
 7   1  0.1356560E+02  0.9118800E+02  0.7818608E-02  0.1180000E+00
       11   -1    0    0    0    0  0.00000000000E+00  0.00000000000E+00  0.65999999802E+01  0.66000000000E+01  0.51109989000E-03 0.  1.
     -623   -1    0    0    0    0  0.00000000000E+00  0.00000000000E+00  0.75637274222E-11  0.17124000000E+03  0.17124000000E+03 0. -1.
      622    2    1    2    0    0  0.32063976166E-02 -0.14816293909E-01  0.57352379625E+01  0.57353364583E+01  0.30000000036E-01 0.  0.
     -611    1    3    3    0    0 -0.10808682685E-01 -0.12088436277E-01  0.42187290314E+01  0.42187602278E+01  0.51109989000E-03 0.  1.
      611    1    3    3    0    0  0.14015080302E-01 -0.27278576315E-02  0.15165089312E+01  0.15165762306E+01  0.51109989000E-03 0. -1.
       11    1    1    2    0    0 -0.13628630640E-02  0.15935931345E-01  0.86451543908E+00  0.86466352817E+00  0.51109989000E-03 0.  1.
     -623    1    1    2    0    0 -0.18435345525E-02 -0.11196374368E-02  0.24657887496E-03  0.17124000001E+03  0.17124000000E+03 0. -1.
</event>
<event>
 7   1  0.1356560E+02  0.9118800E+02  0.7818608E-02  0.1180000E+00
       11   -1    0    0    0    0  0.00000000000E+00  0.00000000000E+00  0.65999999802E+01  0.66000000000E+01  0.51109989000E-03 0.  1.
     -623   -1    0    0    0    0  0.00000000000E+00  0.00000000000E+00  0.75637274222E-11  0.17124000000E+03  0.17124000000E+03 0. -1.
      622    2    1    2    0    0 -0.56671066517E-03  0.96458884938E-03  0.65894063237E+01  0.65894747097E+01  0.29999997554E-01 0.  0.
     -611    1    3    3    0    0 -0.94526708906E-02 -0.80149744815E-03  0.73552034851E+00  0.73558170157E+00  0.51109989000E-03 0. -1.
      611    1    3    3    0    0  0.88859602254E-02  0.17660862975E-02  0.58538859752E+01  0.58538930081E+01  0.51109989000E-03 0.  1.
       11    1    1    2    0    0  0.49456732266E-03 -0.10289113454E-02  0.10450707877E-01  0.10525292092E-01  0.51109989000E-03 0.  1.
     -623    1    1    2    0    0  0.72143342479E-04  0.64322496029E-04  0.14295055697E-03  0.17124000000E+03  0.17124000000E+03 0. -1.
</event>
<event>
 7   1  0.1356560E+02  0.9118800E+02  0.7818608E-02  0.1180000E+00
       11   -1    0    0    0    0  0.00000000000E+00  0.00000000000E+00  0.65999999802E+01  0.66000000000E+01  0.51109989000E-03 0.  1.
     -623   -1    0    0    0    0  0.00000000000E+00  0.00000000000E+00  0.75637274222E-11  0.17124000000E+03  0.17124000000E+03 0.  1.
      622    2    1    2    0    0  0.11448984982E-01 -0.21914568406E-01  0.28512494592E+01  0.28515144759E+01  0.29999999152E-01 0.  0.
     -611    1    3    3    0    0  0.15895734939E-02 -0.27169548119E-01  0.22081264765E+01  0.22082942532E+01  0.51109989000E-03 0. -1.
      611    1    3    3    0    0  0.98594114885E-02  0.52549797134E-02  0.64312298272E+00  0.64322022273E+00  0.51109989000E-03 0.  1.
       11    1    1    2    0    0 -0.13365986025E-01  0.23995819174E-01  0.37483848300E+01  0.37484855000E+01  0.51109989000E-03 0.  1.
     -623    1    1    2    0    0  0.19170010432E-02 -0.20812507678E-02  0.36569068542E-03  0.17124000002E+03  0.17124000000E+03 0.  1.
</event>
<event>
 7   1  0.1356560E+02  0.9118800E+02  0.7818608E-02  0.1180000E+00
       11   -1    0    0    0    0  0.00000000000E+00  0.00000000000E+00  0.65999999802E+01  0.66000000000E+01  0.51109989000E-03 0.  1.
     -623   -1    0    0    0    0  0.00000000000E+00  0.00000000000E+00  0.75637274222E-11  0.17124000000E+03  0.17124000000E+03 0. -1.
      622    2    1    2    0    0  0.53747519670E-03  0.26258458471E-02  0.62281957909E+01  0.62282686193E+01  0.30000000243E-01 0.  0.
     -611    1    3    3    0    0  0.44478312623E-02 -0.10133188963E-01  0.47390379276E+01  0.47390508759E+01  0.51109989000E-03 0.  1.
      611    1    3    3    0    0 -0.39103560656E-02  0.12759034810E-01  0.14891578634E+01  0.14892177433E+01  0.51109989000E-03 0. -1.
       11    1    1    2    0    0 -0.87074697084E-03 -0.24294760026E-02  0.37172207564E+00  0.37173138594E+00  0.51109989000E-03 0.  1.
     -623    1    1    2    0    0  0.33327177385E-03 -0.19636984429E-03  0.82119344602E-04  0.17124000000E+03  0.17124000000E+03 0. -1.
</event>
<event>
 7   1  0.1500282E+02  0.9118800E+02  0.7818608E-02  0.1180000E+00
       11   -1    0    0    0    0  0.00000000000E+00  0.00000000000E+00  0.65999999802E+01  0.66000000000E+01  0.51109989000E-03 0. -1.
     -623   -1    0    0    0    0  0.00000000000E+00  0.00000000000E+00  0.75637274222E-11  0.17124000000E+03  0.17124000000E+03 0.  1.
      622    2    1    2    0    0 -0.42389319828E-03  0.29686845199E-03  0.65988592724E+01  0.65989274859E+01  0.29999999935E-01 0.  0.
     -611    1    3    3    0    0  0.90301424711E-02 -0.63803430602E-02  0.10933853542E+01  0.10934413776E+01  0.51109989000E-03 0.  1.
      611    1    3    3    0    0 -0.94540356694E-02  0.66772115122E-02  0.55054739182E+01  0.55054861083E+01  0.51109989000E-03 0. -1.
       11    1    1    2    0    0  0.99120867146E-05 -0.49081457437E-03  0.80502342773E-03  0.10725124767E-02  0.51109989000E-03 0. -1.
     -623    1    1    2    0    0  0.41398111161E-03  0.19394612240E-03  0.33568375070E-03  0.17124000000E+03  0.17124000000E+03 0.  1.
</event>
<event>
 7   1  0.1356560E+02  0.9118800E+02  0.7818608E-02  0.1180000E+00
       11   -1    0    0    0    0  0.00000000000E+00  0.00000000000E+00  0.65999999802E+01  0.66000000000E+01  0.51109989000E-03 0. -1.
     -623   -1    0    0    0    0  0.00000000000E+00  0.00000000000E+00  0.75637274222E-11  0.17124000000E+03  0.17124000000E+03 0. -1.
      622    2    1    2    0    0 -0.13091625020E-02 -0.90996000435E-02  0.65411686790E+01  0.65412439339E+01  0.30000000018E-01 0.  0.
     -611    1    3    3    0    0 -0.11462713856E-01 -0.13672536140E-01  0.51368659338E+01  0.51368969442E+01  0.51109989000E-03 0.  1.
      611    1    3    3    0    0  0.10153551354E-01  0.45729360962E-02  0.14043027451E+01  0.14043469897E+01  0.51109989000E-03 0. -1.
       11    1    1    2    0    0 -0.77888362137E-02  0.35810639177E-02  0.58124737374E-01  0.58755734241E-01  0.51109989000E-03 0. -1.
     -623    1    1    2    0    0  0.90979987153E-02  0.55185361256E-02  0.70656412919E-03  0.17124000033E+03  0.17124000000E+03 0. -1.
</event>
<event>
 7   1  0.1356560E+02  0.9118800E+02  0.7818608E-02  0.1180000E+00
       11   -1    0    0    0    0  0.00000000000E+00  0.00000000000E+00  0.65999999802E+01  0.66000000000E+01  0.51109989000E-03 0. -1.
     -623   -1    0    0    0    0  0.00000000000E+00  0.00000000000E+00  0.75637274222E-11  0.17124000000E+03  0.17124000000E+03 0.  1.
      622    2    1    2    0    0 -0.17974554862E-02  0.99442043176E-02  0.51675312792E+01  0.51676282412E+01  0.30000000031E-01 0.  0.
     -611    1    3    3    0    0  0.11244419062E-01  0.11905999080E-01  0.19117442951E+01  0.19118145048E+01  0.51109989000E-03 0.  1.
      611    1    3    3    0    0 -0.13041874548E-01 -0.19617947624E-02  0.32557869841E+01  0.32558137364E+01  0.51109989000E-03 0. -1.
       11    1    1    2    0    0  0.86608523344E-03 -0.11263521424E-01  0.14323271101E+01  0.14323717494E+01  0.51109989000E-03 0. -1.
     -623    1    1    2    0    0  0.93137025295E-03  0.13193171072E-02  0.14158925322E-03  0.17124000001E+03  0.17124000000E+03 0.  1.
</event>
<event>
 7   1  0.1356560E+02  0.9118800E+02  0.7818608E-02  0.1180000E+00
       11   -1    0    0    0    0  0.00000000000E+00  0.00000000000E+00  0.65999999802E+01  0.66000000000E+01  0.51109989000E-03 0. -1.
     -623   -1    0    0    0    0  0.00000000000E+00  0.00000000000E+00  0.75637274222E-11  0.17124000000E+03  0.17124000000E+03 0.  1.
      622    2    1    2    0    0  0.45216687423E-03  0.15331209716E-02  0.65071609131E+01  0.65072302636E+01  0.30000000360E-01 0.  0.
     -611    1    3    3    0    0  0.56861447454E-03 -0.96807399084E-02  0.80883463965E+00  0.80889293208E+00  0.51109989000E-03 0. -1.
      611    1    3    3    0    0 -0.11644760031E-03  0.11213860880E-01  0.56983262735E+01  0.56983373316E+01  0.51109989000E-03 0.  1.
       11    1    1    2    0    0  0.27428449107E-03  0.18788634535E-03  0.92767720178E-01  0.92769723851E-01  0.51109989000E-03 0. -1.
     -623    1    1    2    0    0 -0.72645136555E-03 -0.17210073175E-02  0.71344625964E-04  0.17124000001E+03  0.17124000000E+03 0.  1.
</event>
<event>
 7   1  0.1356560E+02  0.9118800E+02  0.7818608E-02  0.1180000E+00
       11   -1    0    0    0    0  0.00000000000E+00  0.00000000000E+00  0.65999999802E+01  0.66000000000E+01  0.51109989000E-03 0.  1.
     -623   -1    0    0    0    0  0.00000000000E+00  0.00000000000E+00  0.75637274222E-11  0.17124000000E+03  0.17124000000E+03 0.  1.
      622    2    1    2    0    0  0.56913752524E-03 -0.38149589547E-01  0.43220824080E+01  0.43223549202E+01  0.30000000340E-01 0.  0.
     -611    1    3    3    0    0  0.71765802065E-02 -0.37454967608E-01  0.28220947010E+01  0.28223524125E+01  0.51109989000E-03 0.  1.
      611    1    3    3    0    0 -0.66074426813E-02 -0.69462193886E-03  0.14999877070E+01  0.15000025077E+01  0.51109989000E-03 0. -1.
       11    1    1    2    0    0 -0.23197710446E-03  0.37080421747E-01  0.22773431483E+01  0.22776450750E+01  0.51109989000E-03 0.  1.
     -623    1    1    2    0    0 -0.33716042078E-03  0.10691678005E-02  0.57442384059E-03  0.17124000000E+03  0.17124000000E+03 0.  1.
</event>
<event>
 7   1  0.1356560E+02  0.9118800E+02  0.7818608E-02  0.1180000E+00
       11   -1    0    0    0    0  0.00000000000E+00  0.00000000000E+00  0.65999999802E+01  0.66000000000E+01  0.51109989000E-03 0. -1.
     -623   -1    0    0    0    0  0.00000000000E+00  0.00000000000E+00  0.75637274222E-11  0.17124000000E+03  0.17124000000E+03 0.  1.
      622    2    1    2    0    0  0.13226795618E-03  0.22123428068E-02  0.65591037103E+01  0.65591726914E+01  0.29999999561E-01 0.  0.
     -611    1    3    3    0    0  0.72323050079E-02  0.13411649455E-01  0.45257453596E+01  0.45257710392E+01  0.51109989000E-03 0. -1.
      611    1    3    3    0    0 -0.71000370517E-02 -0.11199306649E-01  0.20333583508E+01  0.20334016521E+01  0.51109989000E-03 0.  1.
       11    1    1    2    0    0  0.31737860898E-03 -0.23173901182E-02  0.40757046066E-01  0.40827307690E-01  0.51109989000E-03 0. -1.
     -623    1    1    2    0    0 -0.44964656518E-03  0.10504731132E-03  0.13922352988E-03  0.17124000000E+03  0.17124000000E+03 0.  1.
</event>
<event>
 7   1  0.1356560E+02  0.9118800E+02  0.7818608E-02  0.1180000E+00
       11   -1    0    0    0    0  0.00000000000E+00  0.00000000000E+00  0.65999999802E+01  0.66000000000E+01  0.51109989000E-03 0.  1.
     -623   -1    0    0    0    0  0.00000000000E+00  0.00000000000E+00  0.75637274222E-11  0.17124000000E+03  0.17124000000E+03 0. -1.
      622    2    1    2    0    0  0.28444717518E-03  0.32912539143E-03  0.65730993970E+01  0.65731678719E+01  0.29999999733E-01 0.  0.
     -611    1    3    3    0    0  0.95439007152E-02  0.10066643110E-01  0.19734159782E+01  0.19734647976E+01  0.51109989000E-03 0. -1.
      611    1    3    3    0    0 -0.92594535400E-02 -0.97375177185E-02  0.45996834188E+01  0.45997030743E+01  0.51109989000E-03 0.  1.
       11    1    1    2    0    0  0.94960327148E-04 -0.65325682087E-03  0.26819134450E-01  0.26832125478E-01  0.51109989000E-03 0.  1.
     -623    1    1    2    0    0 -0.37940750244E-03  0.32413142954E-03  0.81446883818E-04  0.17124000000E+03  0.17124000000E+03 0. -1.
</event>
<event>
 7   1  0.1356560E+02  0.9118800E+02  0.7818608E-02  0.1180000E+00
       11   -1    0    0    0    0  0.00000000000E+00  0.00000000000E+00  0.65999999802E+01  0.66000000000E+01  0.51109989000E-03 0.  1.
     -623   -1    0    0    0    0  0.00000000000E+00  0.00000000000E+00  0.75637274222E-11  0.17124000000E+03  0.17124000000E+03 0. -1.
      622    2    1    2    0    0 -0.24648400085E-01 -0.11816141624E-01  0.59713696288E+01  0.59715075491E+01  0.30000000424E-01 0.  0.
     -611    1    3    3    0    0 -0.10399092070E-01 -0.16812394059E-01  0.47966880732E+01  0.47967288365E+01  0.51109989000E-03 0.  1.
      611    1    3    3    0    0 -0.14249308015E-01  0.49962524351E-02  0.11746815556E+01  0.11747787126E+01  0.51109989000E-03 0. -1.
       11    1    1    2    0    0  0.16745853668E-01  0.27109697925E-01  0.62768308032E+00  0.62849158299E+00  0.51109989000E-03 0.  1.
     -623    1    1    2    0    0  0.79025464169E-02 -0.15293556301E-01  0.94727105734E-03  0.17124000087E+03  0.17124000000E+03 0. -1.
</event>
<event>
 7   1  0.1356560E+02  0.9118800E+02  0.7818608E-02  0.1180000E+00
       11   -1    0    0    0    0  0.00000000000E+00  0.00000000000E+00  0.65999999802E+01  0.66000000000E+01  0.51109989000E-03 0.  1.
     -623   -1    0    0    0    0  0.00000000000E+00  0.00000000000E+00  0.75637274222E-11  0.17124000000E+03  0.17124000000E+03 0.  1.
      622    2    1    2    0    0 -0.32851317293E-02  0.32076591296E-02  0.62783539664E+01  0.62784273197E+01  0.30000000125E-01 0.  0.
     -611    1    3    3    0    0 -0.12175718943E-01 -0.20109446833E-02  0.53781249880E+01  0.53781391707E+01  0.51109989000E-03 0.  1.
      611    1    3    3    0    0  0.88905872135E-02  0.52186038129E-02  0.90022897845E+00  0.90028814900E+00  0.51109989000E-03 0. -1.
       11    1    1    2    0    0  0.27875778514E-02  0.34068187185E-02  0.32154201751E+00  0.32157255363E+00  0.51109989000E-03 0.  1.
     -623    1    1    2    0    0  0.49755387772E-03 -0.66144778462E-02  0.10399813287E-03  0.17124000013E+03  0.17124000000E+03 0.  1.
</event>
<event>
 7   1  0.1356560E+02  0.9118800E+02  0.7818608E-02  0.1180000E+00
       11   -1    0    0    0    0  0.00000000000E+00  0.00000000000E+00  0.65999999802E+01  0.66000000000E+01  0.51109989000E-03 0.  1.
     -623   -1    0    0    0    0  0.00000000000E+00  0.00000000000E+00  0.75637274222E-11  0.17124000000E+03  0.17124000000E+03 0. -1.
      622    2    1    2    0    0 -0.82181952075E-02  0.57825050721E-02  0.42874859449E+01  0.42876026756E+01  0.30000000089E-01 0.  0.
     -611    1    3    3    0    0  0.80734392483E-02  0.96359093165E-02  0.10852001800E+01  0.10852731099E+01  0.51109989000E-03 0. -1.
      611    1    3    3    0    0 -0.16291634456E-01 -0.38534042444E-02  0.32022857649E+01  0.32023295657E+01  0.51109989000E-03 0.  1.
       11    1    1    2    0    0 -0.15732804447E-01 -0.36639726332E-01  0.23120489881E+01  0.23123928679E+01  0.51109989000E-03 0.  1.
     -623    1    1    2    0    0  0.23950999657E-01  0.30857221263E-01  0.46504650382E-03  0.17124000446E+03  0.17124000000E+03 0. -1.
</event>
<event>
 7   1  0.1356560E+02  0.9118800E+02  0.7818608E-02  0.1180000E+00
       11   -1    0    0    0    0  0.00000000000E+00  0.00000000000E+00  0.65999999802E+01  0.66000000000E+01  0.51109989000E-03 0. -1.
     -623   -1    0    0    0    0  0.00000000000E+00  0.00000000000E+00  0.75637274222E-11  0.17124000000E+03  0.17124000000E+03 0.  1.
      622    2    1    2    0    0  0.53658970804E-02 -0.46961692997E-02  0.65872163282E+01  0.65872885015E+01  0.29999998769E-01 0.  0.
     -611    1    3    3    0    0 -0.13461393059E-02  0.12065916787E-01  0.20293892111E+01  0.20294255911E+01  0.51109989000E-03 0.  1.
      611    1    3    3    0    0  0.67120363863E-02 -0.16762086087E-01  0.45578271172E+01  0.45578629104E+01  0.51109989000E-03 0. -1.
       11    1    1    2    0    0 -0.35335762122E-02  0.42897266758E-02  0.11420711525E-01  0.12711482629E-01  0.51109989000E-03 0. -1.
     -623    1    1    2    0    0 -0.18323208683E-02  0.40644262393E-03  0.13629402784E-02  0.17124000002E+03  0.17124000000E+03 0.  1.
</event>
<event>
 7   1  0.1356560E+02  0.9118800E+02  0.7818608E-02  0.1180000E+00
       11   -1    0    0    0    0  0.00000000000E+00  0.00000000000E+00  0.65999999802E+01  0.66000000000E+01  0.51109989000E-03 0. -1.
     -623   -1    0    0    0    0  0.00000000000E+00  0.00000000000E+00  0.75637274222E-11  0.17124000000E+03  0.17124000000E+03 0.  1.
      622    2    1    2    0    0 -0.84836958656E-02  0.12133701575E-02  0.65031246074E+01  0.65031994514E+01  0.30000000283E-01 0.  0.
     -611    1    3    3    0    0 -0.81108482651E-02  0.14826909172E-01  0.42495432743E+01  0.42495769113E+01  0.51109989000E-03 0. -1.
      611    1    3    3    0    0 -0.37284760044E-03 -0.13613539014E-01  0.22535813330E+01  0.22536225401E+01  0.51109989000E-03 0.  1.
       11    1    1    2    0    0  0.69789209590E-02  0.56614878027E-02  0.96381011071E-01  0.96800404442E-01  0.51109989000E-03 0. -1.
     -623    1    1    2    0    0  0.15047749063E-02 -0.68748579589E-02  0.49436292277E-03  0.17124000015E+03  0.17124000000E+03 0.  1.
</event>
<event>
 7   1  0.1356560E+02  0.9118800E+02  0.7818608E-02  0.1180000E+00
       11   -1    0    0    0    0  0.00000000000E+00  0.00000000000E+00  0.65999999802E+01  0.66000000000E+01  0.51109989000E-03 0. -1.
     -623   -1    0    0    0    0  0.00000000000E+00  0.00000000000E+00  0.75637274222E-11  0.17124000000E+03  0.17124000000E+03 0.  1.
      622    2    1    2    0    0  0.64347474618E-01 -0.24196310012E-01  0.25237529409E+01  0.25248673165E+01  0.30000002370E-01 0.  0.
     -611    1    3    3    0    0  0.79589319156E-02 -0.73935557647E-02  0.15378916293E+00  0.15417320495E+00  0.51109989000E-03 0.  1.
      611    1    3    3    0    0  0.56388542702E-01 -0.16802754247E-01  0.23699637780E+01  0.23706941116E+01  0.51109989000E-03 0. -1.
       11    1    1    2    0    0 -0.60226532706E-01  0.10591691619E-01  0.40746732187E+01  0.40751320862E+01  0.51109989000E-03 0. -1.
     -623    1    1    2    0    0 -0.41209419120E-02  0.13604618392E-01  0.15738204807E-02  0.17124000060E+03  0.17124000000E+03 0.  1.
</event>
<event>
 7   1  0.1356560E+02  0.9118800E+02  0.7818608E-02  0.1180000E+00
       11   -1    0    0    0    0  0.00000000000E+00  0.00000000000E+00  0.65999999802E+01  0.66000000000E+01  0.51109989000E-03 0.  1.
     -623   -1    0    0    0    0  0.00000000000E+00  0.00000000000E+00  0.75637274222E-11  0.17124000000E+03  0.17124000000E+03 0. -1.
      622    2    1    2    0    0 -0.10639862397E-01  0.89181858920E-02  0.29558066489E+01  0.29559914896E+01  0.30000000607E-01 0.  0.
     -611    1    3    3    0    0 -0.18196780423E-01 -0.32737641688E-02  0.18260110863E+01  0.18261047585E+01  0.51109989000E-03 0. -1.
      611    1    3    3    0    0  0.75569180258E-02  0.12191950061E-01  0.11297955626E+01  0.11298867311E+01  0.51109989000E-03 0.  1.
       11    1    1    2    0    0  0.12508247084E-01 -0.87900587901E-02  0.36439763970E+01  0.36440085023E+01  0.51109989000E-03 0.  1.
     -623    1    1    2    0    0 -0.18683846858E-02 -0.12812710192E-03  0.21693652286E-03  0.17124000001E+03  0.17124000000E+03 0. -1.
</event>
<event>
 7   1  0.1356560E+02  0.9118800E+02  0.7818608E-02  0.1180000E+00
       11   -1    0    0    0    0  0.00000000000E+00  0.00000000000E+00  0.65999999802E+01  0.66000000000E+01  0.51109989000E-03 0.  1.
     -623   -1    0    0    0    0  0.00000000000E+00  0.00000000000E+00  0.75637274222E-11  0.17124000000E+03  0.17124000000E+03 0. -1.
      622    2    1    2    0    0  0.18589782495E-03  0.85154693371E-03  0.65575920046E+01  0.65576606849E+01  0.29999996970E-01 0.  0.
     -611    1    3    3    0    0  0.13055720668E-01 -0.69667250296E-02  0.29359208793E+01  0.29359582180E+01  0.51109989000E-03 0. -1.
      611    1    3    3    0    0 -0.12869822843E-01  0.78182719633E-02  0.36216711253E+01  0.36217024669E+01  0.51109989000E-03 0.  1.
       11    1    1    2    0    0  0.26951549609E-03 -0.84351912186E-03  0.42326966171E-01  0.42339313309E-01  0.51109989000E-03 0.  1.
     -623    1    1    2    0    0 -0.45541332111E-03 -0.80278118558E-05  0.81008282176E-04  0.17124000000E+03  0.17124000000E+03 0. -1.
</event>
<event>
 7   1  0.1356560E+02  0.9118800E+02  0.7818608E-02  0.1180000E+00
       11   -1    0    0    0    0  0.00000000000E+00  0.00000000000E+00  0.65999999802E+01  0.66000000000E+01  0.51109989000E-03 0. -1.
     -623   -1    0    0    0    0  0.00000000000E+00  0.00000000000E+00  0.75637274222E-11  0.17124000000E+03  0.17124000000E+03 0.  1.
      622    2    1    2    0    0 -0.39798861353E-02  0.12016884595E-01  0.46350688736E+01  0.46351832443E+01  0.30000000151E-01 0.  0.
     -611    1    3    3    0    0  0.94467601397E-02  0.80545971250E-02  0.87431960738E+00  0.87440788817E+00  0.51109989000E-03 0. -1.
      611    1    3    3    0    0 -0.13426646275E-01  0.39622874701E-02  0.37607492662E+01  0.37607753561E+01  0.51109989000E-03 0.  1.
       11    1    1    2    0    0  0.44148757088E-02 -0.12739792331E-01  0.19647704245E+01  0.19648167537E+01  0.51109989000E-03 0. -1.
     -623    1    1    2    0    0 -0.43498957344E-03  0.72290773582E-03  0.16068225706E-03  0.17124000000E+03  0.17124000000E+03 0.  1.
</event>
<event>
 7   1  0.1356560E+02  0.9118800E+02  0.7818608E-02  0.1180000E+00
       11   -1    0    0    0    0  0.00000000000E+00  0.00000000000E+00  0.65999999802E+01  0.66000000000E+01  0.51109989000E-03 0. -1.
     -623   -1    0    0    0    0  0.00000000000E+00  0.00000000000E+00  0.75637274222E-11  0.17124000000E+03  0.17124000000E+03 0.  1.
      622    2    1    2    0    0  0.71541585070E-03  0.12774051495E-02  0.65507818227E+01  0.65508506800E+01  0.30000000358E-01 0.  0.
     -611    1    3    3    0    0 -0.13953607718E-02  0.94211479492E-02  0.72467371489E+00  0.72473647579E+00  0.51109989000E-03 0.  1.
      611    1    3    3    0    0  0.21107766225E-02 -0.81437427997E-02  0.58261081078E+01  0.58261142042E+01  0.51109989000E-03 0. -1.
       11    1    1    2    0    0  0.10309639494E-02  0.19357381066E-02  0.49097661096E-01  0.49149277888E-01  0.51109989000E-03 0. -1.
     -623    1    1    2    0    0 -0.17463798009E-02 -0.32131432576E-02  0.12049344620E-03  0.17124000004E+03  0.17124000000E+03 0.  1.
</event>
<event>
 7   1  0.1356560E+02  0.9118800E+02  0.7818608E-02  0.1180000E+00
       11   -1    0    0    0    0  0.00000000000E+00  0.00000000000E+00  0.65999999802E+01  0.66000000000E+01  0.51109989000E-03 0. -1.
     -623   -1    0    0    0    0  0.00000000000E+00  0.00000000000E+00  0.75637274222E-11  0.17124000000E+03  0.17124000000E+03 0.  1.
      622    2    1    2    0    0  0.11167508378E-03  0.55830893502E-03  0.65359458511E+01  0.65360147256E+01  0.30000000025E-01 0.  0.
     -611    1    3    3    0    0 -0.75979948654E-02  0.77709181029E-02  0.55771818365E+01  0.55771924492E+01  0.51109989000E-03 0. -1.
      611    1    3    3    0    0  0.77096699492E-02 -0.72126091679E-02  0.95876401463E+00  0.95882227639E+00  0.51109989000E-03 0.  1.
       11    1    1    2    0    0 -0.13644409891E-03 -0.64075889945E-03  0.63979878070E-01  0.63985273383E-01  0.51109989000E-03 0. -1.
     -623    1    1    2    0    0  0.24769015132E-04  0.82449964438E-04  0.74250025565E-04  0.17124000000E+03  0.17124000000E+03 0.  1.
</event>
<event>
 7   1  0.1356560E+02  0.9118800E+02  0.7818608E-02  0.1180000E+00
       11   -1    0    0    0    0  0.00000000000E+00  0.00000000000E+00  0.65999999802E+01  0.66000000000E+01  0.51109989000E-03 0.  1.
     -623   -1    0    0    0    0  0.00000000000E+00  0.00000000000E+00  0.75637274222E-11  0.17124000000E+03  0.17124000000E+03 0.  1.
      622    2    1    2    0    0  0.48130333566E-02  0.15391211145E-02  0.65930027172E+01  0.65930729074E+01  0.30000000548E-01 0.  0.
     -611    1    3    3    0    0  0.90850823275E-02 -0.68550495928E-02  0.10437541728E+01  0.10438163464E+01  0.51109989000E-03 0. -1.
      611    1    3    3    0    0 -0.42720489709E-02  0.83941707074E-02  0.55492485443E+01  0.55492565611E+01  0.51109989000E-03 0.  1.
       11    1    1    2    0    0  0.87087326394E-03 -0.93185955438E-04  0.68523655941E-02  0.69269936622E-02  0.51109989000E-03 0. -1.
     -623    1    1    2    0    0 -0.56839066191E-02 -0.14459351587E-02  0.14489905476E-03  0.17124000010E+03  0.17124000000E+03 0.  1.
</event>
<event>
 7   1  0.1356560E+02  0.9118800E+02  0.7818608E-02  0.1180000E+00
       11   -1    0    0    0    0  0.00000000000E+00  0.00000000000E+00  0.65999999802E+01  0.66000000000E+01  0.51109989000E-03 0. -1.
     -623   -1    0    0    0    0  0.00000000000E+00  0.00000000000E+00  0.75637274222E-11  0.17124000000E+03  0.17124000000E+03 0.  1.
      622    2    1    2    0    0  0.14840283940E-02  0.15590253968E-03  0.65968764737E+01  0.65969448562E+01  0.29999999859E-01 0.  0.
     -611    1    3    3    0    0  0.65868021900E-02 -0.13241322779E-01  0.41452966045E+01  0.41453230174E+01  0.51109989000E-03 0. -1.
      611    1    3    3    0    0 -0.51027737960E-02  0.13397225319E-01  0.24515798692E+01  0.24516218388E+01  0.51109989000E-03 0.  1.
       11    1    1    2    0    0  0.70838361788E-04  0.17049540032E-03  0.30064229601E-02  0.30551413826E-02  0.51109989000E-03 0. -1.
     -623    1    1    2    0    0 -0.15548667546E-02 -0.32639793975E-03  0.11708856213E-03  0.17124000001E+03  0.17124000000E+03 0.  1.
</event>
<event>
 7   1  0.1356560E+02  0.9118800E+02  0.7818608E-02  0.1180000E+00
       11   -1    0    0    0    0  0.00000000000E+00  0.00000000000E+00  0.65999999802E+01  0.66000000000E+01  0.51109989000E-03 0. -1.
     -623   -1    0    0    0    0  0.00000000000E+00  0.00000000000E+00  0.75637274222E-11  0.17124000000E+03  0.17124000000E+03 0.  1.
      622    2    1    2    0    0 -0.78929248003E-02  0.14285417773E-01  0.61801937588E+01  0.61802881218E+01  0.29999999970E-01 0.  0.
     -611    1    3    3    0    0 -0.18341328618E-01  0.13223709803E-01  0.34513139595E+01  0.34513880655E+01  0.51109989000E-03 0.  1.
      611    1    3    3    0    0  0.10448403817E-01  0.10617079700E-02  0.27288797993E+01  0.27289000562E+01  0.51109989000E-03 0. -1.
       11    1    1    2    0    0  0.82645768285E-02 -0.14306461679E-01  0.41938624351E+00  0.41971187801E+00  0.51109989000E-03 0. -1.
     -623    1    1    2    0    0 -0.37165202830E-03  0.21043906046E-04  0.41997858069E-03  0.17124000000E+03  0.17124000000E+03 0.  1.
</event>
<event>
 7   1  0.1356560E+02  0.9118800E+02  0.7818608E-02  0.1180000E+00
       11   -1    0    0    0    0  0.00000000000E+00  0.00000000000E+00  0.65999999802E+01  0.66000000000E+01  0.51109989000E-03 0.  1.
     -623   -1    0    0    0    0  0.00000000000E+00  0.00000000000E+00  0.75637274222E-11  0.17124000000E+03  0.17124000000E+03 0. -1.
      622    2    1    2    0    0 -0.23569059831E-03  0.80632982299E-02  0.60887674157E+01  0.60888466654E+01  0.29999999969E-01 0.  0.
     -611    1    3    3    0    0  0.11911510674E-01  0.87357459167E-02  0.47736147829E+01  0.47736376647E+01  0.51109989000E-03 0.  1.
      611    1    3    3    0    0 -0.12147201273E-01 -0.67244768676E-03  0.13151526328E+01  0.13152090007E+01  0.51109989000E-03 0. -1.
       11    1    1    2    0    0 -0.11379281179E-02 -0.76017414573E-02  0.51109527755E+00  0.51115332857E+00  0.51109989000E-03 0.  1.
     -623    1    1    2    0    0  0.13736187162E-02 -0.46155677261E-03  0.13728713208E-03  0.17124000001E+03  0.17124000000E+03 0. -1.
</event>
<event>
 7   1  0.1356560E+02  0.9118800E+02  0.7818608E-02  0.1180000E+00
       11   -1    0    0    0    0  0.00000000000E+00  0.00000000000E+00  0.65999999802E+01  0.66000000000E+01  0.51109989000E-03 0.  1.
     -623   -1    0    0    0    0  0.00000000000E+00  0.00000000000E+00  0.75637274222E-11  0.17124000000E+03  0.17124000000E+03 0. -1.
      622    2    1    2    0    0 -0.12589209519E-02 -0.72413828283E-02  0.42843852528E+01  0.42844965885E+01  0.29999999792E-01 0.  0.
     -611    1    3    3    0    0  0.47545067554E-02  0.10639125147E-01  0.19613264484E+01  0.19613611332E+01  0.51109989000E-03 0. -1.
      611    1    3    3    0    0 -0.60134277073E-02 -0.17880507976E-01  0.23230588044E+01  0.23231354553E+01  0.51109989000E-03 0.  1.
       11    1    1    2    0    0  0.26132401077E-01 -0.15852987864E-01  0.23152982512E+01  0.23155000481E+01  0.51109989000E-03 0.  1.
     -623    1    1    2    0    0 -0.24873480122E-01  0.23094370690E-01  0.31647695143E-03  0.17124000336E+03  0.17124000000E+03 0. -1.
</event>
<event>
 7   1  0.1356560E+02  0.9118800E+02  0.7818608E-02  0.1180000E+00
       11   -1    0    0    0    0  0.00000000000E+00  0.00000000000E+00  0.65999999802E+01  0.66000000000E+01  0.51109989000E-03 0.  1.
     -623   -1    0    0    0    0  0.00000000000E+00  0.00000000000E+00  0.75637274222E-11  0.17124000000E+03  0.17124000000E+03 0.  1.
      622    2    1    2    0    0 -0.10571220749E-01  0.85916842640E-02  0.65833770198E+01  0.65834594670E+01  0.29999999254E-01 0.  0.
     -611    1    3    3    0    0  0.66977054140E-02 -0.63415642761E-02  0.26553318902E+01  0.26553479589E+01  0.51109989000E-03 0. -1.
      611    1    3    3    0    0 -0.17268926163E-01  0.14933248540E-01  0.39280451296E+01  0.39281115080E+01  0.51109989000E-03 0.  1.
       11    1    1    2    0    0  0.36362758805E-03  0.12265991975E-02  0.16482469143E-01  0.16539945065E-01  0.51109989000E-03 0.  1.
     -623    1    1    2    0    0  0.10207593164E-01 -0.98182834648E-02  0.14048902363E-03  0.17124000059E+03  0.17124000000E+03 0.  1.
</event>
<event>
 7   1  0.1356560E+02  0.9118800E+02  0.7818608E-02  0.1180000E+00
       11   -1    0    0    0    0  0.00000000000E+00  0.00000000000E+00  0.65999999802E+01  0.66000000000E+01  0.51109989000E-03 0. -1.
     -623   -1    0    0    0    0  0.00000000000E+00  0.00000000000E+00  0.75637274222E-11  0.17124000000E+03  0.17124000000E+03 0.  1.
      622    2    1    2    0    0 -0.61721736038E-03  0.18370214146E-04  0.65971302313E+01  0.65971984713E+01  0.29999999748E-01 0.  0.
     -611    1    3    3    0    0  0.94986727896E-02  0.10895289218E-01  0.39539472934E+01  0.39539737471E+01  0.51109989000E-03 0. -1.
      611    1    3    3    0    0 -0.10115890150E-01 -0.10876919004E-01  0.26431829379E+01  0.26432247242E+01  0.51109989000E-03 0.  1.
       11    1    1    2    0    0  0.46597759051E-03  0.11360040748E-05  0.27148126580E-02  0.28015294521E-02  0.51109989000E-03 0.  1.
     -623    1    1    2    0    0  0.15123976985E-03 -0.19506218218E-04  0.15493717207E-03  0.17124000000E+03  0.17124000000E+03 0.  1.
</event>
<event>
 7   1  0.1356560E+02  0.9118800E+02  0.7818608E-02  0.1180000E+00
       11   -1    0    0    0    0  0.00000000000E+00  0.00000000000E+00  0.65999999802E+01  0.66000000000E+01  0.51109989000E-03 0. -1.
     -623   -1    0    0    0    0  0.00000000000E+00  0.00000000000E+00  0.75637274222E-11  0.17124000000E+03  0.17124000000E+03 0.  1.
      622    2    1    2    0    0 -0.28754834636E-02 -0.16285093189E-02  0.65737273691E+01  0.65737966537E+01  0.30000000002E-01 0.  0.
     -611    1    3    3    0    0 -0.78752584130E-02 -0.26936825927E-02  0.51808375439E+00  0.51815085970E+00  0.51109989000E-03 0. -1.
      611    1    3    3    0    0  0.49997749494E-02  0.10651732738E-02  0.60556436147E+01  0.60556457940E+01  0.51109989000E-03 0.  1.
       11    1    1    2    0    0 -0.95845002465E-03  0.88941648262E-03  0.26165666871E-01  0.26203301968E-01  0.51109989000E-03 0. -1.
     -623    1    1    2    0    0  0.38339334881E-02  0.73909283629E-03  0.10694442537E-03  0.17124000004E+03  0.17124000000E+03 0.  1.
</event>
<event>
 7   1  0.1356560E+02  0.9118800E+02  0.7818608E-02  0.1180000E+00
       11   -1    0    0    0    0  0.00000000000E+00  0.00000000000E+00  0.65999999802E+01  0.66000000000E+01  0.51109989000E-03 0. -1.
     -623   -1    0    0    0    0  0.00000000000E+00  0.00000000000E+00  0.75637274222E-11  0.17124000000E+03  0.17124000000E+03 0. -1.
      622    2    1    2    0    0  0.47556383600E-02  0.84750145948E-03  0.65395591668E+01  0.65396297625E+01  0.30000000190E-01 0.  0.
     -611    1    3    3    0    0 -0.89741476839E-02  0.36082653522E-02  0.49320717821E+01  0.49320812929E+01  0.51109989000E-03 0. -1.
      611    1    3    3    0    0  0.13729786044E-01 -0.27607638927E-02  0.16074873846E+01  0.16075484695E+01  0.51109989000E-03 0.  1.
       11    1    1    2    0    0 -0.44489904171E-02 -0.20200629961E-01  0.56712506635E-01  0.60369103012E-01  0.51109989000E-03 0. -1.
     -623    1    1    2    0    0 -0.30664794291E-03  0.19353128502E-01  0.37283067686E-02  0.17124000113E+03  0.17124000000E+03 0. -1.
</event>
<event>
 7   1  0.1356560E+02  0.9118800E+02  0.7818608E-02  0.1180000E+00
       11   -1    0    0    0    0  0.00000000000E+00  0.00000000000E+00  0.65999999802E+01  0.66000000000E+01  0.51109989000E-03 0.  1.
     -623   -1    0    0    0    0  0.00000000000E+00  0.00000000000E+00  0.75637274222E-11  0.17124000000E+03  0.17124000000E+03 0.  1.
      622    2    1    2    0    0 -0.35503056664E-02  0.22764560930E-02  0.65902366167E+01  0.65903062486E+01  0.29999999833E-01 0.  0.
     -611    1    3    3    0    0  0.42612403262E-02 -0.23234199459E-02  0.18841983918E+00  0.18848303231E+00  0.51109989000E-03 0. -1.
      611    1    3    3    0    0 -0.78115459926E-02  0.45998760389E-02  0.64018167775E+01  0.64018232163E+01  0.51109989000E-03 0.  1.
       11    1    1    2    0    0  0.21431703830E-02  0.11885150638E-02  0.93648833007E-02  0.96937097997E-02  0.51109989000E-03 0.  1.
     -623    1    1    2    0    0  0.14071352834E-02 -0.34649711570E-02  0.39847996916E-03  0.17124000004E+03  0.17124000000E+03 0.  1.
</event>
<event>
 7   1  0.1356560E+02  0.9118800E+02  0.7818608E-02  0.1180000E+00
       11   -1    0    0    0    0  0.00000000000E+00  0.00000000000E+00  0.65999999802E+01  0.66000000000E+01  0.51109989000E-03 0.  1.
     -623   -1    0    0    0    0  0.00000000000E+00  0.00000000000E+00  0.75637274222E-11  0.17124000000E+03  0.17124000000E+03 0.  1.
      622    2    1    2    0    0  0.29791454520E-02 -0.17497129128E-01  0.52581981383E+01  0.52583136733E+01  0.30000000060E-01 0.  0.
     -611    1    3    3    0    0  0.34614507932E-02 -0.24887414661E-01  0.46857978802E+01  0.46858652777E+01  0.51109989000E-03 0.  1.
      611    1    3    3    0    0 -0.48230534124E-03  0.73902855336E-02  0.57240025810E+00  0.57244839561E+00  0.51109989000E-03 0. -1.
       11    1    1    2    0    0 -0.34343728535E-02  0.18296162237E-01  0.13415570751E+01  0.13416863238E+01  0.51109989000E-03 0.  1.
     -623    1    1    2    0    0  0.45522740154E-03 -0.79903310902E-03  0.24476651813E-03  0.17124000000E+03  0.17124000000E+03 0.  1.
</event>
<event>
 7   1  0.1356560E+02  0.9118800E+02  0.7818608E-02  0.1180000E+00
       11   -1    0    0    0    0  0.00000000000E+00  0.00000000000E+00  0.65999999802E+01  0.66000000000E+01  0.51109989000E-03 0.  1.
     -623   -1    0    0    0    0  0.00000000000E+00  0.00000000000E+00  0.75637274222E-11  0.17124000000E+03  0.17124000000E+03 0. -1.
      622    2    1    2    0    0  0.88143917211E-03  0.24360453012E-02  0.64786438836E+01  0.64787138602E+01  0.30000001187E-01 0.  0.
     -611    1    3    3    0    0  0.34515709661E-02  0.74806307859E-02  0.50638245431E+00  0.50644972548E+00  0.51109989000E-03 0. -1.
      611    1    3    3    0    0 -0.25701317940E-02 -0.50445854847E-02  0.59722614293E+01  0.59722641347E+01  0.51109989000E-03 0.  1.
       11    1    1    2    0    0 -0.12058612294E-02 -0.20484587243E-02  0.12126176632E+00  0.12128613886E+00  0.51109989000E-03 0.  1.
     -623    1    1    2    0    0  0.32442205731E-03 -0.38758657687E-03  0.94330086121E-04  0.17124000000E+03  0.17124000000E+03 0. -1.
</event>
<event>
 7   1  0.1356560E+02  0.9118800E+02  0.7818608E-02  0.1180000E+00
       11   -1    0    0    0    0  0.00000000000E+00  0.00000000000E+00  0.65999999802E+01  0.66000000000E+01  0.51109989000E-03 0. -1.
     -623   -1    0    0    0    0  0.00000000000E+00  0.00000000000E+00  0.75637274222E-11  0.17124000000E+03  0.17124000000E+03 0. -1.
      622    2    1    2    0    0 -0.66725958799E-02 -0.28721345410E-03  0.59609569404E+01  0.59610361726E+01  0.29999999941E-01 0.  0.
     -611    1    3    3    0    0  0.71218731559E-02 -0.75589310658E-02  0.41199385629E+01  0.41199516844E+01  0.51109989000E-03 0.  1.
      611    1    3    3    0    0 -0.13794469036E-01  0.72717176117E-02  0.18410183775E+01  0.18410844882E+01  0.51109989000E-03 0. -1.
       11    1    1    2    0    0  0.76155309733E-03 -0.12385198869E-01  0.63884255657E+00  0.63896325906E+00  0.51109989000E-03 0. -1.
     -623    1    1    2    0    0  0.59110427801E-02  0.12672412318E-01  0.20048596911E-03  0.17124000057E+03  0.17124000000E+03 0. -1.
</event>
<event>
 7   1  0.1356560E+02  0.9118800E+02  0.7818608E-02  0.1180000E+00
       11   -1    0    0    0    0  0.00000000000E+00  0.00000000000E+00  0.65999999802E+01  0.66000000000E+01  0.51109989000E-03 0. -1.
     -623   -1    0    0    0    0  0.00000000000E+00  0.00000000000E+00  0.75637274222E-11  0.17124000000E+03  0.17124000000E+03 0.  1.
      622    2    1    2    0    0  0.73322930385E-03 -0.17309155362E-02  0.64897799784E+01  0.64898495901E+01  0.29999999947E-01 0.  0.
     -611    1    3    3    0    0  0.70564863483E-02 -0.56121864450E-02  0.60499555042E+01  0.60499622441E+01  0.51109989000E-03 0. -1.
      611    1    3    3    0    0 -0.63232570445E-02  0.38812709088E-02  0.43982447425E+00  0.43988734605E+00  0.51109989000E-03 0.  1.
       11    1    1    2    0    0 -0.11937317305E-02  0.15202979636E-02  0.11013225935E+00  0.11015040660E+00  0.51109989000E-03 0. -1.
     -623    1    1    2    0    0  0.46050242679E-03  0.21061757265E-03  0.87739908594E-04  0.17124000000E+03  0.17124000000E+03 0.  1.
</event>
<event>
 7   1  0.1356560E+02  0.9118800E+02  0.7818608E-02  0.1180000E+00
       11   -1    0    0    0    0  0.00000000000E+00  0.00000000000E+00  0.65999999802E+01  0.66000000000E+01  0.51109989000E-03 0.  1.
     -623   -1    0    0    0    0  0.00000000000E+00  0.00000000000E+00  0.75637274222E-11  0.17124000000E+03  0.17124000000E+03 0. -1.
      622    2    1    2    0    0 -0.13869389319E-01 -0.16082668957E-01  0.65618801943E+01  0.65619831375E+01  0.29999999913E-01 0.  0.
     -611    1    3    3    0    0 -0.14854779243E-01 -0.10192762965E-01  0.63295090527E+01  0.63295347117E+01  0.51109989000E-03 0.  1.
      611    1    3    3    0    0  0.98538992408E-03 -0.58899059919E-02  0.23237114160E+00  0.23244842580E+00  0.51109989000E-03 0. -1.
       11    1    1    2    0    0  0.11980346557E-01  0.12536552304E-01  0.33827785794E-01  0.38016761594E-01  0.51109989000E-03 0.  1.
     -623    1    1    2    0    0  0.18890427616E-02  0.35461166533E-02  0.42920001207E-02  0.17124000010E+03  0.17124000000E+03 0. -1.
</event>
<event>
 7   1  0.1356560E+02  0.9118800E+02  0.7818608E-02  0.1180000E+00
       11   -1    0    0    0    0  0.00000000000E+00  0.00000000000E+00  0.65999999802E+01  0.66000000000E+01  0.51109989000E-03 0. -1.
     -623   -1    0    0    0    0  0.00000000000E+00  0.00000000000E+00  0.75637274222E-11  0.17124000000E+03  0.17124000000E+03 0.  1.
      622    2    1    2    0    0  0.66761451328E-02  0.55562456496E-02  0.60800357470E+01  0.60801159633E+01  0.29999999964E-01 0.  0.
     -611    1    3    3    0    0 -0.65012096898E-02 -0.87833532313E-02  0.15681150673E+01  0.15681532255E+01  0.51109989000E-03 0.  1.
      611    1    3    3    0    0  0.13177354823E-01  0.14339598881E-01  0.45119206797E+01  0.45119627378E+01  0.51109989000E-03 0. -1.
       11    1    1    2    0    0 -0.65010120466E-02 -0.56600588165E-02  0.51981232191E+00  0.51988403578E+00  0.51109989000E-03 0. -1.
     -623    1    1    2    0    0 -0.17513308627E-03  0.10381316689E-03  0.15191060661E-03  0.17124000000E+03  0.17124000000E+03 0.  1.
</event>
<event>
 7   1  0.1356560E+02  0.9118800E+02  0.7818608E-02  0.1180000E+00
       11   -1    0    0    0    0  0.00000000000E+00  0.00000000000E+00  0.65999999802E+01  0.66000000000E+01  0.51109989000E-03 0. -1.
     -623   -1    0    0    0    0  0.00000000000E+00  0.00000000000E+00  0.75637274222E-11  0.17124000000E+03  0.17124000000E+03 0.  1.
      622    2    1    2    0    0 -0.37979035344E-01 -0.12078751835E-01  0.58137507738E+01  0.58139647714E+01  0.29999999772E-01 0.  0.
     -611    1    3    3    0    0 -0.27283348925E-01  0.66246249109E-02  0.29969962080E+01  0.29971277582E+01  0.51109989000E-03 0.  1.
      611    1    3    3    0    0 -0.10695686418E-01 -0.18703376745E-01  0.28167545657E+01  0.28168370132E+01  0.51109989000E-03 0. -1.
       11    1    1    2    0    0  0.47717182294E-01 -0.10108289072E-01  0.78451851705E+00  0.78603350552E+00  0.51109989000E-03 0. -1.
     -623    1    1    2    0    0 -0.97381469506E-02  0.22187040907E-01  0.17306893030E-02  0.17124000172E+03  0.17124000000E+03 0.  1.
</event>
<event>
 7   1  0.1356560E+02  0.9118800E+02  0.7818608E-02  0.1180000E+00
       11   -1    0    0    0    0  0.00000000000E+00  0.00000000000E+00  0.65999999802E+01  0.66000000000E+01  0.51109989000E-03 0. -1.
     -623   -1    0    0    0    0  0.00000000000E+00  0.00000000000E+00  0.75637274222E-11  0.17124000000E+03  0.17124000000E+03 0.  1.
      622    2    1    2    0    0 -0.10396899735E-01  0.17689122440E-01  0.59239889105E+01  0.59241004053E+01  0.30000000070E-01 0.  0.
     -611    1    3    3    0    0 -0.10721610182E-01  0.25886067475E-01  0.43844600980E+01  0.43845496523E+01  0.51109989000E-03 0. -1.
      611    1    3    3    0    0  0.32471044735E-03 -0.81969450348E-02  0.15395288125E+01  0.15395507530E+01  0.51109989000E-03 0.  1.
       11    1    1    2    0    0  0.10207841617E-01 -0.17791036829E-01  0.67558809872E+00  0.67589959416E+00  0.51109989000E-03 0. -1.
     -623    1    1    2    0    0  0.18905811736E-03  0.10191438903E-03  0.42297112848E-03  0.17124000000E+03  0.17124000000E+03 0.  1.
</event>
<event>
 7   1  0.1356560E+02  0.9118800E+02  0.7818608E-02  0.1180000E+00
       11   -1    0    0    0    0  0.00000000000E+00  0.00000000000E+00  0.65999999802E+01  0.66000000000E+01  0.51109989000E-03 0.  1.
     -623   -1    0    0    0    0  0.00000000000E+00  0.00000000000E+00  0.75637274222E-11  0.17124000000E+03  0.17124000000E+03 0. -1.
      622    2    1    2    0    0  0.29321632671E-03 -0.11385507883E-01  0.65256279364E+01  0.65257068338E+01  0.30000000099E-01 0.  0.
     -611    1    3    3    0    0  0.24703851111E-02 -0.16618544505E-01  0.62377804165E+01  0.62378030639E+01  0.51109989000E-03 0.  1.
      611    1    3    3    0    0 -0.21771687844E-02  0.52330366228E-02  0.28784751992E+00  0.28790376983E+00  0.51109989000E-03 0. -1.
       11    1    1    2    0    0 -0.42681203153E-02  0.15317813834E-01  0.72569594747E-01  0.74293065467E-01  0.51109989000E-03 0.  1.
     -623    1    1    2    0    0  0.39749039885E-02 -0.39323059518E-02  0.18024490618E-02  0.17124000010E+03  0.17124000000E+03 0. -1.
</event>
<event>
 7   1  0.1356560E+02  0.9118800E+02  0.7818608E-02  0.1180000E+00
       11   -1    0    0    0    0  0.00000000000E+00  0.00000000000E+00  0.65999999802E+01  0.66000000000E+01  0.51109989000E-03 0.  1.
     -623   -1    0    0    0    0  0.00000000000E+00  0.00000000000E+00  0.75637274222E-11  0.17124000000E+03  0.17124000000E+03 0.  1.
      622    2    1    2    0    0 -0.54518703940E-03  0.13630572600E-02  0.65897448709E+01  0.65898133220E+01  0.30000000571E-01 0.  0.
     -611    1    3    3    0    0  0.50085718201E-02 -0.12910239240E-01  0.23591189621E+01  0.23591596594E+01  0.51109989000E-03 0. -1.
      611    1    3    3    0    0 -0.55537588595E-02  0.14273296501E-01  0.42306259088E+01  0.42306536626E+01  0.51109989000E-03 0.  1.
       11    1    1    2    0    0  0.29964728680E-03 -0.13323752593E-02  0.10081775301E-01  0.10186678980E-01  0.51109989000E-03 0.  1.
     -623    1    1    2    0    0  0.24553975256E-03 -0.30682000750E-04  0.17333525865E-03  0.17124000000E+03  0.17124000000E+03 0.  1.
</event>
<event>
 7   1  0.1356560E+02  0.9118800E+02  0.7818608E-02  0.1180000E+00
       11   -1    0    0    0    0  0.00000000000E+00  0.00000000000E+00  0.65999999802E+01  0.66000000000E+01  0.51109989000E-03 0.  1.
     -623   -1    0    0    0    0  0.00000000000E+00  0.00000000000E+00  0.75637274222E-11  0.17124000000E+03  0.17124000000E+03 0. -1.
      622    2    1    2    0    0 -0.45474300848E-03 -0.30996274661E-02  0.51357488624E+01  0.51358374382E+01  0.29999999950E-01 0.  0.
     -611    1    3    3    0    0 -0.99629338709E-02  0.97981648842E-02  0.21406109476E+01  0.21406566175E+01  0.51109989000E-03 0.  1.
      611    1    3    3    0    0  0.95081908625E-02 -0.12897792350E-01  0.29951379148E+01  0.29951808207E+01  0.51109989000E-03 0. -1.
       11    1    1    2    0    0  0.83754007687E-02  0.53807915200E-02  0.14641284350E+01  0.14641623665E+01  0.51109989000E-03 0.  1.
     -623    1    1    2    0    0 -0.79206577564E-02 -0.22811640528E-02  0.12268605042E-03  0.17124000020E+03  0.17124000000E+03 0. -1.
</event>
<event>
 7   1  0.1356560E+02  0.9118800E+02  0.7818608E-02  0.1180000E+00
       11   -1    0    0    0    0  0.00000000000E+00  0.00000000000E+00  0.65999999802E+01  0.66000000000E+01  0.51109989000E-03 0. -1.
     -623   -1    0    0    0    0  0.00000000000E+00  0.00000000000E+00  0.75637274222E-11  0.17124000000E+03  0.17124000000E+03 0. -1.
      622    2    1    2    0    0 -0.49055064685E-02 -0.18746590044E-01  0.46328921495E+01  0.46330298043E+01  0.30000000020E-01 0.  0.
     -611    1    3    3    0    0  0.11530490880E-01 -0.98773220356E-02  0.13712673888E+01  0.13713515328E+01  0.51109989000E-03 0.  1.
      611    1    3    3    0    0 -0.16435997348E-01 -0.88692680080E-02  0.32616247607E+01  0.32616782714E+01  0.51109989000E-03 0. -1.
       11    1    1    2    0    0  0.48494915787E-02  0.17605616540E-01  0.19668853556E+01  0.19669701926E+01  0.51109989000E-03 0. -1.
     -623    1    1    2    0    0  0.56014889793E-04  0.11409735036E-02  0.22247597857E-03  0.17124000000E+03  0.17124000000E+03 0. -1.
</event>
<event>
 7   1  0.1356560E+02  0.9118800E+02  0.7818608E-02  0.1180000E+00
       11   -1    0    0    0    0  0.00000000000E+00  0.00000000000E+00  0.65999999802E+01  0.66000000000E+01  0.51109989000E-03 0. -1.
     -623   -1    0    0    0    0  0.00000000000E+00  0.00000000000E+00  0.75637274222E-11  0.17124000000E+03  0.17124000000E+03 0.  1.
      622    2    1    2    0    0  0.10851094015E-01  0.45175492584E-02  0.60957244333E+01  0.60958095871E+01  0.30000002175E-01 0.  0.
     -611    1    3    3    0    0  0.18415175809E-01  0.69265565961E-02  0.54587944199E+01  0.54588298998E+01  0.51109989000E-03 0. -1.
      611    1    3    3    0    0 -0.75640817935E-02 -0.24090073377E-02  0.63693001349E+00  0.63697968724E+00  0.51109989000E-03 0.  1.
       11    1    1    2    0    0 -0.10765913794E-01 -0.44756459458E-02  0.50405532877E+00  0.50419041244E+00  0.51109989000E-03 0. -1.
     -623    1    1    2    0    0 -0.85180221352E-04 -0.41903312670E-04  0.22021778285E-03  0.17124000000E+03  0.17124000000E+03 0.  1.
</event>
<event>
 7   1  0.1356560E+02  0.9118800E+02  0.7818608E-02  0.1180000E+00
       11   -1    0    0    0    0  0.00000000000E+00  0.00000000000E+00  0.65999999802E+01  0.66000000000E+01  0.51109989000E-03 0. -1.
     -623   -1    0    0    0    0  0.00000000000E+00  0.00000000000E+00  0.75637274222E-11  0.17124000000E+03  0.17124000000E+03 0.  1.
      622    2    1    2    0    0  0.27948300013E-02  0.80686723291E-02  0.56887864813E+01  0.56888719923E+01  0.30000000066E-01 0.  0.
     -611    1    3    3    0    0 -0.13344548635E-01  0.29670653447E-02  0.30949270707E+01  0.30949573041E+01  0.51109989000E-03 0. -1.
      611    1    3    3    0    0  0.16139378636E-01  0.51016069844E-02  0.25938594107E+01  0.25939146882E+01  0.51109989000E-03 0.  1.
       11    1    1    2    0    0 -0.37717844036E-02 -0.98682602219E-02  0.91106660175E+00  0.91112799483E+00  0.51109989000E-03 0. -1.
     -623    1    1    2    0    0  0.97695440232E-03  0.17995878930E-02  0.14689656973E-03  0.17124000001E+03  0.17124000000E+03 0.  1.
</event>
<event>
 7   1  0.1356560E+02  0.9118800E+02  0.7818608E-02  0.1180000E+00
       11   -1    0    0    0    0  0.00000000000E+00  0.00000000000E+00  0.65999999802E+01  0.66000000000E+01  0.51109989000E-03 0. -1.
     -623   -1    0    0    0    0  0.00000000000E+00  0.00000000000E+00  0.75637274222E-11  0.17124000000E+03  0.17124000000E+03 0. -1.
      622    2    1    2    0    0 -0.11149594485E-04 -0.33048368774E-02  0.65001983694E+01  0.65002684378E+01  0.30000000447E-01 0.  0.
     -611    1    3    3    0    0  0.52242865102E-03  0.78275425433E-02  0.55350839499E+01  0.55350895329E+01  0.51109989000E-03 0. -1.
      611    1    3    3    0    0 -0.53357824551E-03 -0.11132379421E-01  0.96511441947E+00  0.96517890490E+00  0.51109989000E-03 0.  1.
       11    1    1    2    0    0  0.14386622102E-02  0.20921973212E-02  0.99697910428E-01  0.99731547694E-01  0.51109989000E-03 0. -1.
     -623    1    1    2    0    0 -0.14275126167E-02  0.12126395569E-02  0.10369617367E-03  0.17124000001E+03  0.17124000000E+03 0. -1.
</event>
<event>
 7   1  0.1356560E+02  0.9118800E+02  0.7818608E-02  0.1180000E+00
       11   -1    0    0    0    0  0.00000000000E+00  0.00000000000E+00  0.65999999802E+01  0.66000000000E+01  0.51109989000E-03 0. -1.
     -623   -1    0    0    0    0  0.00000000000E+00  0.00000000000E+00  0.75637274222E-11  0.17124000000E+03  0.17124000000E+03 0. -1.
      622    2    1    2    0    0  0.90130107186E-02 -0.13683382070E-01  0.65503077860E+01  0.65503969773E+01  0.30000000246E-01 0.  0.
     -611    1    3    3    0    0  0.12210229561E-01 -0.21472633863E-01  0.54920174226E+01  0.54920729962E+01  0.51109989000E-03 0. -1.
      611    1    3    3    0    0 -0.31972188423E-02  0.77892517936E-02  0.10582903634E+01  0.10583239812E+01  0.51109989000E-03 0.  1.
       11    1    1    2    0    0 -0.31423160630E-02  0.68066181993E-02  0.49030303592E-01  0.49602783138E-01  0.51109989000E-03 0. -1.
     -623    1    1    2    0    0 -0.58706946552E-02  0.68767638699E-02  0.66189109015E-03  0.17124000024E+03  0.17124000000E+03 0. -1.
</event>
<event>
 7   1  0.1356560E+02  0.9118800E+02  0.7818608E-02  0.1180000E+00
       11   -1    0    0    0    0  0.00000000000E+00  0.00000000000E+00  0.65999999802E+01  0.66000000000E+01  0.51109989000E-03 0. -1.
     -623   -1    0    0    0    0  0.00000000000E+00  0.00000000000E+00  0.75637274222E-11  0.17124000000E+03  0.17124000000E+03 0. -1.
      622    2    1    2    0    0 -0.46122115349E-02 -0.69154535155E-02  0.65449733305E+01  0.65450473636E+01  0.29999999386E-01 0.  0.
     -611    1    3    3    0    0  0.11528782299E-01 -0.86005330633E-02  0.36654979121E+01  0.36655261678E+01  0.51109989000E-03 0. -1.
      611    1    3    3    0    0 -0.16140993834E-01  0.16850795478E-02  0.28794754183E+01  0.28795211958E+01  0.51109989000E-03 0.  1.
       11    1    1    2    0    0  0.23675927375E-02 -0.81864047937E-02  0.54284742828E-01  0.54951953977E-01  0.51109989000E-03 0. -1.
     -623    1    1    2    0    0  0.22446187975E-02  0.15101858309E-01  0.74190679771E-03  0.17124000068E+03  0.17124000000E+03 0. -1.
</event>
<event>
 7   1  0.1356560E+02  0.9118800E+02  0.7818608E-02  0.1180000E+00
       11   -1    0    0    0    0  0.00000000000E+00  0.00000000000E+00  0.65999999802E+01  0.66000000000E+01  0.51109989000E-03 0. -1.
     -623   -1    0    0    0    0  0.00000000000E+00  0.00000000000E+00  0.75637274222E-11  0.17124000000E+03  0.17124000000E+03 0.  1.
      622    2    1    2    0    0  0.73263255138E-04  0.42791907390E-04  0.65932247005E+01  0.65932929526E+01  0.30000000204E-01 0.  0.
     -611    1    3    3    0    0  0.14625001441E-01 -0.20526941465E-02  0.26972167644E+01  0.26972572438E+01  0.51109989000E-03 0.  1.
      611    1    3    3    0    0 -0.14551738186E-01  0.20954860539E-02  0.38960079362E+01  0.38960357088E+01  0.51109989000E-03 0. -1.
       11    1    1    2    0    0 -0.95415278154E-04  0.37114534110E-04  0.66867581814E-02  0.67070440313E-02  0.51109989000E-03 0. -1.
     -623    1    1    2    0    0  0.22152023027E-04 -0.79906441540E-04  0.88518187463E-04  0.17124000000E+03  0.17124000000E+03 0.  1.
</event>
<event>
 7   1  0.1356560E+02  0.9118800E+02  0.7818608E-02  0.1180000E+00
       11   -1    0    0    0    0  0.00000000000E+00  0.00000000000E+00  0.65999999802E+01  0.66000000000E+01  0.51109989000E-03 0.  1.
     -623   -1    0    0    0    0  0.00000000000E+00  0.00000000000E+00  0.75637274222E-11  0.17124000000E+03  0.17124000000E+03 0.  1.
      622    2    1    2    0    0  0.50061523443E-02 -0.23082058308E-02  0.64071935982E+01  0.64072662028E+01  0.29999999600E-01 0.  0.
     -611    1    3    3    0    0 -0.83181607420E-02 -0.73673214514E-02  0.11625445105E+01  0.11625977247E+01  0.51109989000E-03 0. -1.
      611    1    3    3    0    0  0.13324313086E-01  0.50591156206E-02  0.52446490876E+01  0.52446684781E+01  0.51109989000E-03 0.  1.
       11    1    1    2    0    0 -0.34619665216E-02 -0.25253289690E-02  0.19268540321E+00  0.19273372391E+00  0.51109989000E-03 0.  1.
     -623    1    1    2    0    0 -0.15441858224E-02  0.48335347983E-02  0.12098078840E-03  0.17124000008E+03  0.17124000000E+03 0.  1.
</event>
<event>
 7   1  0.1356560E+02  0.9118800E+02  0.7818608E-02  0.1180000E+00
       11   -1    0    0    0    0  0.00000000000E+00  0.00000000000E+00  0.65999999802E+01  0.66000000000E+01  0.51109989000E-03 0.  1.
     -623   -1    0    0    0    0  0.00000000000E+00  0.00000000000E+00  0.75637274222E-11  0.17124000000E+03  0.17124000000E+03 0. -1.
      622    2    1    2    0    0  0.19523466876E-02  0.21265296524E-02  0.64486605442E+01  0.64487309719E+01  0.30000000268E-01 0.  0.
     -611    1    3    3    0    0 -0.11952813096E-01  0.86407028249E-02  0.32674167651E+01  0.32674500929E+01  0.51109989000E-03 0. -1.
      611    1    3    3    0    0  0.13905159783E-01 -0.65141731725E-02  0.31812437790E+01  0.31812808789E+01  0.51109989000E-03 0.  1.
       11    1    1    2    0    0 -0.20343499514E-02 -0.23227021811E-02  0.15123665045E+00  0.15126902918E+00  0.51109989000E-03 0.  1.
     -623    1    1    2    0    0  0.82003263803E-04  0.19617252872E-03  0.10278682013E-03  0.17124000000E+03  0.17124000000E+03 0. -1.
</event>
<event>
 7   1  0.1356560E+02  0.9118800E+02  0.7818608E-02  0.1180000E+00
       11   -1    0    0    0    0  0.00000000000E+00  0.00000000000E+00  0.65999999802E+01  0.66000000000E+01  0.51109989000E-03 0.  1.
     -623   -1    0    0    0    0  0.00000000000E+00  0.00000000000E+00  0.75637274222E-11  0.17124000000E+03  0.17124000000E+03 0. -1.
      622    2    1    2    0    0  0.24823419970E-02 -0.24339627314E-04  0.63289675534E+01  0.63290391415E+01  0.29999999683E-01 0.  0.
     -611    1    3    3    0    0 -0.91289487509E-02 -0.10151643069E-01  0.21692016668E+01  0.21692446902E+01  0.51109989000E-03 0.  1.
      611    1    3    3    0    0  0.11611290748E-01  0.10127303442E-01  0.41597658867E+01  0.41597944513E+01  0.51109989000E-03 0. -1.
       11    1    1    2    0    0 -0.28016396291E-02  0.51153396720E-03  0.27094541056E+00  0.27096085987E+00  0.51109989000E-03 0.  1.
     -623    1    1    2    0    0  0.31929763199E-03 -0.48719433970E-03  0.87018630663E-04  0.17124000000E+03  0.17124000000E+03 0. -1.
</event>
<event>
 7   1  0.1356560E+02  0.9118800E+02  0.7818608E-02  0.1180000E+00
       11   -1    0    0    0    0  0.00000000000E+00  0.00000000000E+00  0.65999999802E+01  0.66000000000E+01  0.51109989000E-03 0.  1.
     -623   -1    0    0    0    0  0.00000000000E+00  0.00000000000E+00  0.75637274222E-11  0.17124000000E+03  0.17124000000E+03 0. -1.
      622    2    1    2    0    0  0.29455046250E-03  0.77780046286E-04  0.65936295509E+01  0.65936978053E+01  0.29999999195E-01 0.  0.
     -611    1    3    3    0    0 -0.67983179051E-02  0.67037377424E-03  0.61987348554E+01  0.61987386407E+01  0.51109989000E-03 0.  1.
      611    1    3    3    0    0  0.70928683676E-02 -0.59259372796E-03  0.39489469551E+00  0.39495916461E+00  0.51109989000E-03 0. -1.
       11    1    1    2    0    0  0.26217013198E-03  0.22721850681E-03  0.62718474259E-02  0.63021944320E-02  0.51109989000E-03 0.  1.
     -623    1    1    2    0    0 -0.55672059440E-03 -0.30499855305E-03  0.98582802300E-04  0.17124000000E+03  0.17124000000E+03 0. -1.
</event>
<event>
 7   1  0.1356560E+02  0.9118800E+02  0.7818608E-02  0.1180000E+00
       11   -1    0    0    0    0  0.00000000000E+00  0.00000000000E+00  0.65999999802E+01  0.66000000000E+01  0.51109989000E-03 0.  1.
     -623   -1    0    0    0    0  0.00000000000E+00  0.00000000000E+00  0.75637274222E-11  0.17124000000E+03  0.17124000000E+03 0.  1.
      622    2    1    2    0    0 -0.51580837456E-03 -0.29330828724E-03  0.65713319388E+01  0.65714004445E+01  0.30000000103E-01 0.  0.
     -611    1    3    3    0    0 -0.12469042705E-01  0.84511341076E-02  0.30259475910E+01  0.30259851261E+01  0.51109989000E-03 0. -1.
      611    1    3    3    0    0  0.11953234330E-01 -0.87444423949E-02  0.35453843477E+01  0.35454153183E+01  0.51109989000E-03 0.  1.
       11    1    1    2    0    0  0.80720407750E-03 -0.57672908907E-03  0.28577770528E-01  0.28599552204E-01  0.51109989000E-03 0.  1.
     -623    1    1    2    0    0 -0.29139570297E-03  0.87003737642E-03  0.90270077793E-04  0.17124000000E+03  0.17124000000E+03 0.  1.
</event>
<event>
 7   1  0.1356560E+02  0.9118800E+02  0.7818608E-02  0.1180000E+00
       11   -1    0    0    0    0  0.00000000000E+00  0.00000000000E+00  0.65999999802E+01  0.66000000000E+01  0.51109989000E-03 0.  1.
     -623   -1    0    0    0    0  0.00000000000E+00  0.00000000000E+00  0.75637274222E-11  0.17124000000E+03  0.17124000000E+03 0. -1.
      622    2    1    2    0    0  0.31207210185E-01 -0.80892529172E-02  0.61289687149E+01  0.61291269227E+01  0.30000000155E-01 0.  0.
     -611    1    3    3    0    0  0.27744197443E-02 -0.13880760941E-01  0.26154198674E+01  0.26154582232E+01  0.51109989000E-03 0. -1.
      611    1    3    3    0    0  0.28432790440E-01  0.57915080241E-02  0.35135488475E+01  0.35136686995E+01  0.51109989000E-03 0.  1.
       11    1    1    2    0    0  0.17671932477E-01  0.10202671908E-01  0.47042344662E+00  0.47086608719E+00  0.51109989000E-03 0.  1.
     -623    1    1    2    0    0 -0.48879142661E-01 -0.21134189909E-02  0.60781876628E-03  0.17124000699E+03  0.17124000000E+03 0. -1.
</event>
<event>
 7   1  0.1356560E+02  0.9118800E+02  0.7818608E-02  0.1180000E+00
       11   -1    0    0    0    0  0.00000000000E+00  0.00000000000E+00  0.65999999802E+01  0.66000000000E+01  0.51109989000E-03 0.  1.
     -623   -1    0    0    0    0  0.00000000000E+00  0.00000000000E+00  0.75637274222E-11  0.17124000000E+03  0.17124000000E+03 0.  1.
      622    2    1    2    0    0  0.13345253416E-01  0.18555824957E-02  0.61829565087E+01  0.61830439694E+01  0.29999999884E-01 0.  0.
     -611    1    3    3    0    0 -0.78334452097E-02 -0.53358128463E-02  0.12144561894E+01  0.12144932816E+01  0.51109989000E-03 0. -1.
      611    1    3    3    0    0  0.21178698626E-01  0.71913953420E-02  0.49685003192E+01  0.49685506878E+01  0.51109989000E-03 0.  1.
       11    1    1    2    0    0 -0.12255827070E-01 -0.17327082723E-02  0.41677195166E+00  0.41695602704E+00  0.51109989000E-03 0.  1.
     -623    1    1    2    0    0 -0.10894263464E-02 -0.12287422348E-03  0.27152002010E-03  0.17124000000E+03  0.17124000000E+03 0.  1.
</event>
<event>
 7   1  0.1356560E+02  0.9118800E+02  0.7818608E-02  0.1180000E+00
       11   -1    0    0    0    0  0.00000000000E+00  0.00000000000E+00  0.65999999802E+01  0.66000000000E+01  0.51109989000E-03 0. -1.
     -623   -1    0    0    0    0  0.00000000000E+00  0.00000000000E+00  0.75637274222E-11  0.17124000000E+03  0.17124000000E+03 0.  1.
      622    2    1    2    0    0 -0.83401726936E-02  0.30726442479E-02  0.64454229252E+01  0.64454988700E+01  0.29999998843E-01 0.  0.
     -611    1    3    3    0    0 -0.52116077680E-02  0.12702077880E-01  0.14368630864E+01  0.14369287713E+01  0.51109989000E-03 0.  1.
      611    1    3    3    0    0 -0.31285649256E-02 -0.96294336316E-02  0.50085598388E+01  0.50085700987E+01  0.51109989000E-03 0. -1.
       11    1    1    2    0    0  0.85180095910E-02 -0.21077966293E-02  0.15425089201E+00  0.15450112687E+00  0.51109989000E-03 0. -1.
     -623    1    1    2    0    0 -0.17783689732E-03 -0.96484761867E-03  0.32616307920E-03  0.17124000000E+03  0.17124000000E+03 0.  1.
</event>
<event>
 7   1  0.1356560E+02  0.9118800E+02  0.7818608E-02  0.1180000E+00
       11   -1    0    0    0    0  0.00000000000E+00  0.00000000000E+00  0.65999999802E+01  0.66000000000E+01  0.51109989000E-03 0. -1.
     -623   -1    0    0    0    0  0.00000000000E+00  0.00000000000E+00  0.75637274222E-11  0.17124000000E+03  0.17124000000E+03 0. -1.
      622    2    1    2    0    0 -0.39852839803E-02  0.77363033777E-02  0.64082483748E+01  0.64083245054E+01  0.29999999873E-01 0.  0.
     -611    1    3    3    0    0  0.42343934230E-02  0.13504237113E-01  0.55370887807E+01  0.55371068909E+01  0.51109989000E-03 0. -1.
      611    1    3    3    0    0 -0.82196774033E-02 -0.57679337353E-02  0.87115959407E+00  0.87121761445E+00  0.51109989000E-03 0.  1.
       11    1    1    2    0    0  0.48078546936E-02 -0.70433559231E-02  0.19148500948E+00  0.19167549245E+00  0.51109989000E-03 0. -1.
     -623    1    1    2    0    0 -0.82257071316E-03 -0.69294745446E-03  0.26659733882E-03  0.17124000000E+03  0.17124000000E+03 0. -1.
</event>
<event>
 7   1  0.1356560E+02  0.9118800E+02  0.7818608E-02  0.1180000E+00
       11   -1    0    0    0    0  0.00000000000E+00  0.00000000000E+00  0.65999999802E+01  0.66000000000E+01  0.51109989000E-03 0. -1.
     -623   -1    0    0    0    0  0.00000000000E+00  0.00000000000E+00  0.75637274222E-11  0.17124000000E+03  0.17124000000E+03 0. -1.
      622    2    1    2    0    0 -0.11598674539E-02 -0.24345650351E-02  0.65593330944E+01  0.65594022529E+01  0.29999998552E-01 0.  0.
     -611    1    3    3    0    0 -0.46821537898E-02 -0.24349146842E-02  0.20618624950E+00  0.20625441105E+00  0.51109989000E-03 0.  1.
      611    1    3    3    0    0  0.35222863359E-02  0.34964903688E-06  0.63531468449E+01  0.63531478419E+01  0.51109989000E-03 0. -1.
       11    1    1    2    0    0  0.20079536391E-02  0.21300550790E-02  0.40488843615E-01  0.40597742460E-01  0.51109989000E-03 0. -1.
     -623    1    1    2    0    0 -0.84808618545E-03  0.30450995619E-03  0.17804004577E-03  0.17124000000E+03  0.17124000000E+03 0. -1.
</event>
<event>
 7   1  0.1356560E+02  0.9118800E+02  0.7818608E-02  0.1180000E+00
       11   -1    0    0    0    0  0.00000000000E+00  0.00000000000E+00  0.65999999802E+01  0.66000000000E+01  0.51109989000E-03 0.  1.
     -623   -1    0    0    0    0  0.00000000000E+00  0.00000000000E+00  0.75637274222E-11  0.17124000000E+03  0.17124000000E+03 0. -1.
      622    2    1    2    0    0  0.11540606928E-01  0.67483168124E-02  0.32517696503E+01  0.32519355135E+01  0.30000000127E-01 0.  0.
     -611    1    3    3    0    0  0.30545581496E-02  0.17422534219E-01  0.22996094567E+01  0.22996775403E+01  0.51109989000E-03 0.  1.
      611    1    3    3    0    0  0.84860487784E-02 -0.10674217407E-01  0.95216019361E+00  0.95225797317E+00  0.51109989000E-03 0. -1.
       11    1    1    2    0    0 -0.14103172931E-01  0.25371861385E-01  0.33479355746E+01  0.33480614546E+01  0.51109989000E-03 0.  1.
     -623    1    1    2    0    0  0.25625660030E-02 -0.32120178197E-01  0.29475530171E-03  0.17124000303E+03  0.17124000000E+03 0. -1.
</event>
<event>
 7   1  0.1356560E+02  0.9118800E+02  0.7818608E-02  0.1180000E+00
       11   -1    0    0    0    0  0.00000000000E+00  0.00000000000E+00  0.65999999802E+01  0.66000000000E+01  0.51109989000E-03 0.  1.
     -623   -1    0    0    0    0  0.00000000000E+00  0.00000000000E+00  0.75637274222E-11  0.17124000000E+03  0.17124000000E+03 0. -1.
      622    2    1    2    0    0  0.57308157985E-04 -0.15240894536E-02  0.65873714887E+01  0.65874399774E+01  0.29999999730E-01 0.  0.
     -611    1    3    3    0    0  0.46801296471E-03  0.12506648457E-01  0.46803759316E+01  0.46803926926E+01  0.51109989000E-03 0.  1.
      611    1    3    3    0    0 -0.41070480673E-03 -0.14030737911E-01  0.19069955572E+01  0.19070472848E+01  0.51109989000E-03 0. -1.
       11    1    1    2    0    0  0.23622937832E-03  0.19510253951E-02  0.12394782342E-01  0.12560022166E-01  0.51109989000E-03 0.  1.
     -623    1    1    2    0    0 -0.29353753628E-03 -0.42693594151E-03  0.23370971642E-03  0.17124000000E+03  0.17124000000E+03 0. -1.
</event>
<event>
 7   1  0.1356560E+02  0.9118800E+02  0.7818608E-02  0.1180000E+00
       11   -1    0    0    0    0  0.00000000000E+00  0.00000000000E+00  0.65999999802E+01  0.66000000000E+01  0.51109989000E-03 0. -1.
     -623   -1    0    0    0    0  0.00000000000E+00  0.00000000000E+00  0.75637274222E-11  0.17124000000E+03  0.17124000000E+03 0.  1.
      622    2    1    2    0    0  0.12447802304E-01 -0.17709320979E-01  0.55162504007E+01  0.55163744480E+01  0.29999999989E-01 0.  0.
     -611    1    3    3    0    0 -0.64962409662E-02 -0.16293456869E-01  0.22260389945E+01  0.22261081609E+01  0.51109989000E-03 0. -1.
      611    1    3    3    0    0  0.18944043270E-01 -0.14158641101E-02  0.32902114062E+01  0.32902662871E+01  0.51109989000E-03 0.  1.
       11    1    1    2    0    0 -0.13676516973E-01  0.17469531628E-01  0.10833982799E+01  0.10836255468E+01  0.51109989000E-03 0. -1.
     -623    1    1    2    0    0  0.12287146684E-02  0.23978935152E-03  0.35129944095E-03  0.17124000000E+03  0.17124000000E+03 0.  1.
</event>
<event>
 7   1  0.1356560E+02  0.9118800E+02  0.7818608E-02  0.1180000E+00
       11   -1    0    0    0    0  0.00000000000E+00  0.00000000000E+00  0.65999999802E+01  0.66000000000E+01  0.51109989000E-03 0.  1.
     -623   -1    0    0    0    0  0.00000000000E+00  0.00000000000E+00  0.75637274222E-11  0.17124000000E+03  0.17124000000E+03 0.  1.
      622    2    1    2    0    0 -0.10906052378E-01  0.28350227201E-02  0.44636188227E+01  0.44637338601E+01  0.30000000242E-01 0.  0.
     -611    1    3    3    0    0 -0.15615239030E-01  0.70521066637E-03  0.43080129120E+01  0.43080413002E+01  0.51109989000E-03 0.  1.
      611    1    3    3    0    0  0.47091866518E-02  0.21298120537E-02  0.15560591071E+00  0.15569255990E+00  0.51109989000E-03 0. -1.
       11    1    1    2    0    0  0.10962876216E-01 -0.18963485443E-02  0.21362371060E+01  0.21362661387E+01  0.51109989000E-03 0.  1.
     -623    1    1    2    0    0 -0.56823837709E-04 -0.93867417561E-03  0.14405288254E-03  0.17124000000E+03  0.17124000000E+03 0.  1.
</event>
<event>
 7   1  0.1356560E+02  0.9118800E+02  0.7818608E-02  0.1180000E+00
       11   -1    0    0    0    0  0.00000000000E+00  0.00000000000E+00  0.65999999802E+01  0.66000000000E+01  0.51109989000E-03 0. -1.
     -623   -1    0    0    0    0  0.00000000000E+00  0.00000000000E+00  0.75637274222E-11  0.17124000000E+03  0.17124000000E+03 0. -1.
      622    2    1    2    0    0 -0.52257443083E-01  0.17509231399E-01  0.62189907181E+01  0.62193072738E+01  0.30000000226E-01 0.  0.
     -611    1    3    3    0    0 -0.48520182441E-02  0.39637074319E-02  0.17087241092E+00  0.17098799693E+00  0.51109989000E-03 0.  1.
      611    1    3    3    0    0 -0.47405424839E-01  0.13545523967E-01  0.60481183072E+01  0.60483192769E+01  0.51109989000E-03 0. -1.
       11    1    1    2    0    0  0.33258422992E-01 -0.34498725446E-01  0.37766246403E+00  0.38069079673E+00  0.51109989000E-03 0. -1.
     -623    1    1    2    0    0  0.18999020091E-01  0.16989494048E-01  0.33467980511E-02  0.17124000193E+03  0.17124000000E+03 0. -1.
</event>
<event>
 7   1  0.1356560E+02  0.9118800E+02  0.7818608E-02  0.1180000E+00
       11   -1    0    0    0    0  0.00000000000E+00  0.00000000000E+00  0.65999999802E+01  0.66000000000E+01  0.51109989000E-03 0.  1.
     -623   -1    0    0    0    0  0.00000000000E+00  0.00000000000E+00  0.75637274222E-11  0.17124000000E+03  0.17124000000E+03 0. -1.
      622    2    1    2    0    0  0.53193873683E-02  0.38377972181E-03  0.17153189790E+01  0.17155895905E+01  0.30000000012E-01 0.  0.
     -611    1    3    3    0    0 -0.24787473662E-03  0.13466362518E-02  0.16558489188E+01  0.16558495638E+01  0.51109989000E-03 0.  1.
      611    1    3    3    0    0  0.55672621049E-02 -0.96285652999E-03  0.59470060224E-01  0.59740026667E-01  0.51109989000E-03 0. -1.
       11    1    1    2    0    0  0.76524316518E-02 -0.14370590547E-01  0.48843821839E+01  0.48844093453E+01  0.51109989000E-03 0.  1.
     -623    1    1    2    0    0 -0.12971819023E-01  0.13986810828E-01  0.29881595440E-03  0.17124000106E+03  0.17124000000E+03 0. -1.
</event>
<event>
 7   1  0.1356560E+02  0.9118800E+02  0.7818608E-02  0.1180000E+00
       11   -1    0    0    0    0  0.00000000000E+00  0.00000000000E+00  0.65999999802E+01  0.66000000000E+01  0.51109989000E-03 0. -1.
     -623   -1    0    0    0    0  0.00000000000E+00  0.00000000000E+00  0.75637274222E-11  0.17124000000E+03  0.17124000000E+03 0. -1.
      622    2    1    2    0    0  0.35480666028E-02 -0.56599262647E-02  0.62959818257E+01  0.62960568432E+01  0.30000007196E-01 0.  0.
     -611    1    3    3    0    0  0.95317327178E-02  0.99755949214E-02  0.25108967771E+01  0.25109347369E+01  0.51109989000E-03 0.  1.
      611    1    3    3    0    0 -0.59836661150E-02 -0.15635521186E-01  0.37850850486E+01  0.37851221063E+01  0.51109989000E-03 0. -1.
       11    1    1    2    0    0 -0.20684696791E-01 -0.33977543791E-02  0.30321792839E+00  0.30394205819E+00  0.51109989000E-03 0. -1.
     -623    1    1    2    0    0  0.17136630188E-01  0.90576806434E-02  0.80022645875E-03  0.17124000110E+03  0.17124000000E+03 0. -1.
</event>
<event>
 7   1  0.1356560E+02  0.9118800E+02  0.7818608E-02  0.1180000E+00
       11   -1    0    0    0    0  0.00000000000E+00  0.00000000000E+00  0.65999999802E+01  0.66000000000E+01  0.51109989000E-03 0.  1.
     -623   -1    0    0    0    0  0.00000000000E+00  0.00000000000E+00  0.75637274222E-11  0.17124000000E+03  0.17124000000E+03 0. -1.
      622    2    1    2    0    0  0.20300885825E-03  0.82428764963E-03  0.65964367252E+01  0.65965049982E+01  0.29999999888E-01 0.  0.
     -611    1    3    3    0    0  0.28984941413E-02 -0.50337109966E-02  0.62773725103E+01  0.62773752185E+01  0.51109989000E-03 0.  1.
      611    1    3    3    0    0 -0.26954852830E-02  0.58579986462E-02  0.31906421497E+00  0.31912977969E+00  0.51109989000E-03 0. -1.
       11    1    1    2    0    0  0.54748235116E-03 -0.22409557532E-03  0.34064407176E-02  0.34949988858E-02  0.51109989000E-03 0.  1.
     -623    1    1    2    0    0 -0.75049120943E-03 -0.60019207432E-03  0.15681407461E-03  0.17124000000E+03  0.17124000000E+03 0. -1.
</event>
<event>
 7   1  0.1356560E+02  0.9118800E+02  0.7818608E-02  0.1180000E+00
       11   -1    0    0    0    0  0.00000000000E+00  0.00000000000E+00  0.65999999802E+01  0.66000000000E+01  0.51109989000E-03 0. -1.
     -623   -1    0    0    0    0  0.00000000000E+00  0.00000000000E+00  0.75637274222E-11  0.17124000000E+03  0.17124000000E+03 0. -1.
      622    2    1    2    0    0  0.10075191076E-02 -0.14329779853E-02  0.65629633947E+01  0.65630321947E+01  0.29999999871E-01 0.  0.
     -611    1    3    3    0    0  0.24785179920E-03  0.12228887342E-01  0.48006063859E+01  0.48006219952E+01  0.51109989000E-03 0. -1.
      611    1    3    3    0    0  0.75966730843E-03 -0.13661865328E-01  0.17623570088E+01  0.17624101995E+01  0.51109989000E-03 0.  1.
       11    1    1    2    0    0  0.21263621578E-02  0.16044994030E-02  0.36868137061E-01  0.36967777696E-01  0.51109989000E-03 0. -1.
     -623    1    1    2    0    0 -0.31338812649E-02 -0.17152141774E-03  0.16844970018E-03  0.17124000003E+03  0.17124000000E+03 0. -1.
</event>
<event>
 7   1  0.1356560E+02  0.9118800E+02  0.7818608E-02  0.1180000E+00
       11   -1    0    0    0    0  0.00000000000E+00  0.00000000000E+00  0.65999999802E+01  0.66000000000E+01  0.51109989000E-03 0. -1.
     -623   -1    0    0    0    0  0.00000000000E+00  0.00000000000E+00  0.75637274222E-11  0.17124000000E+03  0.17124000000E+03 0.  1.
      622    2    1    2    0    0 -0.13544413583E-02 -0.91888647330E-03  0.65982560131E+01  0.65983244155E+01  0.29999999953E-01 0.  0.
     -611    1    3    3    0    0  0.58300698896E-02 -0.10502449157E-02  0.62024557509E+01  0.62024586009E+01  0.51109989000E-03 0. -1.
      611    1    3    3    0    0 -0.71845112480E-02  0.13135844237E-03  0.39580026219E+00  0.39586581468E+00  0.51109989000E-03 0.  1.
       11    1    1    2    0    0  0.44543981422E-03  0.92227538714E-03  0.12236596507E-02  0.16755818560E-02  0.51109989000E-03 0. -1.
     -623    1    1    2    0    0  0.90900154401E-03 -0.33889138422E-05  0.52030810891E-03  0.17124000000E+03  0.17124000000E+03 0.  1.
</event>
<event>
 7   1  0.1356560E+02  0.9118800E+02  0.7818608E-02  0.1180000E+00
       11   -1    0    0    0    0  0.00000000000E+00  0.00000000000E+00  0.65999999802E+01  0.66000000000E+01  0.51109989000E-03 0. -1.
     -623   -1    0    0    0    0  0.00000000000E+00  0.00000000000E+00  0.75637274222E-11  0.17124000000E+03  0.17124000000E+03 0. -1.
      622    2    1    2    0    0 -0.96142674085E-03  0.24613527808E-02  0.65835377485E+01  0.65836066307E+01  0.30000000026E-01 0.  0.
     -611    1    3    3    0    0 -0.35713387022E-02  0.81429060516E-02  0.60464065956E+00  0.60470625083E+00  0.51109989000E-03 0.  1.
      611    1    3    3    0    0  0.26099119614E-02 -0.56815532708E-02  0.59788970889E+01  0.59789003799E+01  0.51109989000E-03 0. -1.
       11    1    1    2    0    0  0.28484005552E-02  0.38957146082E-03  0.16131182280E-01  0.16393334514E-01  0.51109989000E-03 0. -1.
     -623    1    1    2    0    0 -0.18869738144E-02 -0.28509242418E-02  0.33104915640E-03  0.17124000003E+03  0.17124000000E+03 0. -1.
</event>
<event>
 7   1  0.1356560E+02  0.9118800E+02  0.7818608E-02  0.1180000E+00
       11   -1    0    0    0    0  0.00000000000E+00  0.00000000000E+00  0.65999999802E+01  0.66000000000E+01  0.51109989000E-03 0. -1.
     -623   -1    0    0    0    0  0.00000000000E+00  0.00000000000E+00  0.75637274222E-11  0.17124000000E+03  0.17124000000E+03 0.  1.
      622    2    1    2    0    0  0.23377525866E-01  0.30889364345E-01  0.42410162265E+01  0.42412992461E+01  0.30000000716E-01 0.  0.
     -611    1    3    3    0    0  0.14003202754E-01  0.32012378771E-01  0.23543121446E+01  0.23545714721E+01  0.51109989000E-03 0.  1.
      611    1    3    3    0    0  0.93743231116E-02 -0.11230144256E-02  0.18867040820E+01  0.18867277740E+01  0.51109989000E-03 0. -1.
       11    1    1    2    0    0 -0.20828886185E-01 -0.32336195251E-01  0.23583870311E+01  0.23587007275E+01  0.51109989000E-03 0. -1.
     -623    1    1    2    0    0 -0.25486396811E-02  0.14468309057E-02  0.59672230007E-03  0.17124000003E+03  0.17124000000E+03 0.  1.
</event>
<event>
 7   1  0.1356560E+02  0.9118800E+02  0.7818608E-02  0.1180000E+00
       11   -1    0    0    0    0  0.00000000000E+00  0.00000000000E+00  0.65999999802E+01  0.66000000000E+01  0.51109989000E-03 0. -1.
     -623   -1    0    0    0    0  0.00000000000E+00  0.00000000000E+00  0.75637274222E-11  0.17124000000E+03  0.17124000000E+03 0. -1.
      622    2    1    2    0    0  0.57969744906E-01  0.22662695105E-01  0.46822079277E+01  0.46827177116E+01  0.30000000430E-01 0.  0.
     -611    1    3    3    0    0  0.14105234801E-01 -0.69986915197E-02  0.12960247571E+01  0.12961205082E+01  0.51109989000E-03 0.  1.
      611    1    3    3    0    0  0.43864510105E-01  0.29661386625E-01  0.33861831705E+01  0.33865972035E+01  0.51109989000E-03 0. -1.
       11    1    1    2    0    0 -0.50964888717E-01 -0.61585538044E-02  0.19165938923E+01  0.19172813453E+01  0.51109989000E-03 0. -1.
     -623    1    1    2    0    0 -0.70048561896E-02 -0.16504141302E-01  0.11981599648E-02  0.17124000094E+03  0.17124000000E+03 0. -1.
</event>
<event>
 7   1  0.1356560E+02  0.9118800E+02  0.7818608E-02  0.1180000E+00
       11   -1    0    0    0    0  0.00000000000E+00  0.00000000000E+00  0.65999999802E+01  0.66000000000E+01  0.51109989000E-03 0. -1.
     -623   -1    0    0    0    0  0.00000000000E+00  0.00000000000E+00  0.75637274222E-11  0.17124000000E+03  0.17124000000E+03 0.  1.
      622    2    1    2    0    0  0.66094680798E-02 -0.66006651224E-04  0.64854171013E+01  0.64854898556E+01  0.29999999888E-01 0.  0.
     -611    1    3    3    0    0  0.99561653299E-02 -0.30551808727E-02  0.76591284689E+00  0.76598381811E+00  0.51109989000E-03 0.  1.
      611    1    3    3    0    0 -0.33466972501E-02  0.29891742215E-02  0.57195042544E+01  0.57195060375E+01  0.51109989000E-03 0. -1.
       11    1    1    2    0    0 -0.85485791359E-02  0.97740415506E-03  0.11418526753E+00  0.11451013086E+00  0.51109989000E-03 0. -1.
     -623    1    1    2    0    0  0.19391110559E-02 -0.91139750378E-03  0.39761172044E-03  0.17124000001E+03  0.17124000000E+03 0.  1.
</event>
<event>
 7   1  0.1356560E+02  0.9118800E+02  0.7818608E-02  0.1180000E+00
       11   -1    0    0    0    0  0.00000000000E+00  0.00000000000E+00  0.65999999802E+01  0.66000000000E+01  0.51109989000E-03 0.  1.
     -623   -1    0    0    0    0  0.00000000000E+00  0.00000000000E+00  0.75637274222E-11  0.17124000000E+03  0.17124000000E+03 0.  1.
      622    2    1    2    0    0  0.34471863039E-02 -0.26212465833E-02  0.65341995254E+01  0.65342698285E+01  0.29999999945E-01 0.  0.
     -611    1    3    3    0    0 -0.96333438720E-02  0.58410370661E-02  0.43529406371E+01  0.43529552457E+01  0.51109989000E-03 0. -1.
      611    1    3    3    0    0  0.13080530176E-01 -0.84622836493E-02  0.21812588883E+01  0.21813145829E+01  0.51109989000E-03 0.  1.
       11    1    1    2    0    0 -0.40350394419E-02 -0.36976056813E-03  0.65603142411E-01  0.65730143644E-01  0.51109989000E-03 0.  1.
     -623    1    1    2    0    0  0.58785313804E-03  0.29910071517E-02  0.19731180437E-03  0.17124000003E+03  0.17124000000E+03 0.  1.
</event>
<event>
 7   1  0.1356560E+02  0.9118800E+02  0.7818608E-02  0.1180000E+00
       11   -1    0    0    0    0  0.00000000000E+00  0.00000000000E+00  0.65999999802E+01  0.66000000000E+01  0.51109989000E-03 0. -1.
     -623   -1    0    0    0    0  0.00000000000E+00  0.00000000000E+00  0.75637274222E-11  0.17124000000E+03  0.17124000000E+03 0. -1.
      622    2    1    2    0    0 -0.68601184765E-02  0.14847228620E-01  0.58350599990E+01  0.58351600401E+01  0.29999999960E-01 0.  0.
     -611    1    3    3    0    0  0.57987519880E-04 -0.60186102709E-02  0.32478397605E+00  0.32484014431E+00  0.51109989000E-03 0.  1.
      611    1    3    3    0    0 -0.69181059963E-02  0.20865838891E-01  0.55102760230E+01  0.55103198958E+01  0.51109989000E-03 0. -1.
       11    1    1    2    0    0 -0.22140333791E-02 -0.17142561293E-01  0.76464419221E+00  0.76483970298E+00  0.51109989000E-03 0. -1.
     -623    1    1    2    0    0  0.90741518568E-02  0.22953326730E-02  0.29578813132E-03  0.17124000026E+03  0.17124000000E+03 0. -1.
</event>
<event>
 7   1  0.1356560E+02  0.9118800E+02  0.7818608E-02  0.1180000E+00
       11   -1    0    0    0    0  0.00000000000E+00  0.00000000000E+00  0.65999999802E+01  0.66000000000E+01  0.51109989000E-03 0.  1.
     -623   -1    0    0    0    0  0.00000000000E+00  0.00000000000E+00  0.75637274222E-11  0.17124000000E+03  0.17124000000E+03 0. -1.
      622    2    1    2    0    0  0.23310188542E-03  0.46118147660E-03  0.65852271849E+01  0.65852955395E+01  0.30000000255E-01 0.  0.
     -611    1    3    3    0    0  0.12907071926E-02  0.91604730784E-02  0.59551619234E+01  0.59551691307E+01  0.51109989000E-03 0.  1.
      611    1    3    3    0    0 -0.10576053072E-02 -0.86992916018E-02  0.63006526145E+00  0.63012640884E+00  0.51109989000E-03 0. -1.
       11    1    1    2    0    0  0.11045420690E-02  0.90680411318E-03  0.14625912561E-01  0.14704449946E-01  0.51109989000E-03 0.  1.
     -623    1    1    2    0    0 -0.13376439544E-02 -0.13679855897E-02  0.14688304826E-03  0.17124000001E+03  0.17124000000E+03 0. -1.
</event>
<event>
 7   1  0.1356560E+02  0.9118800E+02  0.7818608E-02  0.1180000E+00
       11   -1    0    0    0    0  0.00000000000E+00  0.00000000000E+00  0.65999999802E+01  0.66000000000E+01  0.51109989000E-03 0. -1.
     -623   -1    0    0    0    0  0.00000000000E+00  0.00000000000E+00  0.75637274222E-11  0.17124000000E+03  0.17124000000E+03 0.  1.
      622    2    1    2    0    0  0.40335156744E-02  0.17527980846E-02  0.65941648334E+01  0.65942345417E+01  0.29999999798E-01 0.  0.
     -611    1    3    3    0    0 -0.12470116068E-01 -0.33937294429E-02  0.30780527755E+01  0.30780799488E+01  0.51109989000E-03 0. -1.
      611    1    3    3    0    0  0.16503631742E-01  0.51465275274E-02  0.35161120579E+01  0.35161545929E+01  0.51109989000E-03 0.  1.
       11    1    1    2    0    0 -0.23066762487E-02  0.47451973715E-02  0.22670867832E-02  0.57652891507E-02  0.51109989000E-03 0. -1.
     -623    1    1    2    0    0 -0.17268394257E-02 -0.64979954561E-02  0.35680601029E-02  0.17124000017E+03  0.17124000000E+03 0.  1.
</event>
<event>
 7   1  0.1356560E+02  0.9118800E+02  0.7818608E-02  0.1180000E+00
       11   -1    0    0    0    0  0.00000000000E+00  0.00000000000E+00  0.65999999802E+01  0.66000000000E+01  0.51109989000E-03 0.  1.
     -623   -1    0    0    0    0  0.00000000000E+00  0.00000000000E+00  0.75637274222E-11  0.17124000000E+03  0.17124000000E+03 0.  1.
      622    2    1    2    0    0 -0.59061074965E-02  0.61558669588E-02  0.62275332374E+01  0.62276113398E+01  0.30000000563E-01 0.  0.
     -611    1    3    3    0    0 -0.11420343187E-01  0.91219745286E-02  0.58985231409E+01  0.58985412721E+01  0.51109989000E-03 0.  1.
      611    1    3    3    0    0  0.55142356902E-02 -0.29661075698E-02  0.32901009654E+00  0.32907006767E+00  0.51109989000E-03 0. -1.
       11    1    1    2    0    0  0.58095407659E-02 -0.64119737691E-02  0.37228777647E+00  0.37238865974E+00  0.51109989000E-03 0.  1.
     -623    1    1    2    0    0  0.96566730609E-04  0.25610681033E-03  0.17896621358E-03  0.17124000000E+03  0.17124000000E+03 0.  1.
</event>
<event>
 7   1  0.1356560E+02  0.9118800E+02  0.7818608E-02  0.1180000E+00
       11   -1    0    0    0    0  0.00000000000E+00  0.00000000000E+00  0.65999999802E+01  0.66000000000E+01  0.51109989000E-03 0.  1.
     -623   -1    0    0    0    0  0.00000000000E+00  0.00000000000E+00  0.75637274222E-11  0.17124000000E+03  0.17124000000E+03 0.  1.
      622    2    1    2    0    0  0.64746562931E-02 -0.10675176176E-02  0.65872086658E+01  0.65872802481E+01  0.29999998145E-01 0.  0.
     -611    1    3    3    0    0  0.11952811548E-01  0.42146988817E-04  0.63258879000E+01  0.63258992132E+01  0.51109989000E-03 0.  1.
      611    1    3    3    0    0 -0.54781552544E-02 -0.11096646064E-02  0.26132076580E+00  0.26138103490E+00  0.51109989000E-03 0. -1.
       11    1    1    2    0    0 -0.14981633375E-02  0.38111732091E-03  0.12615039898E-01  0.12719677611E-01  0.51109989000E-03 0. -1.
     -623    1    1    2    0    0 -0.49764929559E-02  0.68640029672E-03  0.17627404289E-03  0.17124000007E+03  0.17124000000E+03 0.  1.
</event>
<event>
 7   1  0.1356560E+02  0.9118800E+02  0.7818608E-02  0.1180000E+00
       11   -1    0    0    0    0  0.00000000000E+00  0.00000000000E+00  0.65999999802E+01  0.66000000000E+01  0.51109989000E-03 0. -1.
     -623   -1    0    0    0    0  0.00000000000E+00  0.00000000000E+00  0.75637274222E-11  0.17124000000E+03  0.17124000000E+03 0. -1.
      622    2    1    2    0    0  0.14933617230E-02 -0.33279668449E-02  0.65542561098E+01  0.65543257821E+01  0.30000001729E-01 0.  0.
     -611    1    3    3    0    0  0.10067003948E-01 -0.91629711382E-02  0.55354361148E+01  0.55354528764E+01  0.51109989000E-03 0. -1.
      611    1    3    3    0    0 -0.85736422252E-02  0.58350042933E-02  0.10188199950E+01  0.10188729058E+01  0.51109989000E-03 0.  1.
       11    1    1    2    0    0 -0.11912930598E-02  0.32099179327E-02  0.45542837941E-01  0.45674216612E-01  0.51109989000E-03 0. -1.
     -623    1    1    2    0    0 -0.30206866326E-03  0.11804891222E-03  0.20103165576E-03  0.17124000000E+03  0.17124000000E+03 0. -1.
</event>
<event>
 7   1  0.1356560E+02  0.9118800E+02  0.7818608E-02  0.1180000E+00
       11   -1    0    0    0    0  0.00000000000E+00  0.00000000000E+00  0.65999999802E+01  0.66000000000E+01  0.51109989000E-03 0.  1.
     -623   -1    0    0    0    0  0.00000000000E+00  0.00000000000E+00  0.75637274222E-11  0.17124000000E+03  0.17124000000E+03 0.  1.
      622    2    1    2    0    0 -0.19524597175E-01  0.23972990612E-01  0.47324371481E+01  0.47326332284E+01  0.30000000244E-01 0.  0.
     -611    1    3    3    0    0  0.47415220641E-02 -0.36717703183E-02  0.50050494158E+00  0.50054112887E+00  0.51109989000E-03 0. -1.
      611    1    3    3    0    0 -0.24266119239E-01  0.27644760930E-01  0.42319322065E+01  0.42320920996E+01  0.51109989000E-03 0.  1.
       11    1    1    2    0    0  0.22921767610E-01 -0.14756937688E-01  0.18671674198E+01  0.18673664904E+01  0.51109989000E-03 0.  1.
     -623    1    1    2    0    0 -0.33971704345E-02 -0.92160529226E-02  0.39541329938E-03  0.17124000028E+03  0.17124000000E+03 0.  1.
</event>
<event>
 7   1  0.1356560E+02  0.9118800E+02  0.7818608E-02  0.1180000E+00
       11   -1    0    0    0    0  0.00000000000E+00  0.00000000000E+00  0.65999999802E+01  0.66000000000E+01  0.51109989000E-03 0.  1.
     -623   -1    0    0    0    0  0.00000000000E+00  0.00000000000E+00  0.75637274222E-11  0.17124000000E+03  0.17124000000E+03 0.  1.
      622    2    1    2    0    0 -0.98286719817E-03 -0.37413036519E-03  0.65978713852E+01  0.65979396725E+01  0.30000000044E-01 0.  0.
     -611    1    3    3    0    0  0.13627235781E-01 -0.42625289918E-02  0.25505041244E+01  0.25505441421E+01  0.51109989000E-03 0.  1.
      611    1    3    3    0    0 -0.14610102979E-01  0.38883986266E-02  0.40473672608E+01  0.40473955304E+01  0.51109989000E-03 0. -1.
       11    1    1    2    0    0  0.18834709180E-03 -0.13814119569E-03  0.19822106473E-02  0.20603251600E-02  0.51109989000E-03 0. -1.
     -623    1    1    2    0    0  0.79452010633E-03  0.51227156085E-03  0.14638467971E-03  0.17124000000E+03  0.17124000000E+03 0.  1.
</event>
<event>
 7   1  0.1356560E+02  0.9118800E+02  0.7818608E-02  0.1180000E+00
       11   -1    0    0    0    0  0.00000000000E+00  0.00000000000E+00  0.65999999802E+01  0.66000000000E+01  0.51109989000E-03 0.  1.
     -623   -1    0    0    0    0  0.00000000000E+00  0.00000000000E+00  0.75637274222E-11  0.17124000000E+03  0.17124000000E+03 0. -1.
      622    2    1    2    0    0 -0.97374399562E-02 -0.29089740480E-02  0.64337598369E+01  0.64338378064E+01  0.29999999774E-01 0.  0.
     -611    1    3    3    0    0 -0.85643406436E-02 -0.12841881888E-01  0.55456102422E+01  0.55456317477E+01  0.51109989000E-03 0.  1.
      611    1    3    3    0    0 -0.11730993126E-02  0.99329078398E-02  0.88814959468E+00  0.88820605862E+00  0.51109989000E-03 0. -1.
       11    1    1    2    0    0  0.92662247291E-02  0.21275919653E-02  0.16588918917E+00  0.16616219148E+00  0.51109989000E-03 0.  1.
     -623    1    1    2    0    0  0.47121522709E-03  0.78138208265E-03  0.35095478770E-03  0.17124000000E+03  0.17124000000E+03 0. -1.
</event>
<event>
 7   1  0.1356560E+02  0.9118800E+02  0.7818608E-02  0.1180000E+00
       11   -1    0    0    0    0  0.00000000000E+00  0.00000000000E+00  0.65999999802E+01  0.66000000000E+01  0.51109989000E-03 0. -1.
     -623   -1    0    0    0    0  0.00000000000E+00  0.00000000000E+00  0.75637274222E-11  0.17124000000E+03  0.17124000000E+03 0. -1.
      622    2    1    2    0    0 -0.33180328440E-02 -0.15049529453E-02  0.57515726152E+01  0.57516520081E+01  0.30000000083E-01 0.  0.
     -611    1    3    3    0    0  0.70643127631E-02 -0.10588369279E-01  0.14127477021E+01  0.14128051349E+01  0.51109989000E-03 0.  1.
      611    1    3    3    0    0 -0.10382345607E-01  0.90834163338E-02  0.43388249131E+01  0.43388468733E+01  0.51109989000E-03 0. -1.
       11    1    1    2    0    0  0.58679070732E-02 -0.21653288033E-02  0.84832472079E+00  0.84834793222E+00  0.51109989000E-03 0. -1.
     -623    1    1    2    0    0 -0.25498742297E-02  0.36702817493E-02  0.10264288967E-03  0.17124000006E+03  0.17124000000E+03 0. -1.
</event>
<event>
 7   1  0.1356560E+02  0.9118800E+02  0.7818608E-02  0.1180000E+00
       11   -1    0    0    0    0  0.00000000000E+00  0.00000000000E+00  0.65999999802E+01  0.66000000000E+01  0.51109989000E-03 0.  1.
     -623   -1    0    0    0    0  0.00000000000E+00  0.00000000000E+00  0.75637274222E-11  0.17124000000E+03  0.17124000000E+03 0. -1.
      622    2    1    2    0    0 -0.21992469513E-01  0.23019978363E-01  0.26913782671E+01  0.26917337470E+01  0.30000000069E-01 0.  0.
     -611    1    3    3    0    0 -0.16863354768E-01  0.25046618728E-01  0.13243611332E+01  0.13247053930E+01  0.51109989000E-03 0. -1.
      611    1    3    3    0    0 -0.51291147441E-02 -0.20266403646E-02  0.13670171339E+01  0.13670283540E+01  0.51109989000E-03 0.  1.
       11    1    1    2    0    0  0.21977305297E-01 -0.23350073578E-01  0.39081346708E+01  0.39082662517E+01  0.51109989000E-03 0.  1.
     -623    1    1    2    0    0  0.15164215857E-04  0.33009521458E-03  0.48704203508E-03  0.17124000000E+03  0.17124000000E+03 0. -1.
</event>
<event>
 7   1  0.1356560E+02  0.9118800E+02  0.7818608E-02  0.1180000E+00
       11   -1    0    0    0    0  0.00000000000E+00  0.00000000000E+00  0.65999999802E+01  0.66000000000E+01  0.51109989000E-03 0.  1.
     -623   -1    0    0    0    0  0.00000000000E+00  0.00000000000E+00  0.75637274222E-11  0.17124000000E+03  0.17124000000E+03 0. -1.
      622    2    1    2    0    0  0.16883254085E-03  0.21556075864E-04  0.65721821396E+01  0.65722506118E+01  0.30000001718E-01 0.  0.
     -611    1    3    3    0    0  0.15042694390E-01  0.84776200832E-03  0.31856044032E+01  0.31856400732E+01  0.51109989000E-03 0. -1.
      611    1    3    3    0    0 -0.14873861849E-01 -0.82620593245E-03  0.33865777364E+01  0.33866105386E+01  0.51109989000E-03 0.  1.
       11    1    1    2    0    0  0.90288101103E-04 -0.76267521888E-04  0.27744438082E-01  0.27749397044E-01  0.51109989000E-03 0.  1.
     -623    1    1    2    0    0 -0.25912064159E-03  0.54711445948E-04  0.73411663910E-04  0.17124000000E+03  0.17124000000E+03 0. -1.
</event>
<event>
 7   1  0.1356560E+02  0.9118800E+02  0.7818608E-02  0.1180000E+00
       11   -1    0    0    0    0  0.00000000000E+00  0.00000000000E+00  0.65999999802E+01  0.66000000000E+01  0.51109989000E-03 0.  1.
     -623   -1    0    0    0    0  0.00000000000E+00  0.00000000000E+00  0.75637274222E-11  0.17124000000E+03  0.17124000000E+03 0. -1.
      622    2    1    2    0    0  0.10801109574E-01 -0.69904654670E-02  0.57474977490E+01  0.57475904434E+01  0.29999999318E-01 0.  0.
     -611    1    3    3    0    0 -0.63276377990E-02 -0.11811776848E-01  0.33379867708E+01  0.33380137058E+01  0.51109989000E-03 0.  1.
      611    1    3    3    0    0  0.17128747373E-01  0.48213113811E-02  0.24095109783E+01  0.24095767376E+01  0.51109989000E-03 0. -1.
       11    1    1    2    0    0 -0.12449847253E-01  0.59587205765E-02  0.85229763961E+00  0.85240954520E+00  0.51109989000E-03 0.  1.
     -623    1    1    2    0    0  0.16487376788E-02  0.10317448905E-02  0.20459140019E-03  0.17124000001E+03  0.17124000000E+03 0. -1.
</event>
<event>
 7   1  0.1356560E+02  0.9118800E+02  0.7818608E-02  0.1180000E+00
       11   -1    0    0    0    0  0.00000000000E+00  0.00000000000E+00  0.65999999802E+01  0.66000000000E+01  0.51109989000E-03 0.  1.
     -623   -1    0    0    0    0  0.00000000000E+00  0.00000000000E+00  0.75637274222E-11  0.17124000000E+03  0.17124000000E+03 0.  1.
      622    2    1    2    0    0 -0.43228888978E-02 -0.24790965908E-03  0.65983978581E+01  0.65984674768E+01  0.30000000227E-01 0.  0.
     -611    1    3    3    0    0 -0.10843158908E-01  0.83069111718E-02  0.16108334102E+01  0.16108914040E+01  0.51109989000E-03 0. -1.
      611    1    3    3    0    0  0.65202700101E-02 -0.85548208309E-02  0.49875644479E+01  0.49875760728E+01  0.51109989000E-03 0.  1.
       11    1    1    2    0    0  0.11191236438E-02  0.26749569210E-03  0.87367959954E-03  0.15324917016E-02  0.51109989000E-03 0.  1.
     -623    1    1    2    0    0  0.32037652540E-02 -0.19586033016E-04  0.72844255826E-03  0.17124000003E+03  0.17124000000E+03 0.  1.
</event>
<event>
 7   1  0.1356560E+02  0.9118800E+02  0.7818608E-02  0.1180000E+00
       11   -1    0    0    0    0  0.00000000000E+00  0.00000000000E+00  0.65999999802E+01  0.66000000000E+01  0.51109989000E-03 0.  1.
     -623   -1    0    0    0    0  0.00000000000E+00  0.00000000000E+00  0.75637274222E-11  0.17124000000E+03  0.17124000000E+03 0. -1.
      622    2    1    2    0    0 -0.10983415959E-01  0.31511073438E-01  0.53828639281E+01  0.53830509613E+01  0.30000000208E-01 0.  0.
     -611    1    3    3    0    0  0.62758098199E-02 -0.26737881350E-03  0.34744203637E+00  0.34749919013E+00  0.51109989000E-03 0. -1.
      611    1    3    3    0    0 -0.17259225779E-01  0.31778452252E-01  0.50354218918E+01  0.50355517712E+01  0.51109989000E-03 0.  1.
       11    1    1    2    0    0  0.27235499276E-01 -0.47260155997E-01  0.12157243736E+01  0.12169475373E+01  0.51109989000E-03 0.  1.
     -623    1    1    2    0    0 -0.16252083317E-01  0.15749082559E-01  0.14116783684E-02  0.17124000150E+03  0.17124000000E+03 0. -1.
</event>
<event>
 7   1  0.1356560E+02  0.9118800E+02  0.7818608E-02  0.1180000E+00
       11   -1    0    0    0    0  0.00000000000E+00  0.00000000000E+00  0.65999999802E+01  0.66000000000E+01  0.51109989000E-03 0.  1.
     -623   -1    0    0    0    0  0.00000000000E+00  0.00000000000E+00  0.75637274222E-11  0.17124000000E+03  0.17124000000E+03 0. -1.
      622    2    1    2    0    0 -0.23748887567E-03 -0.34962200934E-03  0.65952060971E+01  0.65952743417E+01  0.29999999604E-01 0.  0.
     -611    1    3    3    0    0  0.12546228993E-01 -0.15786695487E-02  0.50152368435E+01  0.50152528110E+01  0.51109989000E-03 0.  1.
      611    1    3    3    0    0 -0.12783717868E-01  0.12290475393E-02  0.15799692536E+01  0.15800215307E+01  0.51109989000E-03 0. -1.
       11    1    1    2    0    0  0.25734503634E-04  0.43949585682E-03  0.46772601823E-02  0.47256539001E-02  0.51109989000E-03 0.  1.
     -623    1    1    2    0    0  0.21175437217E-03 -0.89873847533E-04  0.11661869616E-03  0.17124000000E+03  0.17124000000E+03 0. -1.
</event>
<event>
 7   1  0.1356560E+02  0.9118800E+02  0.7818608E-02  0.1180000E+00
       11   -1    0    0    0    0  0.00000000000E+00  0.00000000000E+00  0.65999999802E+01  0.66000000000E+01  0.51109989000E-03 0. -1.
     -623   -1    0    0    0    0  0.00000000000E+00  0.00000000000E+00  0.75637274222E-11  0.17124000000E+03  0.17124000000E+03 0.  1.
      622    2    1    2    0    0  0.21987139479E-01 -0.13286812574E-01  0.50088271563E+01  0.50089828763E+01  0.30000000231E-01 0.  0.
     -611    1    3    3    0    0  0.12373982970E-01 -0.16399846245E-01  0.14959675157E+01  0.14961086657E+01  0.51109989000E-03 0.  1.
      611    1    3    3    0    0  0.96131565094E-02  0.31130336705E-02  0.35128596406E+01  0.35128742106E+01  0.51109989000E-03 0. -1.
       11    1    1    2    0    0 -0.27468031598E-01 -0.16503595868E-02  0.15907783177E+01  0.15910163839E+01  0.51109989000E-03 0. -1.
     -623    1    1    2    0    0  0.54808921186E-02  0.14937172161E-01  0.39450606680E-03  0.17124000074E+03  0.17124000000E+03 0.  1.
</event>
<event>
 7   1  0.1356560E+02  0.9118800E+02  0.7818608E-02  0.1180000E+00
       11   -1    0    0    0    0  0.00000000000E+00  0.00000000000E+00  0.65999999802E+01  0.66000000000E+01  0.51109989000E-03 0.  1.
     -623   -1    0    0    0    0  0.00000000000E+00  0.00000000000E+00  0.75637274222E-11  0.17124000000E+03  0.17124000000E+03 0.  1.
      622    2    1    2    0    0 -0.17148271189E-02 -0.82094045068E-03  0.65104951540E+01  0.65105645504E+01  0.30000000510E-01 0.  0.
     -611    1    3    3    0    0  0.92379463707E-03  0.18104032805E-02  0.32117317611E-01  0.32185622104E-01  0.51109989000E-03 0. -1.
      611    1    3    3    0    0 -0.26386217560E-02 -0.26313437312E-02  0.64783778363E+01  0.64783789283E+01  0.51109989000E-03 0.  1.
       11    1    1    2    0    0  0.12763155691E-03  0.12922273385E-02  0.89424555738E-01  0.89435443385E-01  0.51109989000E-03 0.  1.
     -623    1    1    2    0    0  0.15871955616E-02 -0.47128688768E-03  0.80272282712E-04  0.17124000001E+03  0.17124000000E+03 0.  1.
</event>
<event>
 7   1  0.1356560E+02  0.9118800E+02  0.7818608E-02  0.1180000E+00
       11   -1    0    0    0    0  0.00000000000E+00  0.00000000000E+00  0.65999999802E+01  0.66000000000E+01  0.51109989000E-03 0.  1.
     -623   -1    0    0    0    0  0.00000000000E+00  0.00000000000E+00  0.75637274222E-11  0.17124000000E+03  0.17124000000E+03 0.  1.
      622    2    1    2    0    0 -0.20890677414E-03 -0.22747855248E-03  0.65982998316E+01  0.65983680379E+01  0.29999999676E-01 0.  0.
     -611    1    3    3    0    0  0.12790682229E-01 -0.77393889508E-02  0.34135287294E+01  0.34135615048E+01  0.51109989000E-03 0. -1.
      611    1    3    3    0    0 -0.12999589003E-01  0.75119103984E-02  0.31847711023E+01  0.31848065331E+01  0.51109989000E-03 0.  1.
       11    1    1    2    0    0 -0.43414165607E-03 -0.21026073901E-03  0.14728832609E-02  0.16319610147E-02  0.51109989000E-03 0.  1.
     -623    1    1    2    0    0  0.64304843013E-03  0.43773929143E-03  0.22726615035E-03  0.17124000000E+03  0.17124000000E+03 0.  1.
</event>
<event>
 7   1  0.1356560E+02  0.9118800E+02  0.7818608E-02  0.1180000E+00
       11   -1    0    0    0    0  0.00000000000E+00  0.00000000000E+00  0.65999999802E+01  0.66000000000E+01  0.51109989000E-03 0. -1.
     -623   -1    0    0    0    0  0.00000000000E+00  0.00000000000E+00  0.75637274222E-11  0.17124000000E+03  0.17124000000E+03 0. -1.
      622    2    1    2    0    0  0.44837133160E-02 -0.13718510214E-02  0.52049456532E+01  0.52050342207E+01  0.30000000020E-01 0.  0.
     -611    1    3    3    0    0 -0.17594303459E-02  0.44586183050E-02  0.47798952781E+01  0.47798977087E+01  0.51109989000E-03 0. -1.
      611    1    3    3    0    0  0.62431436619E-02 -0.58304693264E-02  0.42505037513E+00  0.42513651200E+00  0.51109989000E-03 0.  1.
       11    1    1    2    0    0  0.25993621616E-02 -0.22601528806E-02  0.13949612460E+01  0.13949655924E+01  0.51109989000E-03 0. -1.
     -623    1    1    2    0    0 -0.70830754797E-02  0.36320039031E-02  0.93079150287E-04  0.17124000019E+03  0.17124000000E+03 0. -1.
</event>
<event>
 7   1  0.1356560E+02  0.9118800E+02  0.7818608E-02  0.1180000E+00
       11   -1    0    0    0    0  0.00000000000E+00  0.00000000000E+00  0.65999999802E+01  0.66000000000E+01  0.51109989000E-03 0. -1.
     -623   -1    0    0    0    0  0.00000000000E+00  0.00000000000E+00  0.75637274222E-11  0.17124000000E+03  0.17124000000E+03 0.  1.
      622    2    1    2    0    0  0.14356562086E-01  0.15345133810E-02  0.54281563490E+01  0.54282584513E+01  0.29999999310E-01 0.  0.
     -611    1    3    3    0    0 -0.88793329988E-02  0.76020020954E-03  0.95700672719E+00  0.95704835696E+00  0.51109989000E-03 0.  1.
      611    1    3    3    0    0  0.23235895085E-01  0.77431317141E-03  0.44711496218E+01  0.44712100944E+01  0.51109989000E-03 0. -1.
       11    1    1    2    0    0 -0.57777191166E-02  0.12310967949E-01  0.11716617438E+01  0.11717407755E+01  0.51109989000E-03 0. -1.
     -623    1    1    2    0    0 -0.85788429675E-02 -0.13845481327E-01  0.18188904613E-03  0.17124000077E+03  0.17124000000E+03 0.  1.
</event>
<event>
 7   1  0.1356560E+02  0.9118800E+02  0.7818608E-02  0.1180000E+00
       11   -1    0    0    0    0  0.00000000000E+00  0.00000000000E+00  0.65999999802E+01  0.66000000000E+01  0.51109989000E-03 0. -1.
     -623   -1    0    0    0    0  0.00000000000E+00  0.00000000000E+00  0.75637274222E-11  0.17124000000E+03  0.17124000000E+03 0.  1.
      622    2    1    2    0    0  0.12551075822E-01  0.11054228352E-01  0.40717590937E+01  0.40719039579E+01  0.30000000119E-01 0.  0.
     -611    1    3    3    0    0 -0.63776154667E-02 -0.39964532431E-02  0.44280614177E+00  0.44287039417E+00  0.51109989000E-03 0.  1.
      611    1    3    3    0    0  0.18928691288E-01  0.15050681595E-01  0.36289529519E+01  0.36290335637E+01  0.51109989000E-03 0. -1.
       11    1    1    2    0    0 -0.13859856465E-01 -0.14556817419E-01  0.25280160492E+01  0.25280960035E+01  0.51109989000E-03 0. -1.
     -623    1    1    2    0    0  0.13087806429E-02  0.35025890660E-02  0.22483969421E-03  0.17124000004E+03  0.17124000000E+03 0.  1.
</event>
<event>
 7   1  0.1356560E+02  0.9118800E+02  0.7818608E-02  0.1180000E+00
       11   -1    0    0    0    0  0.00000000000E+00  0.00000000000E+00  0.65999999802E+01  0.66000000000E+01  0.51109989000E-03 0.  1.
     -623   -1    0    0    0    0  0.00000000000E+00  0.00000000000E+00  0.75637274222E-11  0.17124000000E+03  0.17124000000E+03 0. -1.
      622    2    1    2    0    0  0.14513737745E-01  0.13931097099E-01  0.37892904284E+01  0.37894625839E+01  0.29999999701E-01 0.  0.
     -611    1    3    3    0    0  0.32419617771E-02  0.12819885500E-02  0.46335765506E-01  0.46469540550E-01  0.51109989000E-03 0. -1.
      611    1    3    3    0    0  0.11271775968E-01  0.12649108549E-01  0.37429546629E+01  0.37429930433E+01  0.51109989000E-03 0.  1.
       11    1    1    2    0    0  0.29461488608E-01 -0.76181694228E-02  0.28103668618E+01  0.28105316535E+01  0.51109989000E-03 0.  1.
     -623    1    1    2    0    0 -0.43975226349E-01 -0.63129276755E-02  0.34269058230E-03  0.17124000576E+03  0.17124000000E+03 0. -1.
</event>
<event>
 7   1  0.1356560E+02  0.9118800E+02  0.7818608E-02  0.1180000E+00
       11   -1    0    0    0    0  0.00000000000E+00  0.00000000000E+00  0.65999999802E+01  0.66000000000E+01  0.51109989000E-03 0. -1.
     -623   -1    0    0    0    0  0.00000000000E+00  0.00000000000E+00  0.75637274222E-11  0.17124000000E+03  0.17124000000E+03 0. -1.
      622    2    1    2    0    0  0.22109392097E-02 -0.64261907129E-02  0.61694131603E+01  0.61694898433E+01  0.29999999861E-01 0.  0.
     -611    1    3    3    0    0  0.97631554744E-02 -0.14319319963E-01  0.24867159581E+01  0.24867764032E+01  0.51109989000E-03 0. -1.
      611    1    3    3    0    0 -0.75522162648E-02  0.78931292500E-02  0.36826972022E+01  0.36827134401E+01  0.51109989000E-03 0.  1.
       11    1    1    2    0    0  0.18517018297E-01 -0.13332958076E-02  0.43010794523E+00  0.43050872630E+00  0.51109989000E-03 0. -1.
     -623    1    1    2    0    0 -0.20727957505E-01  0.77594865198E-02  0.47887528537E-03  0.17124000143E+03  0.17124000000E+03 0. -1.
</event>
<event>
 7   1  0.1356560E+02  0.9118800E+02  0.7818608E-02  0.1180000E+00
       11   -1    0    0    0    0  0.00000000000E+00  0.00000000000E+00  0.65999999802E+01  0.66000000000E+01  0.51109989000E-03 0.  1.
     -623   -1    0    0    0    0  0.00000000000E+00  0.00000000000E+00  0.75637274222E-11  0.17124000000E+03  0.17124000000E+03 0.  1.
      622    2    1    2    0    0 -0.43313117969E-02 -0.78063492625E-02  0.29755462868E+01  0.29757109074E+01  0.29999998102E-01 0.  0.
     -611    1    3    3    0    0 -0.35192589893E-03  0.88778409711E-02  0.19558349523E+01  0.19558551996E+01  0.51109989000E-03 0.  1.
      611    1    3    3    0    0 -0.39793858980E-02 -0.16684190234E-01  0.10197113345E+01  0.10198557078E+01  0.51109989000E-03 0. -1.
       11    1    1    2    0    0  0.42609395021E-02  0.85912960631E-02  0.36242763656E+01  0.36242890891E+01  0.51109989000E-03 0.  1.
     -623    1    1    2    0    0  0.70372294900E-04 -0.78494680081E-03  0.17732618441E-03  0.17124000000E+03  0.17124000000E+03 0.  1.
</event>
<event>
 7   1  0.1356560E+02  0.9118800E+02  0.7818608E-02  0.1180000E+00
       11   -1    0    0    0    0  0.00000000000E+00  0.00000000000E+00  0.65999999802E+01  0.66000000000E+01  0.51109989000E-03 0. -1.
     -623   -1    0    0    0    0  0.00000000000E+00  0.00000000000E+00  0.75637274222E-11  0.17124000000E+03  0.17124000000E+03 0. -1.
      622    2    1    2    0    0  0.26852720513E-03 -0.84121745165E-04  0.65671959988E+01  0.65672645269E+01  0.29999999575E-01 0.  0.
     -611    1    3    3    0    0  0.12849229741E-01  0.78850264744E-02  0.31968359141E+01  0.31968715018E+01  0.51109989000E-03 0.  1.
      611    1    3    3    0    0 -0.12580702536E-01 -0.79691482196E-02  0.33703600847E+01  0.33703930250E+01  0.51109989000E-03 0. -1.
       11    1    1    2    0    0  0.93164574199E-05 -0.77514779388E-03  0.32722299042E-01  0.32735470344E-01  0.51109989000E-03 0. -1.
     -623    1    1    2    0    0 -0.27784366256E-03  0.85926953910E-03  0.81681984544E-04  0.17124000000E+03  0.17124000000E+03 0. -1.
</event>
<event>
 7   1  0.2293331E+02  0.9118800E+02  0.7818608E-02  0.1180000E+00
       11   -1    0    0    0    0  0.00000000000E+00  0.00000000000E+00  0.65999999802E+01  0.66000000000E+01  0.51109989000E-03 0. -1.
     -623   -1    0    0    0    0  0.00000000000E+00  0.00000000000E+00  0.75637274222E-11  0.17124000000E+03  0.17124000000E+03 0.  1.
      622    2    1    2    0    0 -0.59137173277E-03  0.47365934487E-03  0.65985055405E+01  0.65985737809E+01  0.30000000089E-01 0.  0.
     -611    1    3    3    0    0  0.42756741406E-02 -0.19752005190E-02  0.63733098246E+01  0.63733115853E+01  0.51109989000E-03 0. -1.
      611    1    3    3    0    0 -0.48670458734E-02  0.24488598639E-02  0.22519571595E+00  0.22526219557E+00  0.51109989000E-03 0.  1.
       11    1    1    2    0    0  0.76863209599E-03  0.42938285181E-03  0.99885081568E-03  0.14262156155E-02  0.51109989000E-03 0. -1.
     -623    1    1    2    0    0 -0.17726036323E-03 -0.90304219671E-03  0.49558861611E-03  0.17124000000E+03  0.17124000000E+03 0.  1.
</event>
<event>
 7   1  0.1356560E+02  0.9118800E+02  0.7818608E-02  0.1180000E+00
       11   -1    0    0    0    0  0.00000000000E+00  0.00000000000E+00  0.65999999802E+01  0.66000000000E+01  0.51109989000E-03 0. -1.
     -623   -1    0    0    0    0  0.00000000000E+00  0.00000000000E+00  0.75637274222E-11  0.17124000000E+03  0.17124000000E+03 0.  1.
      622    2    1    2    0    0 -0.32701363577E-01  0.72465275766E-02  0.34289487103E+01  0.34292435244E+01  0.29999999404E-01 0.  0.
     -611    1    3    3    0    0 -0.20654936095E-01 -0.68678346885E-02  0.10684252504E+01  0.10686470748E+01  0.51109989000E-03 0. -1.
      611    1    3    3    0    0 -0.12046427482E-01  0.14114362265E-01  0.23605234599E+01  0.23605964496E+01  0.51109989000E-03 0.  1.
       11    1    1    2    0    0  0.37961157510E-01 -0.80087728655E-02  0.31705189869E+01  0.31707563921E+01  0.51109989000E-03 0. -1.
     -623    1    1    2    0    0 -0.52597939332E-02  0.76224528895E-03  0.53228265847E-03  0.17124000008E+03  0.17124000000E+03 0.  1.
</event>
<event>
 7   1  0.1356560E+02  0.9118800E+02  0.7818608E-02  0.1180000E+00
       11   -1    0    0    0    0  0.00000000000E+00  0.00000000000E+00  0.65999999802E+01  0.66000000000E+01  0.51109989000E-03 0. -1.
     -623   -1    0    0    0    0  0.00000000000E+00  0.00000000000E+00  0.75637274222E-11  0.17124000000E+03  0.17124000000E+03 0.  1.
      622    2    1    2    0    0  0.18531665469E-02 -0.37329979101E-02  0.48901972081E+01  0.48902910040E+01  0.30000000382E-01 0.  0.
     -611    1    3    3    0    0  0.14292135047E-01  0.44616905633E-02  0.28485469351E+01  0.28485863291E+01  0.51109989000E-03 0.  1.
      611    1    3    3    0    0 -0.12438968500E-01 -0.81946884734E-02  0.20416502730E+01  0.20417046748E+01  0.51109989000E-03 0. -1.
       11    1    1    2    0    0 -0.19543332318E-02  0.37632481086E-02  0.17097036570E+01  0.17097089920E+01  0.51109989000E-03 0. -1.
     -623    1    1    2    0    0  0.10116668498E-03 -0.30250198530E-04  0.99111194399E-04  0.17124000000E+03  0.17124000000E+03 0.  1.
</event>
<event>
 7   1  0.1356560E+02  0.9118800E+02  0.7818608E-02  0.1180000E+00
       11   -1    0    0    0    0  0.00000000000E+00  0.00000000000E+00  0.65999999802E+01  0.66000000000E+01  0.51109989000E-03 0. -1.
     -623   -1    0    0    0    0  0.00000000000E+00  0.00000000000E+00  0.75637274222E-11  0.17124000000E+03  0.17124000000E+03 0.  1.
      622    2    1    2    0    0  0.66316467325E-03 -0.42907781159E-04  0.54418107742E+01  0.54418935072E+01  0.30000000559E-01 0.  0.
     -611    1    3    3    0    0  0.95823464449E-02  0.99593560522E-02  0.16144345442E+01  0.16144937810E+01  0.51109989000E-03 0.  1.
      611    1    3    3    0    0 -0.89191817716E-02 -0.10002263833E-01  0.38273762300E+01  0.38273997262E+01  0.51109989000E-03 0. -1.
       11    1    1    2    0    0 -0.43669538926E-02  0.13132893465E-02  0.11580973613E+01  0.11581064522E+01  0.51109989000E-03 0. -1.
     -623    1    1    2    0    0  0.37037892170E-02 -0.12703815645E-02  0.91848864352E-04  0.17124000004E+03  0.17124000000E+03 0.  1.
</event>
<event>
 7   1  0.1356560E+02  0.9118800E+02  0.7818608E-02  0.1180000E+00
       11   -1    0    0    0    0  0.00000000000E+00  0.00000000000E+00  0.65999999802E+01  0.66000000000E+01  0.51109989000E-03 0.  1.
     -623   -1    0    0    0    0  0.00000000000E+00  0.00000000000E+00  0.75637274222E-11  0.17124000000E+03  0.17124000000E+03 0. -1.
      622    2    1    2    0    0  0.15704064447E-02  0.11155649332E-02  0.64190493331E+01  0.64191197256E+01  0.29999999594E-01 0.  0.
     -611    1    3    3    0    0 -0.90455813366E-03 -0.11506997193E-01  0.49640742217E+01  0.49640876673E+01  0.51109989000E-03 0. -1.
      611    1    3    3    0    0  0.24749645783E-02  0.12622562126E-01  0.14549751114E+01  0.14550320583E+01  0.51109989000E-03 0.  1.
       11    1    1    2    0    0 -0.16982259853E-02 -0.10712712511E-02  0.18086840377E+00  0.18088027062E+00  0.51109989000E-03 0.  1.
     -623    1    1    2    0    0  0.12781954069E-03 -0.44293682125E-04  0.82239625872E-04  0.17124000000E+03  0.17124000000E+03 0. -1.
</event>
<event>
 7   1  0.1356560E+02  0.9118800E+02  0.7818608E-02  0.1180000E+00
       11   -1    0    0    0    0  0.00000000000E+00  0.00000000000E+00  0.65999999802E+01  0.66000000000E+01  0.51109989000E-03 0.  1.
     -623   -1    0    0    0    0  0.00000000000E+00  0.00000000000E+00  0.75637274222E-11  0.17124000000E+03  0.17124000000E+03 0.  1.
      622    2    1    2    0    0 -0.90793138812E-02 -0.81018202932E-03  0.65529904258E+01  0.65530654362E+01  0.29999999644E-01 0.  0.
     -611    1    3    3    0    0 -0.61171604108E-02  0.24233092039E-02  0.29643488143E+00  0.29650833417E+00  0.51109989000E-03 0. -1.
      611    1    3    3    0    0 -0.29621534704E-02 -0.32334912332E-02  0.62565555444E+01  0.62565571020E+01  0.51109989000E-03 0.  1.
       11    1    1    2    0    0  0.80885832133E-02 -0.41253578278E-03  0.46227652744E-01  0.46934555133E-01  0.51109989000E-03 0.  1.
     -623    1    1    2    0    0  0.99073066790E-03  0.12227178120E-02  0.78190200943E-03  0.17124000001E+03  0.17124000000E+03 0.  1.
</event>
<event>
 7   1  0.1356560E+02  0.9118800E+02  0.7818608E-02  0.1180000E+00
       11   -1    0    0    0    0  0.00000000000E+00  0.00000000000E+00  0.65999999802E+01  0.66000000000E+01  0.51109989000E-03 0. -1.
     -623   -1    0    0    0    0  0.00000000000E+00  0.00000000000E+00  0.75637274222E-11  0.17124000000E+03  0.17124000000E+03 0.  1.
      622    2    1    2    0    0  0.11551367744E-02  0.42958388043E-02  0.64680653382E+01  0.64681364401E+01  0.30000000603E-01 0.  0.
     -611    1    3    3    0    0 -0.21797206216E-02 -0.12719540916E-01  0.29739578782E+01  0.29739859213E+01  0.51109989000E-03 0. -1.
      611    1    3    3    0    0  0.33348573960E-02  0.17015379720E-01  0.34941074600E+01  0.34941505188E+01  0.51109989000E-03 0.  1.
       11    1    1    2    0    0  0.54564475052E-03 -0.41085759141E-02  0.13179740990E+00  0.13186355297E+00  0.51109989000E-03 0. -1.
     -623    1    1    2    0    0 -0.17007815245E-02 -0.18726289022E-03  0.13723380494E-03  0.17124000001E+03  0.17124000000E+03 0.  1.
</event>
<event>
 7   1  0.1356560E+02  0.9118800E+02  0.7818608E-02  0.1180000E+00
       11   -1    0    0    0    0  0.00000000000E+00  0.00000000000E+00  0.65999999802E+01  0.66000000000E+01  0.51109989000E-03 0.  1.
     -623   -1    0    0    0    0  0.00000000000E+00  0.00000000000E+00  0.75637274222E-11  0.17124000000E+03  0.17124000000E+03 0. -1.
      622    2    1    2    0    0  0.13174414502E-02  0.14594098763E-02  0.65116010648E+01  0.65116704686E+01  0.30000000460E-01 0.  0.
     -611    1    3    3    0    0 -0.84076548222E-02 -0.10898220234E-01  0.24251627278E+01  0.24252018426E+01  0.51109989000E-03 0. -1.
      611    1    3    3    0    0  0.97250962724E-02  0.12357630111E-01  0.40864383369E+01  0.40864686260E+01  0.51109989000E-03 0.  1.
       11    1    1    2    0    0 -0.12343015270E-02 -0.31018832474E-03  0.88318881000E-01  0.88329528931E-01  0.51109989000E-03 0.  1.
     -623    1    1    2    0    0 -0.83139923161E-04 -0.11492215513E-02  0.80035923327E-04  0.17124000000E+03  0.17124000000E+03 0. -1.
</event>
<event>
 7   1  0.1356560E+02  0.9118800E+02  0.7818608E-02  0.1180000E+00
       11   -1    0    0    0    0  0.00000000000E+00  0.00000000000E+00  0.65999999802E+01  0.66000000000E+01  0.51109989000E-03 0.  1.
     -623   -1    0    0    0    0  0.00000000000E+00  0.00000000000E+00  0.75637274222E-11  0.17124000000E+03  0.17124000000E+03 0.  1.
      622    2    1    2    0    0  0.26905679625E-03 -0.48397733831E-03  0.65967014467E+01  0.65967696855E+01  0.29999999710E-01 0.  0.
     -611    1    3    3    0    0 -0.27183960367E-03 -0.10787945680E-02  0.65900742352E+01  0.65900743489E+01  0.51109989000E-03 0.  1.
      611    1    3    3    0    0  0.54089639992E-03  0.59481722971E-03  0.66272114879E-02  0.66953365602E-02  0.51109989000E-03 0. -1.
       11    1    1    2    0    0  0.18673727728E-03  0.57075780558E-03  0.31325812473E-02  0.32303132436E-02  0.51109989000E-03 0.  1.
     -623    1    1    2    0    0 -0.45579407357E-03 -0.86780467274E-04  0.16595172118E-03  0.17124000000E+03  0.17124000000E+03 0.  1.
</event>
<event>
 7   1  0.1356560E+02  0.9118800E+02  0.7818608E-02  0.1180000E+00
       11   -1    0    0    0    0  0.00000000000E+00  0.00000000000E+00  0.65999999802E+01  0.66000000000E+01  0.51109989000E-03 0.  1.
     -623   -1    0    0    0    0  0.00000000000E+00  0.00000000000E+00  0.75637274222E-11  0.17124000000E+03  0.17124000000E+03 0.  1.
      622    2    1    2    0    0 -0.15980823068E-02  0.34856105635E-02  0.64776186832E+01  0.64776892877E+01  0.29999999645E-01 0.  0.
     -611    1    3    3    0    0  0.43909422739E-02 -0.29143148794E-02  0.21746930336E+00  0.21753375079E+00  0.51109989000E-03 0. -1.
      611    1    3    3    0    0 -0.59890245807E-02  0.63999254429E-02  0.62601493798E+01  0.62601555369E+01  0.51109989000E-03 0.  1.
       11    1    1    2    0    0  0.17971249077E-02 -0.29152644268E-02  0.12226168934E+00  0.12231071224E+00  0.51109989000E-03 0.  1.
     -623    1    1    2    0    0 -0.19904260091E-03 -0.57034613661E-03  0.11960874461E-03  0.17124000000E+03  0.17124000000E+03 0.  1.
</event>
<event>
 7   1  0.1356560E+02  0.9118800E+02  0.7818608E-02  0.1180000E+00
       11   -1    0    0    0    0  0.00000000000E+00  0.00000000000E+00  0.65999999802E+01  0.66000000000E+01  0.51109989000E-03 0.  1.
     -623   -1    0    0    0    0  0.00000000000E+00  0.00000000000E+00  0.75637274222E-11  0.17124000000E+03  0.17124000000E+03 0.  1.
      622    2    1    2    0    0  0.99916736334E-03  0.31961319644E-03  0.65439016850E+01  0.65439705351E+01  0.30000000416E-01 0.  0.
     -611    1    3    3    0    0 -0.27322035534E-03 -0.99614880256E-02  0.83774910432E+00  0.83780852759E+00  0.51109989000E-03 0. -1.
      611    1    3    3    0    0  0.12723877187E-02  0.10281101222E-01  0.57061525807E+01  0.57061620075E+01  0.51109989000E-03 0.  1.
       11    1    1    2    0    0 -0.98916488105E-03 -0.22078534263E-03  0.56017968553E-01  0.56029467401E-01  0.51109989000E-03 0.  1.
     -623    1    1    2    0    0 -0.10002482287E-04 -0.98827853770E-04  0.80329152664E-04  0.17124000000E+03  0.17124000000E+03 0.  1.
</event>
<event>
 7   1  0.1356560E+02  0.9118800E+02  0.7818608E-02  0.1180000E+00
       11   -1    0    0    0    0  0.00000000000E+00  0.00000000000E+00  0.65999999802E+01  0.66000000000E+01  0.51109989000E-03 0. -1.
     -623   -1    0    0    0    0  0.00000000000E+00  0.00000000000E+00  0.75637274222E-11  0.17124000000E+03  0.17124000000E+03 0.  1.
      622    2    1    2    0    0 -0.16294417475E-02  0.12693496833E-02  0.65983054690E+01  0.65983739913E+01  0.29999999484E-01 0.  0.
     -611    1    3    3    0    0 -0.22882446500E-02  0.11550157698E-01  0.56523924615E+01  0.56524047486E+01  0.51109989000E-03 0. -1.
      611    1    3    3    0    0  0.65880290244E-03 -0.10280808015E-01  0.94591300748E+00  0.94596924262E+00  0.51109989000E-03 0.  1.
       11    1    1    2    0    0  0.19587944228E-03 -0.70807902470E-03  0.13575392376E-02  0.16260013962E-02  0.51109989000E-03 0. -1.
     -623    1    1    2    0    0  0.14335623053E-02 -0.56127065859E-03  0.33697188846E-03  0.17124000001E+03  0.17124000000E+03 0.  1.
</event>
<event>
 7   1  0.1356560E+02  0.9118800E+02  0.7818608E-02  0.1180000E+00
       11   -1    0    0    0    0  0.00000000000E+00  0.00000000000E+00  0.65999999802E+01  0.66000000000E+01  0.51109989000E-03 0.  1.
     -623   -1    0    0    0    0  0.00000000000E+00  0.00000000000E+00  0.75637274222E-11  0.17124000000E+03  0.17124000000E+03 0.  1.
      622    2    1    2    0    0 -0.14781205919E-01  0.17090227618E-01  0.33566031269E+01  0.33568132375E+01  0.29999999945E-01 0.  0.
     -611    1    3    3    0    0 -0.20203550995E-03  0.21959673512E-01  0.17958839125E+01  0.17960182506E+01  0.51109989000E-03 0. -1.
      611    1    3    3    0    0 -0.14579170409E-01 -0.48694458941E-02  0.15607192143E+01  0.15607949868E+01  0.51109989000E-03 0.  1.
       11    1    1    2    0    0 -0.62077336523E-02 -0.10056438466E-01  0.32431637601E+01  0.32431853329E+01  0.51109989000E-03 0.  1.
     -623    1    1    2    0    0  0.20988939567E-01 -0.70337891501E-02  0.23309460868E-03  0.17124000143E+03  0.17124000000E+03 0.  1.
</event>
<event>
 7   1  0.1356560E+02  0.9118800E+02  0.7818608E-02  0.1180000E+00
       11   -1    0    0    0    0  0.00000000000E+00  0.00000000000E+00  0.65999999802E+01  0.66000000000E+01  0.51109989000E-03 0.  1.
     -623   -1    0    0    0    0  0.00000000000E+00  0.00000000000E+00  0.75637274222E-11  0.17124000000E+03  0.17124000000E+03 0. -1.
      622    2    1    2    0    0  0.56711207025E-03 -0.95341030141E-02  0.65327983626E+01  0.65328742271E+01  0.29999999940E-01 0.  0.
     -611    1    3    3    0    0 -0.64094785900E-02 -0.97586336167E-02  0.95538255317E+00  0.95545402635E+00  0.51109989000E-03 0. -1.
      611    1    3    3    0    0  0.69765906602E-02  0.22453060259E-03  0.55774158095E+01  0.55774202008E+01  0.51109989000E-03 0.  1.
       11    1    1    2    0    0 -0.88522159941E-03  0.81237643297E-02  0.66624530662E-01  0.67125766090E-01  0.51109989000E-03 0.  1.
     -623    1    1    2    0    0  0.31810952915E-03  0.14103386843E-02  0.57708722306E-03  0.17124000001E+03  0.17124000000E+03 0. -1.
</event>
<event>
 7   1  0.1356560E+02  0.9118800E+02  0.7818608E-02  0.1180000E+00
       11   -1    0    0    0    0  0.00000000000E+00  0.00000000000E+00  0.65999999802E+01  0.66000000000E+01  0.51109989000E-03 0. -1.
     -623   -1    0    0    0    0  0.00000000000E+00  0.00000000000E+00  0.75637274222E-11  0.17124000000E+03  0.17124000000E+03 0. -1.
      622    2    1    2    0    0  0.10872380666E-01 -0.39162696372E-01  0.60506253328E+01  0.60508362103E+01  0.30000000125E-01 0.  0.
     -611    1    3    3    0    0  0.15543413679E-01 -0.11038019296E-01  0.34902516196E+01  0.34903037210E+01  0.51109989000E-03 0. -1.
      611    1    3    3    0    0 -0.46710330131E-02 -0.28124677076E-01  0.25603737132E+01  0.25605324893E+01  0.51109989000E-03 0.  1.
       11    1    1    2    0    0 -0.72970673472E-02  0.28204761464E-01  0.54838984469E+00  0.54916339895E+00  0.51109989000E-03 0. -1.
     -623    1    1    2    0    0 -0.35753133191E-02  0.10957934908E-01  0.98480269857E-03  0.17124000039E+03  0.17124000000E+03 0. -1.
</event>
<event>
 7   1  0.1356560E+02  0.9118800E+02  0.7818608E-02  0.1180000E+00
       11   -1    0    0    0    0  0.00000000000E+00  0.00000000000E+00  0.65999999802E+01  0.66000000000E+01  0.51109989000E-03 0. -1.
     -623   -1    0    0    0    0  0.00000000000E+00  0.00000000000E+00  0.75637274222E-11  0.17124000000E+03  0.17124000000E+03 0. -1.
      622    2    1    2    0    0  0.73698402505E-02 -0.62920779846E-02  0.65489182726E+01  0.65489941552E+01  0.29999999988E-01 0.  0.
     -611    1    3    3    0    0  0.14608966003E-01 -0.58430023964E-02  0.60724633161E+01  0.60724837216E+01  0.51109989000E-03 0. -1.
      611    1    3    3    0    0 -0.72391257527E-02 -0.44907558825E-03  0.47645495647E+00  0.47651043365E+00  0.51109989000E-03 0.  1.
       11    1    1    2    0    0 -0.95535740310E-05  0.66787618496E-02  0.50563947257E-01  0.51005685334E-01  0.51109989000E-03 0. -1.
     -623    1    1    2    0    0 -0.73602866765E-02 -0.38668386490E-03  0.51776038277E-03  0.17124000016E+03  0.17124000000E+03 0. -1.
</event>
<event>
 7   1  0.1356560E+02  0.9118800E+02  0.7818608E-02  0.1180000E+00
       11   -1    0    0    0    0  0.00000000000E+00  0.00000000000E+00  0.65999999802E+01  0.66000000000E+01  0.51109989000E-03 0.  1.
     -623   -1    0    0    0    0  0.00000000000E+00  0.00000000000E+00  0.75637274222E-11  0.17124000000E+03  0.17124000000E+03 0.  1.
      622    2    1    2    0    0  0.11719103305E-01  0.52374236336E-02  0.40091855893E+01  0.40093183782E+01  0.30000000163E-01 0.  0.
     -611    1    3    3    0    0  0.11579702178E-01  0.75232402849E-02  0.72349734969E+00  0.72362930073E+00  0.51109989000E-03 0. -1.
      611    1    3    3    0    0  0.13940112685E-03 -0.22858166513E-02  0.32856882397E+01  0.32856890775E+01  0.51109989000E-03 0.  1.
       11    1    1    2    0    0 -0.95800403850E-02 -0.43685126131E-02  0.25906601602E+01  0.25906816069E+01  0.51109989000E-03 0.  1.
     -623    1    1    2    0    0 -0.21390629199E-02 -0.86891102047E-03  0.15423133799E-03  0.17124000002E+03  0.17124000000E+03 0.  1.
</event>
<event>
 7   1  0.1356560E+02  0.9118800E+02  0.7818608E-02  0.1180000E+00
       11   -1    0    0    0    0  0.00000000000E+00  0.00000000000E+00  0.65999999802E+01  0.66000000000E+01  0.51109989000E-03 0.  1.
     -623   -1    0    0    0    0  0.00000000000E+00  0.00000000000E+00  0.75637274222E-11  0.17124000000E+03  0.17124000000E+03 0. -1.
      622    2    1    2    0    0 -0.21498506420E-01  0.20632218388E-01  0.31363006252E+01  0.31365856414E+01  0.30000000125E-01 0.  0.
     -611    1    3    3    0    0 -0.19215813097E-01  0.24375530161E-01  0.17326172035E+01  0.17328952793E+01  0.51109989000E-03 0. -1.
      611    1    3    3    0    0 -0.22826933225E-02 -0.37433117733E-02  0.14036834216E+01  0.14036903620E+01  0.51109989000E-03 0.  1.
       11    1    1    2    0    0  0.21260095903E-01 -0.19513198066E-01  0.34632940924E+01  0.34634143541E+01  0.51109989000E-03 0.  1.
     -623    1    1    2    0    0  0.23841051653E-03 -0.11190203220E-02  0.40526243185E-03  0.17124000000E+03  0.17124000000E+03 0. -1.
</event>
<event>
 7   1  0.1356560E+02  0.9118800E+02  0.7818608E-02  0.1180000E+00
       11   -1    0    0    0    0  0.00000000000E+00  0.00000000000E+00  0.65999999802E+01  0.66000000000E+01  0.51109989000E-03 0. -1.
     -623   -1    0    0    0    0  0.00000000000E+00  0.00000000000E+00  0.75637274222E-11  0.17124000000E+03  0.17124000000E+03 0. -1.
      622    2    1    2    0    0 -0.44854344277E-03 -0.35186928886E-02  0.64205905844E+01  0.64206616509E+01  0.29999999368E-01 0.  0.
     -611    1    3    3    0    0 -0.11856998321E-01  0.42760214309E-02  0.46489122224E+01  0.46489293376E+01  0.51109989000E-03 0. -1.
      611    1    3    3    0    0  0.11408454878E-01 -0.77947143195E-02  0.17716783620E+01  0.17717323133E+01  0.51109989000E-03 0.  1.
       11    1    1    2    0    0  0.11559573714E-02  0.28903712603E-02  0.17931060082E+00  0.17933834858E+00  0.51109989000E-03 0. -1.
     -623    1    1    2    0    0 -0.70741392837E-03  0.62832162805E-03  0.98797086092E-04  0.17124000000E+03  0.17124000000E+03 0. -1.
</event>
<event>
 7   1  0.1356560E+02  0.9118800E+02  0.7818608E-02  0.1180000E+00
       11   -1    0    0    0    0  0.00000000000E+00  0.00000000000E+00  0.65999999802E+01  0.66000000000E+01  0.51109989000E-03 0. -1.
     -623   -1    0    0    0    0  0.00000000000E+00  0.00000000000E+00  0.75637274222E-11  0.17124000000E+03  0.17124000000E+03 0. -1.
      622    2    1    2    0    0  0.38003839067E-02 -0.45630517066E-02  0.62151421504E+01  0.62152173907E+01  0.30000000248E-01 0.  0.
     -611    1    3    3    0    0  0.51204802772E-02  0.37425417614E-03  0.18216176347E+00  0.18223481741E+00  0.51109989000E-03 0.  1.
      611    1    3    3    0    0 -0.13200963705E-02 -0.49373058827E-02  0.60329803869E+01  0.60329825733E+01  0.51109989000E-03 0. -1.
       11    1    1    2    0    0 -0.37541963373E-02  0.46233009414E-02  0.38473617483E+00  0.38478260660E+00  0.51109989000E-03 0. -1.
     -623    1    1    2    0    0 -0.46187569392E-04 -0.60249234862E-04  0.12165238726E-03  0.17124000000E+03  0.17124000000E+03 0. -1.
</event>
<event>
 7   1  0.1356560E+02  0.9118800E+02  0.7818608E-02  0.1180000E+00
       11   -1    0    0    0    0  0.00000000000E+00  0.00000000000E+00  0.65999999802E+01  0.66000000000E+01  0.51109989000E-03 0.  1.
     -623   -1    0    0    0    0  0.00000000000E+00  0.00000000000E+00  0.75637274222E-11  0.17124000000E+03  0.17124000000E+03 0.  1.
      622    2    1    2    0    0 -0.74373473615E-02  0.66352398590E-02  0.54424047395E+01  0.54424965493E+01  0.30000000131E-01 0.  0.
     -611    1    3    3    0    0  0.90789529187E-02 -0.48765380796E-02  0.25995982463E+01  0.25996187242E+01  0.51109989000E-03 0. -1.
      611    1    3    3    0    0 -0.16516300280E-01  0.11511777939E-01  0.28428064932E+01  0.28428778250E+01  0.51109989000E-03 0.  1.
       11    1    1    2    0    0  0.58849879260E-02 -0.23572089468E-02  0.11574859171E+01  0.11575033905E+01  0.51109989000E-03 0.  1.
     -623    1    1    2    0    0  0.15523594355E-02 -0.42780309119E-02  0.10932392481E-03  0.17124000006E+03  0.17124000000E+03 0.  1.
</event>
<event>
 7   1  0.1356560E+02  0.9118800E+02  0.7818608E-02  0.1180000E+00
       11   -1    0    0    0    0  0.00000000000E+00  0.00000000000E+00  0.65999999802E+01  0.66000000000E+01  0.51109989000E-03 0. -1.
     -623   -1    0    0    0    0  0.00000000000E+00  0.00000000000E+00  0.75637274222E-11  0.17124000000E+03  0.17124000000E+03 0. -1.
      622    2    1    2    0    0  0.97702122036E-02 -0.14897931949E-01  0.62420026301E+01  0.62421001465E+01  0.29999999553E-01 0.  0.
     -611    1    3    3    0    0  0.88107396326E-02  0.11223968076E-02  0.52794523765E+00  0.52802019288E+00  0.51109989000E-03 0.  1.
      611    1    3    3    0    0  0.95947257104E-03 -0.16020328757E-01  0.57140573924E+01  0.57140799537E+01  0.51109989000E-03 0. -1.
       11    1    1    2    0    0 -0.10192652292E-01  0.14479992500E-01  0.35746116240E+00  0.35789985218E+00  0.51109989000E-03 0. -1.
     -623    1    1    2    0    0  0.42244008784E-03  0.41793944856E-03  0.53618832030E-03  0.17124000000E+03  0.17124000000E+03 0. -1.
</event>
<event>
 7   1  0.1356560E+02  0.9118800E+02  0.7818608E-02  0.1180000E+00
       11   -1    0    0    0    0  0.00000000000E+00  0.00000000000E+00  0.65999999802E+01  0.66000000000E+01  0.51109989000E-03 0. -1.
     -623   -1    0    0    0    0  0.00000000000E+00  0.00000000000E+00  0.75637274222E-11  0.17124000000E+03  0.17124000000E+03 0.  1.
      622    2    1    2    0    0  0.18660585369E-03  0.86751365183E-04  0.65942555120E+01  0.65943237561E+01  0.29999999770E-01 0.  0.
     -611    1    3    3    0    0  0.11881157621E-01 -0.20819369395E-02  0.52934723780E+01  0.52934861457E+01  0.51109989000E-03 0. -1.
      611    1    3    3    0    0 -0.11694551767E-01  0.21686883047E-02  0.13007831340E+01  0.13008376104E+01  0.51109989000E-03 0.  1.
       11    1    1    2    0    0 -0.35287695823E-03  0.78044302479E-04  0.56416248302E-02  0.56762458441E-02  0.51109989000E-03 0. -1.
     -623    1    1    2    0    0  0.16627110449E-03 -0.16479566761E-03  0.10284549345E-03  0.17124000000E+03  0.17124000000E+03 0.  1.
</event>
<event>
 7   1  0.1356560E+02  0.9118800E+02  0.7818608E-02  0.1180000E+00
       11   -1    0    0    0    0  0.00000000000E+00  0.00000000000E+00  0.65999999802E+01  0.66000000000E+01  0.51109989000E-03 0. -1.
     -623   -1    0    0    0    0  0.00000000000E+00  0.00000000000E+00  0.75637274222E-11  0.17124000000E+03  0.17124000000E+03 0.  1.
      622    2    1    2    0    0 -0.18879159722E-02  0.15528339756E-03  0.65351812421E+01  0.65352503744E+01  0.30000006310E-01 0.  0.
     -611    1    3    3    0    0  0.83182460098E-03  0.14411489446E-01  0.23863440412E+01  0.23863877571E+01  0.51109989000E-03 0.  1.
      611    1    3    3    0    0 -0.27197405731E-02 -0.14256206049E-01  0.41488372009E+01  0.41488626173E+01  0.51109989000E-03 0. -1.
       11    1    1    2    0    0  0.54351794552E-03  0.22226089441E-02  0.64707145874E-01  0.64749605037E-01  0.51109989000E-03 0. -1.
     -623    1    1    2    0    0  0.13443980264E-02 -0.23778923413E-02  0.11159348406E-03  0.17124000002E+03  0.17124000000E+03 0.  1.
</event>
<event>
 7   1  0.1356560E+02  0.9118800E+02  0.7818608E-02  0.1180000E+00
       11   -1    0    0    0    0  0.00000000000E+00  0.00000000000E+00  0.65999999802E+01  0.66000000000E+01  0.51109989000E-03 0. -1.
     -623   -1    0    0    0    0  0.00000000000E+00  0.00000000000E+00  0.75637274222E-11  0.17124000000E+03  0.17124000000E+03 0. -1.
      622    2    1    2    0    0 -0.30793622397E-02  0.81380973067E-02  0.57280079159E+01  0.57280930855E+01  0.30000000166E-01 0.  0.
     -611    1    3    3    0    0  0.10545226897E-01 -0.55379043648E-02  0.21463890026E+01  0.21464221117E+01  0.51109989000E-03 0.  1.
      611    1    3    3    0    0 -0.13624589137E-01  0.13676001672E-01  0.35816189133E+01  0.35816709737E+01  0.51109989000E-03 0. -1.
       11    1    1    2    0    0  0.40373440608E-02 -0.10962111486E-02  0.87189658213E+00  0.87190676852E+00  0.51109989000E-03 0. -1.
     -623    1    1    2    0    0 -0.95798182083E-03 -0.70418861565E-02  0.95483661342E-04  0.17124000015E+03  0.17124000000E+03 0. -1.
</event>
<event>
 7   1  0.1356560E+02  0.9118800E+02  0.7818608E-02  0.1180000E+00
       11   -1    0    0    0    0  0.00000000000E+00  0.00000000000E+00  0.65999999802E+01  0.66000000000E+01  0.51109989000E-03 0. -1.
     -623   -1    0    0    0    0  0.00000000000E+00  0.00000000000E+00  0.75637274222E-11  0.17124000000E+03  0.17124000000E+03 0. -1.
      622    2    1    2    0    0 -0.37011639843E-02 -0.11176768669E-01  0.41448746675E+01  0.41449999551E+01  0.29999999534E-01 0.  0.
     -611    1    3    3    0    0  0.73897627819E-03 -0.18497909224E-01  0.36771864207E+01  0.36772330566E+01  0.51109989000E-03 0. -1.
      611    1    3    3    0    0 -0.44401402624E-02  0.73211405550E-02  0.46768824686E+00  0.46776689859E+00  0.51109989000E-03 0.  1.
       11    1    1    2    0    0  0.11939327828E-01  0.89510771838E-02  0.24549544280E+01  0.24549998318E+01  0.51109989000E-03 0. -1.
     -623    1    1    2    0    0 -0.82381638438E-02  0.22256914851E-02  0.17088435665E-03  0.17124000021E+03  0.17124000000E+03 0. -1.
</event>
<event>
 7   1  0.1356560E+02  0.9118800E+02  0.7818608E-02  0.1180000E+00
       11   -1    0    0    0    0  0.00000000000E+00  0.00000000000E+00  0.65999999802E+01  0.66000000000E+01  0.51109989000E-03 0. -1.
     -623   -1    0    0    0    0  0.00000000000E+00  0.00000000000E+00  0.75637274222E-11  0.17124000000E+03  0.17124000000E+03 0.  1.
      622    2    1    2    0    0 -0.33735790665E-02 -0.57159993498E-02  0.12571605626E+01  0.12575359772E+01  0.30000000034E-01 0.  0.
     -611    1    3    3    0    0  0.70432297410E-02 -0.19633581260E-02  0.10821272583E+01  0.10821520809E+01  0.51109989000E-03 0.  1.
      611    1    3    3    0    0 -0.10416808808E-01 -0.37526412239E-02  0.17503330433E+00  0.17538389626E+00  0.51109989000E-03 0. -1.
       11    1    1    2    0    0 -0.22865959962E-02  0.71121715307E-02  0.53424586754E+01  0.53424639233E+01  0.51109989000E-03 0. -1.
     -623    1    1    2    0    0  0.56601750627E-02 -0.13961721809E-02  0.38074227211E-03  0.17124000010E+03  0.17124000000E+03 0.  1.
</event>
<event>
 7   1  0.1356560E+02  0.9118800E+02  0.7818608E-02  0.1180000E+00
       11   -1    0    0    0    0  0.00000000000E+00  0.00000000000E+00  0.65999999802E+01  0.66000000000E+01  0.51109989000E-03 0. -1.
     -623   -1    0    0    0    0  0.00000000000E+00  0.00000000000E+00  0.75637274222E-11  0.17124000000E+03  0.17124000000E+03 0. -1.
      622    2    1    2    0    0 -0.20980631376E-01 -0.11046336882E-01  0.61808347184E+01  0.61809530029E+01  0.30000000192E-01 0.  0.
     -611    1    3    3    0    0  0.43405449760E-02 -0.81979027900E-02  0.30641426156E+01  0.30641566990E+01  0.51109989000E-03 0. -1.
      611    1    3    3    0    0 -0.25321176352E-01 -0.28484340915E-02  0.31166921028E+01  0.31167963040E+01  0.51109989000E-03 0.  1.
       11    1    1    2    0    0 -0.30834368719E-02  0.82335185928E-02  0.41895273249E+00  0.41904528598E+00  0.51109989000E-03 0. -1.
     -623    1    1    2    0    0  0.24064068237E-01  0.28128182874E-02  0.21253232237E-03  0.17124000171E+03  0.17124000000E+03 0. -1.
</event>
<event>
 7   1  0.1356560E+02  0.9118800E+02  0.7818608E-02  0.1180000E+00
       11   -1    0    0    0    0  0.00000000000E+00  0.00000000000E+00  0.65999999802E+01  0.66000000000E+01  0.51109989000E-03 0.  1.
     -623   -1    0    0    0    0  0.00000000000E+00  0.00000000000E+00  0.75637274222E-11  0.17124000000E+03  0.17124000000E+03 0. -1.
      622    2    1    2    0    0 -0.47253876254E-01  0.85086158696E-01  0.64734476312E+01  0.64742487454E+01  0.30000000066E-01 0.  0.
     -611    1    3    3    0    0 -0.35912361448E-01  0.60147466145E-01  0.36801298275E+01  0.36807965474E+01  0.51109989000E-03 0. -1.
      611    1    3    3    0    0 -0.11341514806E-01  0.24938692550E-01  0.27933178038E+01  0.27934521980E+01  0.51109989000E-03 0.  1.
       11    1    1    2    0    0 -0.53243393893E-02 -0.30150431789E-01  0.12194858775E+00  0.12573430878E+00  0.51109989000E-03 0.  1.
     -623    1    1    2    0    0  0.52578215643E-01 -0.54935726906E-01  0.46037612314E-02  0.17124001695E+03  0.17124000000E+03 0. -1.
</event>
<event>
 7   1  0.1356560E+02  0.9118800E+02  0.7818608E-02  0.1180000E+00
       11   -1    0    0    0    0  0.00000000000E+00  0.00000000000E+00  0.65999999802E+01  0.66000000000E+01  0.51109989000E-03 0.  1.
     -623   -1    0    0    0    0  0.00000000000E+00  0.00000000000E+00  0.75637274222E-11  0.17124000000E+03  0.17124000000E+03 0. -1.
      622    2    1    2    0    0 -0.40729522306E-02  0.12542236798E-02  0.65116503842E+01  0.65117208853E+01  0.30000000246E-01 0.  0.
     -611    1    3    3    0    0 -0.41463538914E-02 -0.35666203126E-02  0.21978876635E+00  0.21985739939E+00  0.51109989000E-03 0. -1.
      611    1    3    3    0    0  0.73401660792E-04  0.48208439924E-02  0.62918616179E+01  0.62918634859E+01  0.51109989000E-03 0.  1.
       11    1    1    2    0    0  0.38547640612E-02 -0.16203070645E-02  0.88178546194E-01  0.88279113231E-01  0.51109989000E-03 0.  1.
     -623    1    1    2    0    0  0.21818816941E-03  0.36608338477E-03  0.17104897377E-03  0.17124000000E+03  0.17124000000E+03 0. -1.
</event>
<event>
 7   1  0.1356560E+02  0.9118800E+02  0.7818608E-02  0.1180000E+00
       11   -1    0    0    0    0  0.00000000000E+00  0.00000000000E+00  0.65999999802E+01  0.66000000000E+01  0.51109989000E-03 0. -1.
     -623   -1    0    0    0    0  0.00000000000E+00  0.00000000000E+00  0.75637274222E-11  0.17124000000E+03  0.17124000000E+03 0. -1.
      622    2    1    2    0    0  0.19092270786E-02  0.95747487104E-02  0.64921521541E+01  0.64922288094E+01  0.30000000667E-01 0.  0.
     -611    1    3    3    0    0  0.37310844070E-02  0.64709486313E-02  0.64007756620E+01  0.64007800407E+01  0.51109989000E-03 0. -1.
      611    1    3    3    0    0 -0.18218573284E-02  0.31038000791E-02  0.91376492148E-01  0.91448768605E-01  0.51109989000E-03 0.  1.
       11    1    1    2    0    0 -0.11105672591E-02  0.49317876244E-03  0.10776282883E+00  0.10777089164E+00  0.51109989000E-03 0.  1.
     -623    1    1    2    0    0 -0.79865981960E-03 -0.10067927475E-01  0.84996135009E-04  0.17124000030E+03  0.17124000000E+03 0. -1.
</event>
<event>
 7   1  0.1356560E+02  0.9118800E+02  0.7818608E-02  0.1180000E+00
       11   -1    0    0    0    0  0.00000000000E+00  0.00000000000E+00  0.65999999802E+01  0.66000000000E+01  0.51109989000E-03 0.  1.
     -623   -1    0    0    0    0  0.00000000000E+00  0.00000000000E+00  0.75637274222E-11  0.17124000000E+03  0.17124000000E+03 0. -1.
      622    2    1    2    0    0 -0.10375536566E-02  0.18286452653E-02  0.54814914628E+01  0.54815739599E+01  0.29999999889E-01 0.  0.
     -611    1    3    3    0    0 -0.36645361939E-02 -0.83116261252E-02  0.47359342485E+01  0.47359429873E+01  0.51109989000E-03 0.  1.
      611    1    3    3    0    0  0.26269825372E-02  0.10140271390E-01  0.74555721433E+00  0.74563097253E+00  0.51109989000E-03 0. -1.
       11    1    1    2    0    0  0.12195013518E-01  0.13837672156E-01  0.11182727454E+01  0.11184249612E+01  0.51109989000E-03 0.  1.
     -623    1    1    2    0    0 -0.11157459859E-01 -0.15666317418E-01  0.23577335750E-03  0.17124000108E+03  0.17124000000E+03 0. -1.
</event>
<event>
 7   1  0.1356560E+02  0.9118800E+02  0.7818608E-02  0.1180000E+00
       11   -1    0    0    0    0  0.00000000000E+00  0.00000000000E+00  0.65999999802E+01  0.66000000000E+01  0.51109989000E-03 0. -1.
     -623   -1    0    0    0    0  0.00000000000E+00  0.00000000000E+00  0.75637274222E-11  0.17124000000E+03  0.17124000000E+03 0.  1.
      622    2    1    2    0    0 -0.33858569833E-02  0.46352852410E-02  0.63460765549E+01  0.63461500605E+01  0.29999999457E-01 0.  0.
     -611    1    3    3    0    0 -0.75035345164E-02 -0.84514513986E-02  0.11562305779E+01  0.11562859251E+01  0.51109989000E-03 0.  1.
      611    1    3    3    0    0  0.41176775331E-02  0.13086736640E-01  0.51898459769E+01  0.51898641354E+01  0.51109989000E-03 0. -1.
       11    1    1    2    0    0  0.46630487766E-02 -0.41406228491E-02  0.25377280767E+00  0.25384993188E+00  0.51109989000E-03 0. -1.
     -623    1    1    2    0    0 -0.12771917937E-02 -0.49466239201E-03  0.15061558572E-03  0.17124000001E+03  0.17124000000E+03 0.  1.
</event>
<event>
 7   1  0.1356560E+02  0.9118800E+02  0.7818608E-02  0.1180000E+00
       11   -1    0    0    0    0  0.00000000000E+00  0.00000000000E+00  0.65999999802E+01  0.66000000000E+01  0.51109989000E-03 0.  1.
     -623   -1    0    0    0    0  0.00000000000E+00  0.00000000000E+00  0.75637274222E-11  0.17124000000E+03  0.17124000000E+03 0.  1.
      622    2    1    2    0    0  0.63262401479E-02  0.12003318416E-01  0.34270706887E+01  0.34272288523E+01  0.29999999689E-01 0.  0.
     -611    1    3    3    0    0  0.69961617860E-03  0.20497148816E-01  0.16282688204E+01  0.16283980580E+01  0.51109989000E-03 0. -1.
      611    1    3    3    0    0  0.56266239693E-02 -0.84938304005E-02  0.17988018683E+01  0.17988307944E+01  0.51109989000E-03 0.  1.
       11    1    1    2    0    0 -0.11766785658E-01 -0.59269759778E-02  0.31727435564E+01  0.31727709533E+01  0.51109989000E-03 0.  1.
     -623    1    1    2    0    0  0.54405455103E-02 -0.60763424380E-02  0.18573510456E-03  0.17124000019E+03  0.17124000000E+03 0.  1.
</event>
<event>
 7   1  0.1356560E+02  0.9118800E+02  0.7818608E-02  0.1180000E+00
       11   -1    0    0    0    0  0.00000000000E+00  0.00000000000E+00  0.65999999802E+01  0.66000000000E+01  0.51109989000E-03 0. -1.
     -623   -1    0    0    0    0  0.00000000000E+00  0.00000000000E+00  0.75637274222E-11  0.17124000000E+03  0.17124000000E+03 0.  1.
      622    2    1    2    0    0 -0.69533395413E-02 -0.67421186156E-02  0.42252058998E+01  0.42253235025E+01  0.29999998943E-01 0.  0.
     -611    1    3    3    0    0  0.76062124482E-02 -0.12942504980E-01  0.16259657593E+01  0.16260351394E+01  0.51109989000E-03 0.  1.
      611    1    3    3    0    0 -0.14559551990E-01  0.62003863647E-02  0.25992401404E+01  0.25992883630E+01  0.51109989000E-03 0. -1.
       11    1    1    2    0    0  0.74955914215E-02  0.57876723145E-02  0.23746575582E+01  0.23746764961E+01  0.51109989000E-03 0. -1.
     -623    1    1    2    0    0 -0.54225188004E-03  0.95444630083E-03  0.13652435451E-03  0.17124000000E+03  0.17124000000E+03 0.  1.
</event>
<event>
 7   1  0.1356560E+02  0.9118800E+02  0.7818608E-02  0.1180000E+00
       11   -1    0    0    0    0  0.00000000000E+00  0.00000000000E+00  0.65999999802E+01  0.66000000000E+01  0.51109989000E-03 0. -1.
     -623   -1    0    0    0    0  0.00000000000E+00  0.00000000000E+00  0.75637274222E-11  0.17124000000E+03  0.17124000000E+03 0.  1.
      622    2    1    2    0    0 -0.15083906850E-01  0.61278335761E-03  0.63641655067E+01  0.63642541194E+01  0.30000000104E-01 0.  0.
     -611    1    3    3    0    0 -0.17248117428E-01 -0.34700634411E-02  0.61942862568E+01  0.61943112636E+01  0.51109989000E-03 0. -1.
      611    1    3    3    0    0  0.21642105780E-02  0.40828467987E-02  0.16987924992E+00  0.16994285575E+00  0.51109989000E-03 0.  1.
       11    1    1    2    0    0  0.14163453727E-01 -0.10585769531E-02  0.23531709051E+00  0.23574587656E+00  0.51109989000E-03 0. -1.
     -623    1    1    2    0    0  0.92045312280E-03  0.44579359546E-03  0.51738281538E-03  0.17124000000E+03  0.17124000000E+03 0.  1.
</event>
<event>
 7   1  0.1356560E+02  0.9118800E+02  0.7818608E-02  0.1180000E+00
       11   -1    0    0    0    0  0.00000000000E+00  0.00000000000E+00  0.65999999802E+01  0.66000000000E+01  0.51109989000E-03 0. -1.
     -623   -1    0    0    0    0  0.00000000000E+00  0.00000000000E+00  0.75637274222E-11  0.17124000000E+03  0.17124000000E+03 0. -1.
      622    2    1    2    0    0  0.14900533125E-02 -0.33674397970E-02  0.65256895185E+01  0.65257595154E+01  0.29999998641E-01 0.  0.
     -611    1    3    3    0    0  0.99328270500E-02 -0.12903298153E-01  0.45296777395E+01  0.45297070371E+01  0.51109989000E-03 0. -1.
      611    1    3    3    0    0 -0.84427737375E-02  0.95358583560E-02  0.19960117790E+01  0.19960524783E+01  0.51109989000E-03 0.  1.
       11    1    1    2    0    0 -0.36279426764E-02  0.14016860870E-02  0.74136753414E-01  0.74240461487E-01  0.51109989000E-03 0. -1.
     -623    1    1    2    0    0  0.21378893634E-02  0.19657537096E-02  0.17370982001E-03  0.17124000002E+03  0.17124000000E+03 0. -1.
</event>
<event>
 7   1  0.1356560E+02  0.9118800E+02  0.7818608E-02  0.1180000E+00
       11   -1    0    0    0    0  0.00000000000E+00  0.00000000000E+00  0.65999999802E+01  0.66000000000E+01  0.51109989000E-03 0.  1.
     -623   -1    0    0    0    0  0.00000000000E+00  0.00000000000E+00  0.75637274222E-11  0.17124000000E+03  0.17124000000E+03 0. -1.
      622    2    1    2    0    0  0.16415482248E-02  0.22553077818E-02  0.65980911268E+01  0.65981599176E+01  0.30000000104E-01 0.  0.
     -611    1    3    3    0    0 -0.57379291284E-02  0.33038538730E-02  0.34273953868E+00  0.34280386795E+00  0.51109989000E-03 0. -1.
      611    1    3    3    0    0  0.73794773532E-02 -0.10485460911E-02  0.62553515881E+01  0.62553560497E+01  0.51109989000E-03 0.  1.
       11    1    1    2    0    0 -0.17249810083E-02  0.38451201468E-03  0.34048811809E-04  0.18400520068E-02  0.51109989000E-03 0.  1.
     -623    1    1    2    0    0  0.83432783515E-04 -0.26398197964E-02  0.18748048768E-02  0.17124000003E+03  0.17124000000E+03 0. -1.
</event>
<event>
 7   1  0.1356560E+02  0.9118800E+02  0.7818608E-02  0.1180000E+00
       11   -1    0    0    0    0  0.00000000000E+00  0.00000000000E+00  0.65999999802E+01  0.66000000000E+01  0.51109989000E-03 0.  1.
     -623   -1    0    0    0    0  0.00000000000E+00  0.00000000000E+00  0.75637274222E-11  0.17124000000E+03  0.17124000000E+03 0.  1.
      622    2    1    2    0    0 -0.39836874126E-02 -0.45647904600E-01  0.55881041959E+01  0.55883725811E+01  0.30000000206E-01 0.  0.
     -611    1    3    3    0    0 -0.18311085203E-02 -0.43425547357E-01  0.55378784634E+01  0.55380490488E+01  0.51109989000E-03 0.  1.
      611    1    3    3    0    0 -0.21525788923E-02 -0.22223572430E-02  0.50225732541E-01  0.50323532269E-01  0.51109989000E-03 0. -1.
       11    1    1    2    0    0  0.53372876956E-02  0.44768041776E-01  0.10106221275E+01  0.10116274067E+01  0.51109989000E-03 0.  1.
     -623    1    1    2    0    0 -0.13536002830E-02  0.87986282359E-03  0.12736569832E-02  0.17124000001E+03  0.17124000000E+03 0.  1.
</event>
<event>
 7   1  0.1530988E+02  0.9118800E+02  0.7818608E-02  0.1180000E+00
       11   -1    0    0    0    0  0.00000000000E+00  0.00000000000E+00  0.65999999802E+01  0.66000000000E+01  0.51109989000E-03 0. -1.
     -623   -1    0    0    0    0  0.00000000000E+00  0.00000000000E+00  0.75637274222E-11  0.17124000000E+03  0.17124000000E+03 0.  1.
      622    2    1    2    0    0 -0.42350611603E-03 -0.25340481278E-02  0.65768407332E+01  0.65769096566E+01  0.29999999753E-01 0.  0.
     -611    1    3    3    0    0 -0.73823806122E-02 -0.30796573539E-02  0.49495028583E+00  0.49501518209E+00  0.51109989000E-03 0.  1.
      611    1    3    3    0    0  0.69588744962E-02  0.54560922616E-03  0.60818904474E+01  0.60818944745E+01  0.51109989000E-03 0. -1.
       11    1    1    2    0    0  0.12605420308E-02  0.24862562718E-02  0.22915764832E-01  0.23090342947E-01  0.51109989000E-03 0. -1.
     -623    1    1    2    0    0 -0.83703591450E-03  0.47791855970E-04  0.24348392345E-03  0.17124000000E+03  0.17124000000E+03 0.  1.
</event>
<event>
 7   1  0.1356560E+02  0.9118800E+02  0.7818608E-02  0.1180000E+00
       11   -1    0    0    0    0  0.00000000000E+00  0.00000000000E+00  0.65999999802E+01  0.66000000000E+01  0.51109989000E-03 0. -1.
     -623   -1    0    0    0    0  0.00000000000E+00  0.00000000000E+00  0.75637274222E-11  0.17124000000E+03  0.17124000000E+03 0. -1.
      622    2    1    2    0    0 -0.67559502784E-03  0.40687303163E-02  0.48828591767E+01  0.48829530768E+01  0.30000000154E-01 0.  0.
     -611    1    3    3    0    0 -0.30719119738E-02 -0.12434038678E-01  0.15915985625E+01  0.15916501774E+01  0.51109989000E-03 0. -1.
      611    1    3    3    0    0  0.23963169460E-02  0.16502768994E-01  0.32912606142E+01  0.32913028994E+01  0.51109989000E-03 0.  1.
       11    1    1    2    0    0  0.86013673690E-03 -0.41417551981E-02  0.17170416358E+01  0.17170469226E+01  0.51109989000E-03 0. -1.
     -623    1    1    2    0    0 -0.18454170907E-03  0.73024881832E-04  0.99167245950E-04  0.17124000000E+03  0.17124000000E+03 0. -1.
</event>
<event>
 7   1  0.1356560E+02  0.9118800E+02  0.7818608E-02  0.1180000E+00
       11   -1    0    0    0    0  0.00000000000E+00  0.00000000000E+00  0.65999999802E+01  0.66000000000E+01  0.51109989000E-03 0.  1.
     -623   -1    0    0    0    0  0.00000000000E+00  0.00000000000E+00  0.75637274222E-11  0.17124000000E+03  0.17124000000E+03 0. -1.
      622    2    1    2    0    0 -0.26740116971E-03  0.39047366571E-03  0.65037094695E+01  0.65037786776E+01  0.29999999691E-01 0.  0.
     -611    1    3    3    0    0 -0.23933892363E-02  0.77269588565E-02  0.60442639519E+01  0.60442693864E+01  0.51109989000E-03 0.  1.
      611    1    3    3    0    0  0.21259880666E-02 -0.73364851908E-02  0.45944551761E+00  0.45950929122E+00  0.51109989000E-03 0. -1.
       11    1    1    2    0    0  0.15940524566E-03 -0.27119245975E-03  0.96219453214E-01  0.96221324847E-01  0.51109989000E-03 0.  1.
     -623    1    1    2    0    0  0.10799592401E-03 -0.11928120592E-03  0.71060073099E-04  0.17124000000E+03  0.17124000000E+03 0. -1.
</event>
<event>
 7   1  0.1356560E+02  0.9118800E+02  0.7818608E-02  0.1180000E+00
       11   -1    0    0    0    0  0.00000000000E+00  0.00000000000E+00  0.65999999802E+01  0.66000000000E+01  0.51109989000E-03 0.  1.
     -623   -1    0    0    0    0  0.00000000000E+00  0.00000000000E+00  0.75637274222E-11  0.17124000000E+03  0.17124000000E+03 0. -1.
      622    2    1    2    0    0  0.11609107007E-02  0.49233426319E-03  0.65064611786E+01  0.65065304624E+01  0.29999999902E-01 0.  0.
     -611    1    3    3    0    0 -0.30545503068E-02 -0.77170825641E-03  0.75138544971E-01  0.75206302759E-01  0.51109989000E-03 0. -1.
      611    1    3    3    0    0  0.42154610075E-02  0.12640425196E-02  0.64313226336E+01  0.64313241597E+01  0.51109989000E-03 0.  1.
       11    1    1    2    0    0 -0.16167334754E-02 -0.65214323076E-03  0.93451878001E-01  0.93469534303E-01  0.51109989000E-03 0.  1.
     -623    1    1    2    0    0  0.45582277487E-03  0.15980896764E-03  0.86921069443E-04  0.17124000000E+03  0.17124000000E+03 0. -1.
</event>
<event>
 7   1  0.1356560E+02  0.9118800E+02  0.7818608E-02  0.1180000E+00
       11   -1    0    0    0    0  0.00000000000E+00  0.00000000000E+00  0.65999999802E+01  0.66000000000E+01  0.51109989000E-03 0. -1.
     -623   -1    0    0    0    0  0.00000000000E+00  0.00000000000E+00  0.75637274222E-11  0.17124000000E+03  0.17124000000E+03 0. -1.
      622    2    1    2    0    0  0.13876930794E-02  0.90753496302E-03  0.53005111825E+01  0.53005963386E+01  0.29999999813E-01 0.  0.
     -611    1    3    3    0    0 -0.12805389826E-01 -0.23208908165E-02  0.35738047518E+01  0.35738284836E+01  0.51109989000E-03 0. -1.
      611    1    3    3    0    0  0.14193082905E-01  0.32284257796E-02  0.17267064306E+01  0.17267678550E+01  0.51109989000E-03 0.  1.
       11    1    1    2    0    0 -0.35838310665E-02  0.10001318864E-02  0.12993982099E+01  0.12994036375E+01  0.51109989000E-03 0. -1.
     -623    1    1    2    0    0  0.21961379868E-02 -0.19076668492E-02  0.90588710561E-04  0.17124000002E+03  0.17124000000E+03 0. -1.
</event>
<event>
 7   1  0.1356560E+02  0.9118800E+02  0.7818608E-02  0.1180000E+00
       11   -1    0    0    0    0  0.00000000000E+00  0.00000000000E+00  0.65999999802E+01  0.66000000000E+01  0.51109989000E-03 0. -1.
     -623   -1    0    0    0    0  0.00000000000E+00  0.00000000000E+00  0.75637274222E-11  0.17124000000E+03  0.17124000000E+03 0.  1.
      622    2    1    2    0    0  0.13078952302E-01  0.24313315450E-02  0.53625649253E+01  0.53626653399E+01  0.30000000797E-01 0.  0.
     -611    1    3    3    0    0  0.93939247540E-02  0.26511376053E-02  0.48249417594E+00  0.48259316758E+00  0.51109989000E-03 0.  1.
      611    1    3    3    0    0  0.36850275475E-02 -0.21980606033E-03  0.48800707493E+01  0.48800721724E+01  0.51109989000E-03 0. -1.
       11    1    1    2    0    0 -0.68175952409E-02 -0.28700975928E-01  0.12369807203E+01  0.12373325298E+01  0.51109989000E-03 0. -1.
     -623    1    1    2    0    0 -0.62613570609E-02  0.26269644384E-01  0.45433442638E-03  0.17124000213E+03  0.17124000000E+03 0.  1.
</event>
<event>
 7   1  0.1356560E+02  0.9118800E+02  0.7818608E-02  0.1180000E+00
       11   -1    0    0    0    0  0.00000000000E+00  0.00000000000E+00  0.65999999802E+01  0.66000000000E+01  0.51109989000E-03 0.  1.
     -623   -1    0    0    0    0  0.00000000000E+00  0.00000000000E+00  0.75637274222E-11  0.17124000000E+03  0.17124000000E+03 0. -1.
      622    2    1    2    0    0  0.62781472080E-02 -0.72297195744E-02  0.65042815000E+01  0.65043577327E+01  0.29999999886E-01 0.  0.
     -611    1    3    3    0    0 -0.79097277218E-02 -0.40662164493E-02  0.49537716356E+01  0.49537796456E+01  0.51109989000E-03 0.  1.
      611    1    3    3    0    0  0.14187874930E-01 -0.31635031252E-02  0.15505098644E+01  0.15505780871E+01  0.51109989000E-03 0. -1.
       11    1    1    2    0    0  0.10623159943E-02  0.53766780118E-02  0.95483574029E-01  0.95642100114E-01  0.51109989000E-03 0.  1.
     -623    1    1    2    0    0 -0.73404632019E-02  0.18530415626E-02  0.23490654159E-03  0.17124000017E+03  0.17124000000E+03 0. -1.
</event>
<event>
 7   1  0.1356560E+02  0.9118800E+02  0.7818608E-02  0.1180000E+00
       11   -1    0    0    0    0  0.00000000000E+00  0.00000000000E+00  0.65999999802E+01  0.66000000000E+01  0.51109989000E-03 0.  1.
     -623   -1    0    0    0    0  0.00000000000E+00  0.00000000000E+00  0.75637274222E-11  0.17124000000E+03  0.17124000000E+03 0. -1.
      622    2    1    2    0    0 -0.90885456265E-02  0.70227568577E-03  0.65514590488E+01  0.65515340771E+01  0.30000000974E-01 0.  0.
     -611    1    3    3    0    0 -0.83544993996E-03 -0.91138893877E-02  0.53246842364E+01  0.53246921262E+01  0.51109989000E-03 0.  1.
      611    1    3    3    0    0 -0.82530956865E-02  0.98161650734E-02  0.12267748124E+01  0.12268419508E+01  0.51109989000E-03 0. -1.
       11    1    1    2    0    0  0.92773799909E-02 -0.44367005447E-02  0.47359540087E-01  0.48465878219E-01  0.51109989000E-03 0.  1.
     -623    1    1    2    0    0 -0.18883436441E-03  0.37344248588E-02  0.11813915205E-02  0.17124000004E+03  0.17124000000E+03 0. -1.
</event>
<event>
 7   1  0.1356560E+02  0.9118800E+02  0.7818608E-02  0.1180000E+00
       11   -1    0    0    0    0  0.00000000000E+00  0.00000000000E+00  0.65999999802E+01  0.66000000000E+01  0.51109989000E-03 0.  1.
     -623   -1    0    0    0    0  0.00000000000E+00  0.00000000000E+00  0.75637274222E-11  0.17124000000E+03  0.17124000000E+03 0.  1.
      622    2    1    2    0    0 -0.17587232844E-02  0.77070387321E-04  0.64344201022E+01  0.64344902790E+01  0.29999999882E-01 0.  0.
     -611    1    3    3    0    0  0.61043713615E-03 -0.10372114845E-01  0.90519644921E+00  0.90525622134E+00  0.51109989000E-03 0. -1.
      611    1    3    3    0    0 -0.23691604206E-02  0.10449185232E-01  0.55292236530E+01  0.55292340577E+01  0.51109989000E-03 0.  1.
       11    1    1    2    0    0  0.14772210099E-02 -0.23445501664E-03  0.16550217283E+00  0.16550972052E+00  0.51109989000E-03 0.  1.
     -623    1    1    2    0    0  0.28150227446E-03  0.15738462932E-03  0.77705033460E-04  0.17124000000E+03  0.17124000000E+03 0.  1.
</event>
<event>
 7   1  0.1356560E+02  0.9118800E+02  0.7818608E-02  0.1180000E+00
       11   -1    0    0    0    0  0.00000000000E+00  0.00000000000E+00  0.65999999802E+01  0.66000000000E+01  0.51109989000E-03 0. -1.
     -623   -1    0    0    0    0  0.00000000000E+00  0.00000000000E+00  0.75637274222E-11  0.17124000000E+03  0.17124000000E+03 0. -1.
      622    2    1    2    0    0 -0.21244481822E-02  0.22261877662E-02  0.65742194401E+01  0.65742886091E+01  0.29999999998E-01 0.  0.
     -611    1    3    3    0    0 -0.12859218116E-01 -0.35237324664E-02  0.16454668705E+01  0.16455209690E+01  0.51109989000E-03 0.  1.
      611    1    3    3    0    0  0.10734769934E-01  0.57499202326E-02  0.49287525696E+01  0.49287676401E+01  0.51109989000E-03 0. -1.
       11    1    1    2    0    0  0.22118554231E-02 -0.18587033642E-02  0.25543438658E-01  0.25711389775E-01  0.51109989000E-03 0. -1.
     -623    1    1    2    0    0 -0.87407240839E-04 -0.36748440208E-03  0.23710091921E-03  0.17124000000E+03  0.17124000000E+03 0. -1.
</event>
<event>
 7   1  0.1920974E+02  0.9118800E+02  0.7818608E-02  0.1180000E+00
       11   -1    0    0    0    0  0.00000000000E+00  0.00000000000E+00  0.65999999802E+01  0.66000000000E+01  0.51109989000E-03 0.  1.
     -623   -1    0    0    0    0  0.00000000000E+00  0.00000000000E+00  0.75637274222E-11  0.17124000000E+03  0.17124000000E+03 0. -1.
      622    2    1    2    0    0  0.56871887552E-03  0.10244224537E-02  0.65236305696E+01  0.65236996545E+01  0.30000002268E-01 0.  0.
     -611    1    3    3    0    0 -0.82454152523E-02 -0.52979050348E-02  0.81970898805E+00  0.81976773599E+00  0.51109989000E-03 0. -1.
      611    1    3    3    0    0  0.88141341279E-02  0.63223274885E-02  0.57039215816E+01  0.57039319185E+01  0.51109989000E-03 0.  1.
       11    1    1    2    0    0 -0.36879311898E-03 -0.13037604242E-02  0.76286605876E-01  0.76300349008E-01  0.51109989000E-03 0.  1.
     -623    1    1    2    0    0 -0.19992575642E-03  0.27933797036E-03  0.82808577722E-04  0.17124000000E+03  0.17124000000E+03 0. -1.
</event>
<event>
 7   1  0.1356560E+02  0.9118800E+02  0.7818608E-02  0.1180000E+00
       11   -1    0    0    0    0  0.00000000000E+00  0.00000000000E+00  0.65999999802E+01  0.66000000000E+01  0.51109989000E-03 0. -1.
     -623   -1    0    0    0    0  0.00000000000E+00  0.00000000000E+00  0.75637274222E-11  0.17124000000E+03  0.17124000000E+03 0. -1.
      622    2    1    2    0    0 -0.87720728085E-03  0.16446303472E-03  0.65886636147E+01  0.65887319739E+01  0.29999992708E-01 0.  0.
     -611    1    3    3    0    0 -0.13423573354E-01 -0.71901898098E-02  0.29667068736E+01  0.29667459997E+01  0.51109989000E-03 0. -1.
      611    1    3    3    0    0  0.12546366073E-01  0.73546528445E-02  0.36219567411E+01  0.36219859743E+01  0.51109989000E-03 0.  1.
       11    1    1    2    0    0  0.55079946073E-03  0.10319803703E-03  0.11242472734E-01  0.11268027607E-01  0.51109989000E-03 0. -1.
     -623    1    1    2    0    0  0.32640782001E-03 -0.26766107167E-03  0.93894828233E-04  0.17124000000E+03  0.17124000000E+03 0. -1.
</event>
<event>
 7   1  0.1356560E+02  0.9118800E+02  0.7818608E-02  0.1180000E+00
       11   -1    0    0    0    0  0.00000000000E+00  0.00000000000E+00  0.65999999802E+01  0.66000000000E+01  0.51109989000E-03 0. -1.
     -623   -1    0    0    0    0  0.00000000000E+00  0.00000000000E+00  0.75637274222E-11  0.17124000000E+03  0.17124000000E+03 0. -1.
      622    2    1    2    0    0  0.19797344002E-01  0.81777250561E-02  0.20345835049E+01  0.20349174058E+01  0.30000000065E-01 0.  0.
     -611    1    3    3    0    0  0.83107851998E-02  0.18131794999E-01  0.14452044047E+01  0.14453421269E+01  0.51109989000E-03 0.  1.
      611    1    3    3    0    0  0.11486558802E-01 -0.99540699428E-02  0.58937910015E+00  0.58957527887E+00  0.51109989000E-03 0. -1.
       11    1    1    2    0    0 -0.24534047967E-01 -0.16786941653E-01  0.45649854912E+01  0.45650823122E+01  0.51109989000E-03 0. -1.
     -623    1    1    2    0    0  0.47367039648E-02  0.86092165964E-02  0.43098457354E-03  0.17124000028E+03  0.17124000000E+03 0. -1.
</event>
<event>
 7   1  0.1356560E+02  0.9118800E+02  0.7818608E-02  0.1180000E+00
       11   -1    0    0    0    0  0.00000000000E+00  0.00000000000E+00  0.65999999802E+01  0.66000000000E+01  0.51109989000E-03 0. -1.
     -623   -1    0    0    0    0  0.00000000000E+00  0.00000000000E+00  0.75637274222E-11  0.17124000000E+03  0.17124000000E+03 0.  1.
      622    2    1    2    0    0 -0.14563150956E-02 -0.11526130455E-02  0.65638572130E+01  0.65639260326E+01  0.30000000051E-01 0.  0.
     -611    1    3    3    0    0 -0.14212520522E-01 -0.43005138665E-02  0.46454023819E+01  0.46454261420E+01  0.51109989000E-03 0. -1.
      611    1    3    3    0    0  0.12756205427E-01  0.31479008210E-02  0.19184548311E+01  0.19184998906E+01  0.51109989000E-03 0.  1.
       11    1    1    2    0    0  0.11942626043E-02 -0.35960096540E-03  0.36048775638E-01  0.36073966016E-01  0.51109989000E-03 0. -1.
     -623    1    1    2    0    0  0.26205249113E-03  0.15122140097E-02  0.93997143731E-04  0.17124000001E+03  0.17124000000E+03 0.  1.
</event>
<event>
 7   1  0.1356560E+02  0.9118800E+02  0.7818608E-02  0.1180000E+00
       11   -1    0    0    0    0  0.00000000000E+00  0.00000000000E+00  0.65999999802E+01  0.66000000000E+01  0.51109989000E-03 0.  1.
     -623   -1    0    0    0    0  0.00000000000E+00  0.00000000000E+00  0.75637274222E-11  0.17124000000E+03  0.17124000000E+03 0. -1.
      622    2    1    2    0    0  0.90432431388E-02 -0.27197189300E-02  0.34805947463E+01  0.34807368423E+01  0.30000000169E-01 0.  0.
     -611    1    3    3    0    0  0.14893092084E-01 -0.12872958689E-01  0.21069034015E+01  0.21069954251E+01  0.51109989000E-03 0. -1.
      611    1    3    3    0    0 -0.58498489455E-02  0.10153239759E-01  0.13736913449E+01  0.13737414172E+01  0.51109989000E-03 0.  1.
       11    1    1    2    0    0 -0.10106431755E-01  0.25998813204E-02  0.31192456552E+01  0.31192631531E+01  0.51109989000E-03 0.  1.
     -623    1    1    2    0    0  0.10631886164E-02  0.11983760955E-03  0.15957746208E-03  0.17124000000E+03  0.17124000000E+03 0. -1.
</event>
<event>
 7   1  0.1356560E+02  0.9118800E+02  0.7818608E-02  0.1180000E+00
       11   -1    0    0    0    0  0.00000000000E+00  0.00000000000E+00  0.65999999802E+01  0.66000000000E+01  0.51109989000E-03 0.  1.
     -623   -1    0    0    0    0  0.00000000000E+00  0.00000000000E+00  0.75637274222E-11  0.17124000000E+03  0.17124000000E+03 0.  1.
      622    2    1    2    0    0  0.71561917606E-03  0.30615390894E-02  0.65698812034E+01  0.65699504497E+01  0.30000000906E-01 0.  0.
     -611    1    3    3    0    0  0.39451124971E-02 -0.38091724710E-02  0.23447872148E+00  0.23454339845E+00  0.51109989000E-03 0. -1.
      611    1    3    3    0    0 -0.32294933210E-02  0.68707115604E-02  0.63354024819E+01  0.63354070512E+01  0.51109989000E-03 0.  1.
       11    1    1    2    0    0 -0.26692416317E-02 -0.15217199629E-02  0.29887669090E-01  0.30049533595E-01  0.51109989000E-03 0.  1.
     -623    1    1    2    0    0  0.19536224551E-02 -0.15398191261E-02  0.23110928126E-03  0.17124000002E+03  0.17124000000E+03 0.  1.
</event>
<event>
 7   1  0.1356560E+02  0.9118800E+02  0.7818608E-02  0.1180000E+00
       11   -1    0    0    0    0  0.00000000000E+00  0.00000000000E+00  0.65999999802E+01  0.66000000000E+01  0.51109989000E-03 0. -1.
     -623   -1    0    0    0    0  0.00000000000E+00  0.00000000000E+00  0.75637274222E-11  0.17124000000E+03  0.17124000000E+03 0.  1.
      622    2    1    2    0    0 -0.22852099823E-01  0.18467093508E-03  0.55710002069E+01  0.55711278533E+01  0.30000000210E-01 0.  0.
     -611    1    3    3    0    0 -0.29291818220E-01 -0.44899403043E-02  0.42150326298E+01  0.42151368307E+01  0.51109989000E-03 0. -1.
      611    1    3    3    0    0  0.64397183975E-02  0.46746112394E-02  0.13559675771E+01  0.13559910226E+01  0.51109989000E-03 0.  1.
       11    1    1    2    0    0  0.25859044969E-01  0.82738436599E-02  0.10285134908E+01  0.10288719107E+01  0.51109989000E-03 0. -1.
     -623    1    1    2    0    0 -0.30069451466E-02 -0.84585145950E-02  0.48628254426E-03  0.17124000024E+03  0.17124000000E+03 0.  1.
</event>
<event>
 7   1  0.1356560E+02  0.9118800E+02  0.7818608E-02  0.1180000E+00
       11   -1    0    0    0    0  0.00000000000E+00  0.00000000000E+00  0.65999999802E+01  0.66000000000E+01  0.51109989000E-03 0. -1.
     -623   -1    0    0    0    0  0.00000000000E+00  0.00000000000E+00  0.75637274222E-11  0.17124000000E+03  0.17124000000E+03 0.  1.
      622    2    1    2    0    0 -0.58455891197E-02  0.19782138601E-04  0.54580806967E+01  0.54581662730E+01  0.30000000364E-01 0.  0.
     -611    1    3    3    0    0 -0.52370722882E-03 -0.12270014856E-02  0.52816356013E+01  0.52816357945E+01  0.51109989000E-03 0. -1.
      611    1    3    3    0    0 -0.53218818909E-02  0.12467836242E-02  0.17644509542E+00  0.17653047844E+00  0.51109989000E-03 0.  1.
       11    1    1    2    0    0  0.59829746145E-02  0.60060347535E-03  0.11418177775E+01  0.11418337248E+01  0.51109989000E-03 0. -1.
     -623    1    1    2    0    0 -0.13738549480E-03 -0.62038561405E-03  0.10150490047E-03  0.17124000000E+03  0.17124000000E+03 0.  1.
</event>
<event>
 7   1  0.1356560E+02  0.9118800E+02  0.7818608E-02  0.1180000E+00
       11   -1    0    0    0    0  0.00000000000E+00  0.00000000000E+00  0.65999999802E+01  0.66000000000E+01  0.51109989000E-03 0. -1.
     -623   -1    0    0    0    0  0.00000000000E+00  0.00000000000E+00  0.75637274222E-11  0.17124000000E+03  0.17124000000E+03 0. -1.
      622    2    1    2    0    0  0.87081993176E-03 -0.88042387748E-03  0.65783387961E+01  0.65784073186E+01  0.29999999769E-01 0.  0.
     -611    1    3    3    0    0  0.11244625208E-01  0.58924897801E-02  0.15129654320E+01  0.15130187781E+01  0.51109989000E-03 0.  1.
      611    1    3    3    0    0 -0.10373805276E-01 -0.67729136576E-02  0.50653733641E+01  0.50653885406E+01  0.51109989000E-03 0. -1.
       11    1    1    2    0    0 -0.71057332795E-03 -0.53202353273E-03  0.21568371141E-01  0.21592679784E-01  0.51109989000E-03 0. -1.
     -623    1    1    2    0    0 -0.16024660370E-03  0.14124474093E-02  0.92817311284E-04  0.17124000001E+03  0.17124000000E+03 0. -1.
</event>
<event>
 7   1  0.1356560E+02  0.9118800E+02  0.7818608E-02  0.1180000E+00
       11   -1    0    0    0    0  0.00000000000E+00  0.00000000000E+00  0.65999999802E+01  0.66000000000E+01  0.51109989000E-03 0.  1.
     -623   -1    0    0    0    0  0.00000000000E+00  0.00000000000E+00  0.75637274222E-11  0.17124000000E+03  0.17124000000E+03 0. -1.
      622    2    1    2    0    0  0.43328562544E-02 -0.52916751840E-02  0.65453144593E+01  0.65453867835E+01  0.30000000470E-01 0.  0.
     -611    1    3    3    0    0  0.11834075873E-01 -0.72672444570E-02  0.60081940417E+01  0.60082101130E+01  0.51109989000E-03 0.  1.
      611    1    3    3    0    0 -0.75012196182E-02  0.19755692731E-02  0.53712041755E+00  0.53717667051E+00  0.51109989000E-03 0. -1.
       11    1    1    2    0    0 -0.67223784893E-02  0.39545659284E-02  0.54051001123E-01  0.54613193550E-01  0.51109989000E-03 0.  1.
     -623    1    1    2    0    0  0.23895222348E-02  0.13371092555E-02  0.63451998961E-03  0.17124000002E+03  0.17124000000E+03 0. -1.
</event>
<event>
 7   1  0.1356560E+02  0.9118800E+02  0.7818608E-02  0.1180000E+00
       11   -1    0    0    0    0  0.00000000000E+00  0.00000000000E+00  0.65999999802E+01  0.66000000000E+01  0.51109989000E-03 0.  1.
     -623   -1    0    0    0    0  0.00000000000E+00  0.00000000000E+00  0.75637274222E-11  0.17124000000E+03  0.17124000000E+03 0.  1.
      622    2    1    2    0    0 -0.50293626953E-02 -0.20714413049E-01  0.31904598338E+01  0.31906720817E+01  0.30000001182E-01 0.  0.
     -611    1    3    3    0    0  0.10636781038E-01 -0.25714223404E-02  0.58983247197E+00  0.58993419933E+00  0.51109989000E-03 0. -1.
      611    1    3    3    0    0 -0.15666143733E-01 -0.18142990709E-01  0.26006273619E+01  0.26007378823E+01  0.51109989000E-03 0.  1.
       11    1    1    2    0    0  0.83497483181E-02  0.16733755665E-01  0.34092765112E+01  0.34093278411E+01  0.51109989000E-03 0.  1.
     -623    1    1    2    0    0 -0.33203856221E-02  0.39806573836E-02  0.26363659368E-03  0.17124000008E+03  0.17124000000E+03 0.  1.
</event>
<event>
 7   1  0.1356560E+02  0.9118800E+02  0.7818608E-02  0.1180000E+00
       11   -1    0    0    0    0  0.00000000000E+00  0.00000000000E+00  0.65999999802E+01  0.66000000000E+01  0.51109989000E-03 0. -1.
     -623   -1    0    0    0    0  0.00000000000E+00  0.00000000000E+00  0.75637274222E-11  0.17124000000E+03  0.17124000000E+03 0.  1.
      622    2    1    2    0    0  0.51393404994E-03  0.36574619342E-02  0.65991094625E+01  0.65991786867E+01  0.29999999958E-01 0.  0.
     -611    1    3    3    0    0 -0.83298190980E-02 -0.10513004666E-01  0.31976500371E+01  0.31976782093E+01  0.51109989000E-03 0. -1.
      611    1    3    3    0    0  0.88437531479E-02  0.14170466600E-01  0.34014594254E+01  0.34015004774E+01  0.51109989000E-03 0.  1.
       11    1    1    2    0    0 -0.87193685380E-04 -0.60781858688E-03 -0.19035504375E-03  0.82128211570E-03  0.51109989000E-03 0. -1.
     -623    1    1    2    0    0 -0.42674036456E-03 -0.30496433474E-02  0.10808726927E-02  0.17124000003E+03  0.17124000000E+03 0.  1.
</event>
<event>
 7   1  0.1356560E+02  0.9118800E+02  0.7818608E-02  0.1180000E+00
       11   -1    0    0    0    0  0.00000000000E+00  0.00000000000E+00  0.65999999802E+01  0.66000000000E+01  0.51109989000E-03 0.  1.
     -623   -1    0    0    0    0  0.00000000000E+00  0.00000000000E+00  0.75637274222E-11  0.17124000000E+03  0.17124000000E+03 0. -1.
      622    2    1    2    0    0 -0.29343691315E-02  0.24763119474E-02  0.53785176774E+01  0.53786027134E+01  0.29999999960E-01 0.  0.
     -611    1    3    3    0    0  0.35592781149E-03 -0.56851271074E-02  0.49030634356E+01  0.49030667712E+01  0.51109989000E-03 0. -1.
      611    1    3    3    0    0 -0.32902969430E-02  0.81614390548E-02  0.47545424173E+00  0.47553594222E+00  0.51109989000E-03 0.  1.
       11    1    1    2    0    0 -0.55262571288E-02 -0.76289016726E-02  0.12213605681E+01  0.12213970027E+01  0.51109989000E-03 0.  1.
     -623    1    1    2    0    0  0.84606262569E-02  0.51525897231E-02  0.12173740163E-03  0.17124000029E+03  0.17124000000E+03 0. -1.
</event>
<event>
 7   1  0.1356560E+02  0.9118800E+02  0.7818608E-02  0.1180000E+00
       11   -1    0    0    0    0  0.00000000000E+00  0.00000000000E+00  0.65999999802E+01  0.66000000000E+01  0.51109989000E-03 0.  1.
     -623   -1    0    0    0    0  0.00000000000E+00  0.00000000000E+00  0.75637274222E-11  0.17124000000E+03  0.17124000000E+03 0.  1.
      622    2    1    2    0    0 -0.61907879445E-03  0.62200623048E-03  0.65693390784E+01  0.65694076367E+01  0.29999999905E-01 0.  0.
     -611    1    3    3    0    0  0.88359853722E-02  0.12143881838E-01  0.35249852146E+01  0.35250172443E+01  0.51109989000E-03 0.  1.
      611    1    3    3    0    0 -0.94550641667E-02 -0.11521875607E-01  0.30443538639E+01  0.30443903924E+01  0.51109989000E-03 0. -1.
       11    1    1    2    0    0  0.74548535273E-03 -0.35307753127E-03  0.30576970831E-01  0.30592364741E-01  0.51109989000E-03 0.  1.
     -623    1    1    2    0    0 -0.12640655825E-03 -0.26892869914E-03  0.83932706999E-04  0.17124000000E+03  0.17124000000E+03 0.  1.
</event>
<event>
 7   1  0.1356560E+02  0.9118800E+02  0.7818608E-02  0.1180000E+00
       11   -1    0    0    0    0  0.00000000000E+00  0.00000000000E+00  0.65999999802E+01  0.66000000000E+01  0.51109989000E-03 0.  1.
     -623   -1    0    0    0    0  0.00000000000E+00  0.00000000000E+00  0.75637274222E-11  0.17124000000E+03  0.17124000000E+03 0.  1.
      622    2    1    2    0    0 -0.54541862477E-02 -0.77543476537E-02  0.64870303549E+01  0.64871066511E+01  0.29999999966E-01 0.  0.
     -611    1    3    3    0    0 -0.37615147371E-02 -0.72987842414E-02  0.44512214772E+00  0.44519816808E+00  0.51109989000E-03 0. -1.
      611    1    3    3    0    0 -0.16926715106E-02 -0.45556341232E-03  0.60419082072E+01  0.60419084831E+01  0.51109989000E-03 0.  1.
       11    1    1    2    0    0  0.55986982144E-02  0.70997753156E-02  0.11252952671E+00  0.11289334717E+00  0.51109989000E-03 0.  1.
     -623    1    1    2    0    0 -0.14451196668E-03  0.65457233807E-03  0.44009881265E-03  0.17124000000E+03  0.17124000000E+03 0.  1.
</event>
<event>
 7   1  0.1356560E+02  0.9118800E+02  0.7818608E-02  0.1180000E+00
       11   -1    0    0    0    0  0.00000000000E+00  0.00000000000E+00  0.65999999802E+01  0.66000000000E+01  0.51109989000E-03 0. -1.
     -623   -1    0    0    0    0  0.00000000000E+00  0.00000000000E+00  0.75637274222E-11  0.17124000000E+03  0.17124000000E+03 0.  1.
      622    2    1    2    0    0 -0.79768183198E-03 -0.70423022525E-02  0.65781392273E+01  0.65782114533E+01  0.29999999342E-01 0.  0.
     -611    1    3    3    0    0 -0.40292149796E-02 -0.12939181303E-01  0.13548427875E+01  0.13549106602E+01  0.51109989000E-03 0.  1.
      611    1    3    3    0    0  0.32315331476E-02  0.58968790508E-02  0.52232964398E+01  0.52233007931E+01  0.51109989000E-03 0. -1.
       11    1    1    2    0    0  0.22470971830E-02  0.33297229411E-02  0.21408899193E-01  0.21788498993E-01  0.51109989000E-03 0. -1.
     -623    1    1    2    0    0 -0.14494153512E-02  0.37125793119E-02  0.45185297051E-03  0.17124000005E+03  0.17124000000E+03 0.  1.
</event>
<event>
 7   1  0.1356560E+02  0.9118800E+02  0.7818608E-02  0.1180000E+00
       11   -1    0    0    0    0  0.00000000000E+00  0.00000000000E+00  0.65999999802E+01  0.66000000000E+01  0.51109989000E-03 0.  1.
     -623   -1    0    0    0    0  0.00000000000E+00  0.00000000000E+00  0.75637274222E-11  0.17124000000E+03  0.17124000000E+03 0. -1.
      622    2    1    2    0    0  0.79612600807E-03 -0.73060015293E-03  0.65598924337E+01  0.65599611210E+01  0.30000000210E-01 0.  0.
     -611    1    3    3    0    0 -0.21447707129E-02  0.31969618379E-02  0.11285461925E+00  0.11292141920E+00  0.51109989000E-03 0. -1.
      611    1    3    3    0    0  0.29408967209E-02 -0.39275619908E-02  0.64470378144E+01  0.64470397018E+01  0.51109989000E-03 0.  1.
       11    1    1    2    0    0 -0.23280825259E-03  0.13429747287E-02  0.40012406917E-01  0.40038877497E-01  0.51109989000E-03 0.  1.
     -623    1    1    2    0    0 -0.56331775543E-03 -0.61237457575E-03  0.95140167730E-04  0.17124000000E+03  0.17124000000E+03 0. -1.
</event>
<event>
 7   1  0.1356560E+02  0.9118800E+02  0.7818608E-02  0.1180000E+00
       11   -1    0    0    0    0  0.00000000000E+00  0.00000000000E+00  0.65999999802E+01  0.66000000000E+01  0.51109989000E-03 0. -1.
     -623   -1    0    0    0    0  0.00000000000E+00  0.00000000000E+00  0.75637274222E-11  0.17124000000E+03  0.17124000000E+03 0.  1.
      622    2    1    2    0    0 -0.57376822505E-02  0.11566331051E-01  0.40870695531E+01  0.40872000481E+01  0.30000004975E-01 0.  0.
     -611    1    3    3    0    0 -0.47785295913E-02 -0.25100727400E-02  0.32963820242E+01  0.32963864830E+01  0.51109989000E-03 0. -1.
      611    1    3    3    0    0 -0.95915265924E-03  0.14076403791E-01  0.79068752887E+00  0.79081356504E+00  0.51109989000E-03 0.  1.
       11    1    1    2    0    0 -0.13408762384E-02 -0.21758593452E-01  0.25127048850E+01  0.25127995015E+01  0.51109989000E-03 0. -1.
     -623    1    1    2    0    0  0.70785584896E-02  0.10192262403E-01  0.22554147847E-03  0.17124000045E+03  0.17124000000E+03 0.  1.
</event>
<event>
 7   1  0.1356560E+02  0.9118800E+02  0.7818608E-02  0.1180000E+00
       11   -1    0    0    0    0  0.00000000000E+00  0.00000000000E+00  0.65999999802E+01  0.66000000000E+01  0.51109989000E-03 0. -1.
     -623   -1    0    0    0    0  0.00000000000E+00  0.00000000000E+00  0.75637274222E-11  0.17124000000E+03  0.17124000000E+03 0.  1.
      622    2    1    2    0    0 -0.36255575396E-03  0.31505739947E-03  0.65340647351E+01  0.65341336222E+01  0.30000000277E-01 0.  0.
     -611    1    3    3    0    0 -0.11712088518E-01 -0.36901962300E-02  0.13777942897E+01  0.13778491051E+01  0.51109989000E-03 0.  1.
      611    1    3    3    0    0  0.11349532764E-01  0.40052536295E-02  0.51562704454E+01  0.51562845171E+01  0.51109989000E-03 0. -1.
       11    1    1    2    0    0 -0.52665722272E-03 -0.20352909005E-02  0.65830823334E-01  0.65866366993E-01  0.51109989000E-03 0. -1.
     -623    1    1    2    0    0  0.88921297666E-03  0.17202335010E-02  0.10442199131E-03  0.17124000001E+03  0.17124000000E+03 0.  1.
</event>
<event>
 7   1  0.1356560E+02  0.9118800E+02  0.7818608E-02  0.1180000E+00
       11   -1    0    0    0    0  0.00000000000E+00  0.00000000000E+00  0.65999999802E+01  0.66000000000E+01  0.51109989000E-03 0. -1.
     -623   -1    0    0    0    0  0.00000000000E+00  0.00000000000E+00  0.75637274222E-11  0.17124000000E+03  0.17124000000E+03 0. -1.
      622    2    1    2    0    0  0.47375340269E-02 -0.26137521406E-03  0.52970092372E+01  0.52970963151E+01  0.30000000336E-01 0.  0.
     -611    1    3    3    0    0 -0.10918186326E-02  0.50549323600E-02  0.49264805542E+01  0.49264832951E+01  0.51109989000E-03 0. -1.
      611    1    3    3    0    0  0.58293526595E-02 -0.53163075740E-02  0.37052868296E+00  0.37061302001E+00  0.51109989000E-03 0.  1.
       11    1    1    2    0    0 -0.50611023249E-02  0.44469777570E-03  0.13028936799E+01  0.13029036860E+01  0.51109989000E-03 0. -1.
     -623    1    1    2    0    0  0.32356829792E-03 -0.18332256160E-03  0.97064607979E-04  0.17124000000E+03  0.17124000000E+03 0. -1.
</event>
<event>
 7   1  0.1356560E+02  0.9118800E+02  0.7818608E-02  0.1180000E+00
       11   -1    0    0    0    0  0.00000000000E+00  0.00000000000E+00  0.65999999802E+01  0.66000000000E+01  0.51109989000E-03 0.  1.
     -623   -1    0    0    0    0  0.00000000000E+00  0.00000000000E+00  0.75637274222E-11  0.17124000000E+03  0.17124000000E+03 0.  1.
      622    2    1    2    0    0 -0.71689827772E-03 -0.63070225777E-04  0.65826889730E+01  0.65827573731E+01  0.29999999314E-01 0.  0.
     -611    1    3    3    0    0 -0.14976428914E-01  0.22096860811E-02  0.28229576669E+01  0.28229983044E+01  0.51109989000E-03 0. -1.
      611    1    3    3    0    0  0.14259530637E-01 -0.22727563069E-02  0.37597313061E+01  0.37597590687E+01  0.51109989000E-03 0.  1.
       11    1    1    2    0    0  0.80126461934E-03 -0.43859969218E-03  0.17210822741E-01  0.17242622689E-01  0.51109989000E-03 0.  1.
     -623    1    1    2    0    0 -0.84366341662E-04  0.50166991822E-03  0.10018105375E-03  0.17124000000E+03  0.17124000000E+03 0.  1.
</event>
<event>
 7   1  0.1356560E+02  0.9118800E+02  0.7818608E-02  0.1180000E+00
       11   -1    0    0    0    0  0.00000000000E+00  0.00000000000E+00  0.65999999802E+01  0.66000000000E+01  0.51109989000E-03 0.  1.
     -623   -1    0    0    0    0  0.00000000000E+00  0.00000000000E+00  0.75637274222E-11  0.17124000000E+03  0.17124000000E+03 0.  1.
      622    2    1    2    0    0  0.36767781056E-02  0.17569369523E-01  0.63376898287E+01  0.63377862512E+01  0.30000000100E-01 0.  0.
     -611    1    3    3    0    0 -0.12667266450E-01  0.55475955476E-02  0.19243163559E+01  0.19243661123E+01  0.51109989000E-03 0.  1.
      611    1    3    3    0    0  0.16344044555E-01  0.12021773975E-01  0.44133734729E+01  0.44134201390E+01  0.51109989000E-03 0. -1.
       11    1    1    2    0    0 -0.25595756971E-02 -0.15630357741E-01  0.26173444859E+00  0.26221373403E+00  0.51109989000E-03 0.  1.
     -623    1    1    2    0    0 -0.11172024084E-02 -0.19390117812E-02  0.57570377395E-03  0.17124000002E+03  0.17124000000E+03 0.  1.
</event>
<event>
 7   1  0.1356560E+02  0.9118800E+02  0.7818608E-02  0.1180000E+00
       11   -1    0    0    0    0  0.00000000000E+00  0.00000000000E+00  0.65999999802E+01  0.66000000000E+01  0.51109989000E-03 0. -1.
     -623   -1    0    0    0    0  0.00000000000E+00  0.00000000000E+00  0.75637274222E-11  0.17124000000E+03  0.17124000000E+03 0. -1.
      622    2    1    2    0    0  0.77592786107E-02 -0.20636025190E-01  0.50629388468E+01  0.50630757271E+01  0.29999997519E-01 0.  0.
     -611    1    3    3    0    0  0.77699446768E-02 -0.45286414744E-02  0.40392033238E+01  0.40392133680E+01  0.51109989000E-03 0.  1.
      611    1    3    3    0    0 -0.10666066108E-04 -0.16107383716E-01  0.10237355230E+01  0.10238623590E+01  0.51109989000E-03 0. -1.
       11    1    1    2    0    0  0.16233231448E-02 -0.24285308868E-02  0.15369196006E+01  0.15369224616E+01  0.51109989000E-03 0. -1.
     -623    1    1    2    0    0 -0.93826017568E-02  0.23064556080E-01  0.14153187752E-03  0.17124000181E+03  0.17124000000E+03 0. -1.
</event>
<event>
 7   1  0.1356560E+02  0.9118800E+02  0.7818608E-02  0.1180000E+00
       11   -1    0    0    0    0  0.00000000000E+00  0.00000000000E+00  0.65999999802E+01  0.66000000000E+01  0.51109989000E-03 0. -1.
     -623   -1    0    0    0    0  0.00000000000E+00  0.00000000000E+00  0.75637274222E-11  0.17124000000E+03  0.17124000000E+03 0. -1.
      622    2    1    2    0    0 -0.24989874167E-02  0.47832275012E-02  0.65572735695E+01  0.65573444159E+01  0.30000000311E-01 0.  0.
     -611    1    3    3    0    0 -0.12316704204E-01 -0.77398238105E-02  0.31908970079E+01  0.31909302064E+01  0.51109989000E-03 0.  1.
      611    1    3    3    0    0  0.98177167869E-02  0.12523051312E-01  0.33663765616E+01  0.33664142095E+01  0.51109989000E-03 0. -1.
       11    1    1    2    0    0  0.19782661418E-02 -0.70392521774E-02  0.42021085218E-01  0.42655567446E-01  0.51109989000E-03 0. -1.
     -623    1    1    2    0    0  0.52072127487E-03  0.22560246761E-02  0.70532600876E-03  0.17124000002E+03  0.17124000000E+03 0. -1.
</event>
<event>
 7   1  0.1356560E+02  0.9118800E+02  0.7818608E-02  0.1180000E+00
       11   -1    0    0    0    0  0.00000000000E+00  0.00000000000E+00  0.65999999802E+01  0.66000000000E+01  0.51109989000E-03 0. -1.
     -623   -1    0    0    0    0  0.00000000000E+00  0.00000000000E+00  0.75637274222E-11  0.17124000000E+03  0.17124000000E+03 0.  1.
      622    2    1    2    0    0 -0.50208736581E-02  0.47135938386E-02  0.51001262516E+01  0.51002191335E+01  0.30000000330E-01 0.  0.
     -611    1    3    3    0    0 -0.34006152619E-02  0.13458902314E-01  0.45463870089E+01  0.45464082309E+01  0.51109989000E-03 0. -1.
      611    1    3    3    0    0 -0.16202583962E-02 -0.87453084757E-02  0.55373924273E+00  0.55381090258E+00  0.51109989000E-03 0. -1.
       11    1    1    2    0    0  0.26664150163E-02  0.99466963225E-02  0.14997447787E+01  0.14997802203E+01  0.51109989000E-03 0. -1.
     -623    1    1    2    0    0  0.23544586427E-02 -0.14660290167E-01  0.12894740729E-03  0.17124000064E+03  0.17124000000E+03 0.  1.
</event>
<event>
 7   1  0.1356560E+02  0.9118800E+02  0.7818608E-02  0.1180000E+00
       11   -1    0    0    0    0  0.00000000000E+00  0.00000000000E+00  0.65999999802E+01  0.66000000000E+01  0.51109989000E-03 0. -1.
     -623   -1    0    0    0    0  0.00000000000E+00  0.00000000000E+00  0.75637274222E-11  0.17124000000E+03  0.17124000000E+03 0.  1.
      622    2    1    2    0    0  0.22543226926E-02 -0.25324768171E-03  0.65817130743E+01  0.65817818362E+01  0.30000000175E-01 0.  0.
     -611    1    3    3    0    0 -0.12844256823E-01  0.18972601728E-02  0.41858586109E+01  0.41858787782E+01  0.51109989000E-03 0. -1.
      611    1    3    3    0    0  0.15098579516E-01 -0.21505078545E-02  0.23958544634E+01  0.23959030579E+01  0.51109989000E-03 0.  1.
       11    1    1    2    0    0 -0.41709437518E-02 -0.99267428260E-03  0.17699082582E-01  0.18218148132E-01  0.51109989000E-03 0. -1.
     -623    1    1    2    0    0  0.19166210590E-02  0.12459219642E-02  0.58782387425E-03  0.17124000002E+03  0.17124000000E+03 0.  1.
</event>
<event>
 7   1  0.1356560E+02  0.9118800E+02  0.7818608E-02  0.1180000E+00
       11   -1    0    0    0    0  0.00000000000E+00  0.00000000000E+00  0.65999999802E+01  0.66000000000E+01  0.51109989000E-03 0. -1.
     -623   -1    0    0    0    0  0.00000000000E+00  0.00000000000E+00  0.75637274222E-11  0.17124000000E+03  0.17124000000E+03 0. -1.
      622    2    1    2    0    0 -0.19326066538E-03  0.55336997333E-04  0.65933576180E+01  0.65934258712E+01  0.30000000459E-01 0.  0.
     -611    1    3    3    0    0 -0.12308428957E-01  0.85146763256E-02  0.29009717723E+01  0.29010104243E+01  0.51109989000E-03 0.  1.
      611    1    3    3    0    0  0.12115168292E-01 -0.84593393283E-02  0.36923858457E+01  0.36924154469E+01  0.51109989000E-03 0. -1.
       11    1    1    2    0    0  0.55865412253E-03 -0.13462511925E-03  0.65289902594E-02  0.65741277183E-02  0.51109989000E-03 0. -1.
     -623    1    1    2    0    0 -0.36539345719E-03  0.79288121921E-04  0.11337134308E-03  0.17124000000E+03  0.17124000000E+03 0. -1.
</event>
<event>
 7   1  0.1356560E+02  0.9118800E+02  0.7818608E-02  0.1180000E+00
       11   -1    0    0    0    0  0.00000000000E+00  0.00000000000E+00  0.65999999802E+01  0.66000000000E+01  0.51109989000E-03 0.  1.
     -623   -1    0    0    0    0  0.00000000000E+00  0.00000000000E+00  0.75637274222E-11  0.17124000000E+03  0.17124000000E+03 0.  1.
      622    2    1    2    0    0  0.99487638569E-03  0.37984267629E-02  0.65596317458E+01  0.65597015220E+01  0.30000000261E-01 0.  0.
     -611    1    3    3    0    0  0.12352672907E-01  0.32670459871E-02  0.53724437561E+01  0.53724589747E+01  0.51109989000E-03 0.  1.
      611    1    3    3    0    0 -0.11357796521E-01  0.53138077574E-03  0.11871879897E+01  0.11872425473E+01  0.51109989000E-03 0. -1.
       11    1    1    2    0    0 -0.16841198888E-02 -0.40967884130E-02  0.40051042618E-01  0.40298476063E-01  0.51109989000E-03 0.  1.
     -623    1    1    2    0    0  0.68924350309E-03  0.29836165008E-03  0.31719185089E-03  0.17124000000E+03  0.17124000000E+03 0.  1.
</event>
<event>
 7   1  0.1356560E+02  0.9118800E+02  0.7818608E-02  0.1180000E+00
       11   -1    0    0    0    0  0.00000000000E+00  0.00000000000E+00  0.65999999802E+01  0.66000000000E+01  0.51109989000E-03 0.  1.
     -623   -1    0    0    0    0  0.00000000000E+00  0.00000000000E+00  0.75637274222E-11  0.17124000000E+03  0.17124000000E+03 0. -1.
      622    2    1    2    0    0  0.81365570295E-03 -0.41332562715E-04  0.65779384878E+01  0.65780069484E+01  0.30000003057E-01 0.  0.
     -611    1    3    3    0    0 -0.13607050056E-01 -0.46174626211E-02  0.38016801300E+01  0.38017073197E+01  0.51109989000E-03 0. -1.
      611    1    3    3    0    0  0.14420705759E-01  0.45761300583E-02  0.27762583577E+01  0.27762996286E+01  0.51109989000E-03 0.  1.
       11    1    1    2    0    0 -0.83118391830E-03 -0.98850601632E-03  0.21949144012E-01  0.21993047920E-01  0.51109989000E-03 0.  1.
     -623    1    1    2    0    0  0.17528215359E-04  0.10298385791E-02  0.11234786121E-03  0.17124000000E+03  0.17124000000E+03 0. -1.
</event>
<event>
 7   1  0.1356560E+02  0.9118800E+02  0.7818608E-02  0.1180000E+00
       11   -1    0    0    0    0  0.00000000000E+00  0.00000000000E+00  0.65999999802E+01  0.66000000000E+01  0.51109989000E-03 0. -1.
     -623   -1    0    0    0    0  0.00000000000E+00  0.00000000000E+00  0.75637274222E-11  0.17124000000E+03  0.17124000000E+03 0. -1.
      622    2    1    2    0    0  0.35497339028E-03  0.32693656751E-05  0.65571076645E+01  0.65571763015E+01  0.30000000086E-01 0.  0.
     -611    1    3    3    0    0 -0.46949430369E-02  0.12653109741E-01  0.18678044102E+01  0.18678532382E+01  0.51109989000E-03 0.  1.
      611    1    3    3    0    0  0.50499164272E-02 -0.12649840375E-01  0.46893032543E+01  0.46893230633E+01  0.51109989000E-03 0. -1.
       11    1    1    2    0    0 -0.87891683293E-04 -0.48555149126E-03  0.42817806490E-01  0.42823699757E-01  0.51109989000E-03 0. -1.
     -623    1    1    2    0    0 -0.26708170690E-03  0.48228212542E-03  0.74511458765E-04  0.17124000000E+03  0.17124000000E+03 0. -1.
</event>
<event>
 7   1  0.1356560E+02  0.9118800E+02  0.7818608E-02  0.1180000E+00
       11   -1    0    0    0    0  0.00000000000E+00  0.00000000000E+00  0.65999999802E+01  0.66000000000E+01  0.51109989000E-03 0. -1.
     -623   -1    0    0    0    0  0.00000000000E+00  0.00000000000E+00  0.75637274222E-11  0.17124000000E+03  0.17124000000E+03 0.  1.
      622    2    1    2    0    0 -0.35952623844E-01 -0.32983601392E-01  0.23842504374E+01  0.23849382921E+01  0.29999995594E-01 0.  0.
     -611    1    3    3    0    0  0.37362559187E-02 -0.18377501679E-03  0.60645122240E-01  0.60762533326E-01  0.51109989000E-03 0.  1.
      611    1    3    3    0    0 -0.39688879763E-01 -0.32799826375E-01  0.23236053151E+01  0.23241757588E+01  0.51109989000E-03 0. -1.
       11    1    1    2    0    0  0.36023518735E-01  0.36583479421E-01  0.42147489313E+01  0.42150616674E+01  0.51109989000E-03 0. -1.
     -623    1    1    2    0    0 -0.70894890367E-04 -0.35998780296E-02  0.10006117902E-02  0.17124000004E+03  0.17124000000E+03 0.  1.
</event>
<event>
 7   1  0.1359423E+02  0.9118800E+02  0.7818608E-02  0.1180000E+00
       11   -1    0    0    0    0  0.00000000000E+00  0.00000000000E+00  0.65999999802E+01  0.66000000000E+01  0.51109989000E-03 0.  1.
     -623   -1    0    0    0    0  0.00000000000E+00  0.00000000000E+00  0.75637274222E-11  0.17124000000E+03  0.17124000000E+03 0.  1.
      622    2    1    2    0    0  0.68502805762E-03 -0.95916650825E-03  0.65891678372E+01  0.65892362362E+01  0.30000000162E-01 0.  0.
     -611    1    3    3    0    0 -0.78649658851E-02  0.35257377444E-02  0.61531999747E+00  0.61538057252E+00  0.51109989000E-03 0. -1.
      611    1    3    3    0    0  0.85499939427E-02 -0.44849042526E-02  0.59738478398E+01  0.59738556637E+01  0.51109989000E-03 0.  1.
       11    1    1    2    0    0  0.23442711423E-02 -0.64639981513E-03  0.10472975116E-01  0.10763729409E-01  0.51109989000E-03 0.  1.
     -623    1    1    2    0    0 -0.30292991998E-02  0.16055663233E-02  0.35916818000E-03  0.17124000003E+03  0.17124000000E+03 0.  1.
</event>
<event>
 7   1  0.1356560E+02  0.9118800E+02  0.7818608E-02  0.1180000E+00
       11   -1    0    0    0    0  0.00000000000E+00  0.00000000000E+00  0.65999999802E+01  0.66000000000E+01  0.51109989000E-03 0. -1.
     -623   -1    0    0    0    0  0.00000000000E+00  0.00000000000E+00  0.75637274222E-11  0.17124000000E+03  0.17124000000E+03 0.  1.
      622    2    1    2    0    0  0.22012875341E-01 -0.18754647094E-01  0.59133959632E+01  0.59135427724E+01  0.29999999612E-01 0.  0.
     -611    1    3    3    0    0 -0.59989572312E-02 -0.70631509547E-02  0.74760477977E+00  0.74766238607E+00  0.51109989000E-03 0.  1.
      611    1    3    3    0    0  0.28011832572E-01 -0.11691496139E-01  0.51657911834E+01  0.51658803863E+01  0.51109989000E-03 0. -1.
       11    1    1    2    0    0 -0.22698002896E-01  0.19025341572E-01  0.68581783041E+00  0.68645722423E+00  0.51109989000E-03 0. -1.
     -623    1    1    2    0    0  0.68512755470E-03 -0.27069447777E-03  0.78618662360E-03  0.17124000000E+03  0.17124000000E+03 0.  1.
</event>
<event>
 7   1  0.1356560E+02  0.9118800E+02  0.7818608E-02  0.1180000E+00
       11   -1    0    0    0    0  0.00000000000E+00  0.00000000000E+00  0.65999999802E+01  0.66000000000E+01  0.51109989000E-03 0. -1.
     -623   -1    0    0    0    0  0.00000000000E+00  0.00000000000E+00  0.75637274222E-11  0.17124000000E+03  0.17124000000E+03 0.  1.
      622    2    1    2    0    0  0.42424915633E-01 -0.48088572256E-02  0.45506064340E+01  0.45509056149E+01  0.30000000822E-01 0.  0.
     -611    1    3    3    0    0  0.35847441125E-01 -0.29869101272E-03  0.43393080228E+01  0.43394561302E+01  0.51109989000E-03 0.  1.
      611    1    3    3    0    0  0.65774745073E-02 -0.45101662129E-02  0.21129841127E+00  0.21144948474E+00  0.51109989000E-03 0. -1.
       11    1    1    2    0    0 -0.41585459707E-01  0.68223413048E-02  0.20486609242E+01  0.20490943703E+01  0.51109989000E-03 0. -1.
     -623    1    1    2    0    0 -0.83945592529E-03 -0.20134840790E-02  0.73262267982E-03  0.17124000002E+03  0.17124000000E+03 0.  1.
</event>
<event>
 7   1  0.1356560E+02  0.9118800E+02  0.7818608E-02  0.1180000E+00
       11   -1    0    0    0    0  0.00000000000E+00  0.00000000000E+00  0.65999999802E+01  0.66000000000E+01  0.51109989000E-03 0.  1.
     -623   -1    0    0    0    0  0.00000000000E+00  0.00000000000E+00  0.75637274222E-11  0.17124000000E+03  0.17124000000E+03 0. -1.
      622    2    1    2    0    0  0.15637093434E-01  0.36646130748E-02  0.47348702983E+01  0.47349925755E+01  0.29999999997E-01 0.  0.
     -611    1    3    3    0    0  0.20447081524E-01  0.83117609414E-02  0.21455275597E+01  0.21456411487E+01  0.51109989000E-03 0.  1.
      611    1    3    3    0    0 -0.48099880901E-02 -0.46471478666E-02  0.25893427386E+01  0.25893514268E+01  0.51109989000E-03 0. -1.
       11    1    1    2    0    0 -0.11373229729E-01 -0.11986377361E-01  0.18649339009E+01  0.18650071688E+01  0.51109989000E-03 0.  1.
     -623    1    1    2    0    0 -0.42638637050E-02  0.83217642869E-02  0.19578066200E-03  0.17124000026E+03  0.17124000000E+03 0. -1.
</event>
<event>
 7   1  0.1356560E+02  0.9118800E+02  0.7818608E-02  0.1180000E+00
       11   -1    0    0    0    0  0.00000000000E+00  0.00000000000E+00  0.65999999802E+01  0.66000000000E+01  0.51109989000E-03 0.  1.
     -623   -1    0    0    0    0  0.00000000000E+00  0.00000000000E+00  0.75637274222E-11  0.17124000000E+03  0.17124000000E+03 0. -1.
      622    2    1    2    0    0 -0.29058445373E-01 -0.27124196849E-01  0.40100843160E+01  0.40103935388E+01  0.29999999756E-01 0.  0.
     -611    1    3    3    0    0 -0.20357222831E-01  0.45464845534E-03  0.13825377636E+01  0.13826877999E+01  0.51109989000E-03 0. -1.
      611    1    3    3    0    0 -0.87012225413E-02 -0.27578845304E-01  0.26275465524E+01  0.26277057389E+01  0.51109989000E-03 0.  1.
       11    1    1    2    0    0  0.50056875842E-01  0.32230364247E-01  0.25889205855E+01  0.25896050947E+01  0.51109989000E-03 0.  1.
     -623    1    1    2    0    0 -0.20998430470E-01 -0.51061673983E-02  0.99507878696E-03  0.17124000137E+03  0.17124000000E+03 0. -1.
</event>
<event>
 7   1  0.1356560E+02  0.9118800E+02  0.7818608E-02  0.1180000E+00
       11   -1    0    0    0    0  0.00000000000E+00  0.00000000000E+00  0.65999999802E+01  0.66000000000E+01  0.51109989000E-03 0.  1.
     -623   -1    0    0    0    0  0.00000000000E+00  0.00000000000E+00  0.75637274222E-11  0.17124000000E+03  0.17124000000E+03 0. -1.
      622    2    1    2    0    0 -0.78011399264E-04 -0.16273307519E-02  0.65815598300E+01  0.65816284042E+01  0.30000000142E-01 0.  0.
     -611    1    3    3    0    0 -0.43718252385E-02 -0.13563911329E-01  0.48958138760E+01  0.48958346441E+01  0.51109989000E-03 0.  1.
      611    1    3    3    0    0  0.42938138392E-02  0.11936580577E-01  0.16857459540E+01  0.16857937600E+01  0.51109989000E-03 0. -1.
       11    1    1    2    0    0  0.88356100123E-03  0.14287168272E-02  0.18287493423E-01  0.18371596300E-01  0.51109989000E-03 0.  1.
     -623    1    1    2    0    0 -0.80554960167E-03  0.19861392454E-03  0.15265931199E-03  0.17124000000E+03  0.17124000000E+03 0. -1.
</event>
<event>
 7   1  0.1356560E+02  0.9118800E+02  0.7818608E-02  0.1180000E+00
       11   -1    0    0    0    0  0.00000000000E+00  0.00000000000E+00  0.65999999802E+01  0.66000000000E+01  0.51109989000E-03 0. -1.
     -623   -1    0    0    0    0  0.00000000000E+00  0.00000000000E+00  0.75637274222E-11  0.17124000000E+03  0.17124000000E+03 0. -1.
      622    2    1    2    0    0  0.58094237643E-02  0.12839380225E-01  0.49688241444E+01  0.49689346923E+01  0.29999999692E-01 0.  0.
     -611    1    3    3    0    0  0.11999794846E-01  0.15177133638E-01  0.46556577037E+01  0.46556979343E+01  0.51109989000E-03 0. -1.
      611    1    3    3    0    0 -0.61903710818E-02 -0.23377534136E-02  0.31316644067E+00  0.31323675801E+00  0.51109989000E-03 0.  1.
       11    1    1    2    0    0 -0.92731726972E-02 -0.14579879712E-01  0.16309736580E+01  0.16310652651E+01  0.51109989000E-03 0. -1.
     -623    1    1    2    0    0  0.34637489322E-02  0.17404994864E-02  0.20217926056E-03  0.17124000004E+03  0.17124000000E+03 0. -1.
</event>
<event>
 7   1  0.1356560E+02  0.9118800E+02  0.7818608E-02  0.1180000E+00
       11   -1    0    0    0    0  0.00000000000E+00  0.00000000000E+00  0.65999999802E+01  0.66000000000E+01  0.51109989000E-03 0.  1.
     -623   -1    0    0    0    0  0.00000000000E+00  0.00000000000E+00  0.75637274222E-11  0.17124000000E+03  0.17124000000E+03 0.  1.
      622    2    1    2    0    0  0.64801433160E-03 -0.11731639763E-02  0.65991923160E+01  0.65992606419E+01  0.30000003513E-01 0.  0.
     -611    1    3    3    0    0 -0.91597613694E-02 -0.11960919012E-01  0.28378890448E+01  0.28379290789E+01  0.51109989000E-03 0. -1.
      611    1    3    3    0    0  0.98077757010E-02  0.10787755036E-01  0.37613032712E+01  0.37613315630E+01  0.51109989000E-03 0.  1.
       11    1    1    2    0    0 -0.14896835678E-03 -0.29507377426E-03  0.41970848284E-03  0.73934999270E-03  0.51109989000E-03 0.  1.
     -623    1    1    2    0    0 -0.49904597486E-03  0.14682377507E-02  0.38795510956E-03  0.17124000001E+03  0.17124000000E+03 0.  1.
</event>
<event>
 7   1  0.1356560E+02  0.9118800E+02  0.7818608E-02  0.1180000E+00
       11   -1    0    0    0    0  0.00000000000E+00  0.00000000000E+00  0.65999999802E+01  0.66000000000E+01  0.51109989000E-03 0.  1.
     -623   -1    0    0    0    0  0.00000000000E+00  0.00000000000E+00  0.75637274222E-11  0.17124000000E+03  0.17124000000E+03 0.  1.
      622    2    1    2    0    0  0.17089450514E-02 -0.42727712321E-02  0.49235039208E+01  0.49235974688E+01  0.29999999869E-01 0.  0.
     -611    1    3    3    0    0 -0.51621189780E-02  0.95980699280E-02  0.33397550202E+01  0.33397728406E+01  0.51109989000E-03 0.  1.
      611    1    3    3    0    0  0.68710640293E-02 -0.13870841160E-01  0.15837489006E+01  0.15838246283E+01  0.51109989000E-03 0. -1.
       11    1    1    2    0    0 -0.15529301931E-02  0.29907059024E-02  0.16763990565E+01  0.16764025214E+01  0.51109989000E-03 0.  1.
     -623    1    1    2    0    0 -0.15601485837E-03  0.12820653306E-02  0.96998063042E-04  0.17124000000E+03  0.17124000000E+03 0.  1.
</event>
<event>
 7   1  0.1356560E+02  0.9118800E+02  0.7818608E-02  0.1180000E+00
       11   -1    0    0    0    0  0.00000000000E+00  0.00000000000E+00  0.65999999802E+01  0.66000000000E+01  0.51109989000E-03 0. -1.
     -623   -1    0    0    0    0  0.00000000000E+00  0.00000000000E+00  0.75637274222E-11  0.17124000000E+03  0.17124000000E+03 0.  1.
      622    2    1    2    0    0  0.32861350562E-02  0.17714302177E-02  0.65941700559E+01  0.65942393544E+01  0.29999999822E-01 0.  0.
     -611    1    3    3    0    0 -0.44967850990E-02  0.32647430808E-02  0.24199102612E+00  0.24205536054E+00  0.51109989000E-03 0.  1.
      611    1    3    3    0    0  0.77829201551E-02 -0.14933128631E-02  0.63521790298E+01  0.63521839939E+01  0.51109989000E-03 0. -1.
       11    1    1    2    0    0 -0.86293261812E-03  0.15079043653E-02  0.54685300857E-02  0.57605965554E-02  0.51109989000E-03 0. -1.
     -623    1    1    2    0    0 -0.24232024381E-02 -0.32793345831E-02  0.36139408826E-03  0.17124000005E+03  0.17124000000E+03 0.  1.
</event>
<event>
 7   1  0.1356560E+02  0.9118800E+02  0.7818608E-02  0.1180000E+00
       11   -1    0    0    0    0  0.00000000000E+00  0.00000000000E+00  0.65999999802E+01  0.66000000000E+01  0.51109989000E-03 0.  1.
     -623   -1    0    0    0    0  0.00000000000E+00  0.00000000000E+00  0.75637274222E-11  0.17124000000E+03  0.17124000000E+03 0.  1.
      622    2    1    2    0    0 -0.13128856216E-01  0.13414501430E-01  0.38898755526E+01  0.38900365204E+01  0.30000000144E-01 0.  0.
     -611    1    3    3    0    0 -0.99374296176E-02  0.22237965629E-01  0.22010833268E+01  0.22012181520E+01  0.51109989000E-03 0.  1.
      611    1    3    3    0    0 -0.31914265982E-02 -0.88234641998E-02  0.16887922258E+01  0.16888183685E+01  0.51109989000E-03 0. -1.
       11    1    1    2    0    0  0.12962547666E-01 -0.13094774943E-01  0.27099007912E+01  0.27099634794E+01  0.51109989000E-03 0.  1.
     -623    1    1    2    0    0  0.16630855022E-03 -0.31972648628E-03  0.22363687875E-03  0.17124000000E+03  0.17124000000E+03 0.  1.
</event>
<event>
 7   1  0.1356560E+02  0.9118800E+02  0.7818608E-02  0.1180000E+00
       11   -1    0    0    0    0  0.00000000000E+00  0.00000000000E+00  0.65999999802E+01  0.66000000000E+01  0.51109989000E-03 0.  1.
     -623   -1    0    0    0    0  0.00000000000E+00  0.00000000000E+00  0.75637274222E-11  0.17124000000E+03  0.17124000000E+03 0.  1.
      622    2    1    2    0    0  0.12556709992E-02 -0.36152956842E-03  0.65912933621E+01  0.65913617631E+01  0.29999999518E-01 0.  0.
     -611    1    3    3    0    0 -0.99737173532E-02 -0.42596121534E-02  0.10599479331E+01  0.10600035384E+01  0.51109989000E-03 0. -1.
      611    1    3    3    0    0  0.11229388352E-01  0.38980825850E-02  0.55313454289E+01  0.55313582247E+01  0.51109989000E-03 0.  1.
       11    1    1    2    0    0 -0.15625512630E-02 -0.45431105193E-04  0.84802279595E-02  0.86382359181E-02  0.51109989000E-03 0.  1.
     -623    1    1    2    0    0  0.30688026381E-03  0.40696067362E-03  0.22639012981E-03  0.17124000000E+03  0.17124000000E+03 0.  1.
</event>
<event>
 7   1  0.1356560E+02  0.9118800E+02  0.7818608E-02  0.1180000E+00
       11   -1    0    0    0    0  0.00000000000E+00  0.00000000000E+00  0.65999999802E+01  0.66000000000E+01  0.51109989000E-03 0.  1.
     -623   -1    0    0    0    0  0.00000000000E+00  0.00000000000E+00  0.75637274222E-11  0.17124000000E+03  0.17124000000E+03 0.  1.
      622    2    1    2    0    0 -0.10888843913E-01 -0.84509548170E-03  0.59886021123E+01  0.59886872135E+01  0.29999999581E-01 0.  0.
     -611    1    3    3    0    0 -0.19004958030E-01  0.49283528607E-02  0.49016579951E+01  0.49016973427E+01  0.51109989000E-03 0.  1.
      611    1    3    3    0    0  0.81161141171E-02 -0.57734483424E-02  0.10869441172E+01  0.10869898708E+01  0.51109989000E-03 0. -1.
       11    1    1    2    0    0  0.10923346995E-01  0.70704833803E-03  0.61121456273E+00  0.61131278601E+00  0.51109989000E-03 0.  1.
     -623    1    1    2    0    0 -0.34503082600E-04  0.13804714367E-03  0.18330480752E-03  0.17124000000E+03  0.17124000000E+03 0.  1.
</event>
<event>
 7   1  0.1356560E+02  0.9118800E+02  0.7818608E-02  0.1180000E+00
       11   -1    0    0    0    0  0.00000000000E+00  0.00000000000E+00  0.65999999802E+01  0.66000000000E+01  0.51109989000E-03 0.  1.
     -623   -1    0    0    0    0  0.00000000000E+00  0.00000000000E+00  0.75637274222E-11  0.17124000000E+03  0.17124000000E+03 0.  1.
      622    2    1    2    0    0  0.44423818332E-02 -0.61178606087E-03  0.64737967824E+01  0.64738678461E+01  0.30000002219E-01 0.  0.
     -611    1    3    3    0    0 -0.53337658041E-02  0.49295429957E-02  0.43748062634E+00  0.43754120846E+00  0.51109989000E-03 0. -1.
      611    1    3    3    0    0  0.97761476373E-02 -0.55413290566E-02  0.60363161561E+01  0.60363266377E+01  0.51109989000E-03 0.  1.
       11    1    1    2    0    0  0.71706157963E-02 -0.37163034023E-03  0.12592617978E+00  0.12613175578E+00  0.51109989000E-03 0.  1.
     -623    1    1    2    0    0 -0.11612997632E-01  0.98341640128E-03  0.27701676636E-03  0.17124000040E+03  0.17124000000E+03 0.  1.
</event>
<event>
 7   1  0.1356560E+02  0.9118800E+02  0.7818608E-02  0.1180000E+00
       11   -1    0    0    0    0  0.00000000000E+00  0.00000000000E+00  0.65999999802E+01  0.66000000000E+01  0.51109989000E-03 0.  1.
     -623   -1    0    0    0    0  0.00000000000E+00  0.00000000000E+00  0.75637274222E-11  0.17124000000E+03  0.17124000000E+03 0.  1.
      622    2    1    2    0    0  0.78709490478E-02 -0.12647577367E-02  0.64865757886E+01  0.64866500609E+01  0.30000001364E-01 0.  0.
     -611    1    3    3    0    0  0.62444545472E-02 -0.65167424608E-03  0.64635605016E+01  0.64635635710E+01  0.51109989000E-03 0.  1.
      611    1    3    3    0    0  0.16264945006E-02 -0.61308349061E-03  0.23015287063E-01  0.23086489933E-01  0.51109989000E-03 0. -1.
       11    1    1    2    0    0 -0.74142301099E-02  0.16995394317E-02  0.11309327038E+00  0.11334993723E+00  0.51109989000E-03 0.  1.
     -623    1    1    2    0    0 -0.45671893795E-03 -0.43478169505E-03  0.33092086822E-03  0.17124000000E+03  0.17124000000E+03 0.  1.
</event>
<event>
 7   1  0.1356560E+02  0.9118800E+02  0.7818608E-02  0.1180000E+00
       11   -1    0    0    0    0  0.00000000000E+00  0.00000000000E+00  0.65999999802E+01  0.66000000000E+01  0.51109989000E-03 0. -1.
     -623   -1    0    0    0    0  0.00000000000E+00  0.00000000000E+00  0.75637274222E-11  0.17124000000E+03  0.17124000000E+03 0.  1.
      622    2    1    2    0    0 -0.29240431380E-02 -0.36631483705E-03  0.61692289633E+01  0.61693026093E+01  0.30000000149E-01 0.  0.
     -611    1    3    3    0    0 -0.63246594252E-02 -0.14291217605E-01  0.28946020354E+01  0.28946442691E+01  0.51109989000E-03 0.  1.
      611    1    3    3    0    0  0.34006162872E-02  0.13924902768E-01  0.32746269279E+01  0.32746583402E+01  0.51109989000E-03 0. -1.
       11    1    1    2    0    0  0.30351418686E-02  0.18809293593E-03  0.43068635130E+00  0.43069739016E+00  0.51109989000E-03 0. -1.
     -623    1    1    2    0    0 -0.11109873061E-03  0.17822190113E-03  0.84665279461E-04  0.17124000000E+03  0.17124000000E+03 0.  1.
</event>
<event>
 7   1  0.1356560E+02  0.9118800E+02  0.7818608E-02  0.1180000E+00
       11   -1    0    0    0    0  0.00000000000E+00  0.00000000000E+00  0.65999999802E+01  0.66000000000E+01  0.51109989000E-03 0. -1.
     -623   -1    0    0    0    0  0.00000000000E+00  0.00000000000E+00  0.75637274222E-11  0.17124000000E+03  0.17124000000E+03 0.  1.
      622    2    1    2    0    0  0.57921305844E-02  0.82767881772E-02  0.29515454181E+01  0.29517151640E+01  0.30000000559E-01 0.  0.
     -611    1    3    3    0    0  0.84992161830E-02  0.18280407054E-01  0.22850513395E+01  0.22851403229E+01  0.51109989000E-03 0.  1.
      611    1    3    3    0    0 -0.27070855986E-02 -0.10003618877E-01  0.66649407863E+00  0.66657484110E+00  0.51109989000E-03 0. -1.
       11    1    1    2    0    0 -0.33662868041E-02 -0.87841821855E-02  0.36482726545E+01  0.36482848185E+01  0.51109989000E-03 0. -1.
     -623    1    1    2    0    0 -0.24258437802E-02  0.50739400823E-03  0.18190805801E-03  0.17124000002E+03  0.17124000000E+03 0.  1.
</event>
<event>
 7   1  0.1356560E+02  0.9118800E+02  0.7818608E-02  0.1180000E+00
       11   -1    0    0    0    0  0.00000000000E+00  0.00000000000E+00  0.65999999802E+01  0.66000000000E+01  0.51109989000E-03 0.  1.
     -623   -1    0    0    0    0  0.00000000000E+00  0.00000000000E+00  0.75637274222E-11  0.17124000000E+03  0.17124000000E+03 0.  1.
      622    2    1    2    0    0  0.21171747931E-02 -0.26342520608E-02  0.65838908040E+01  0.65839600197E+01  0.29999999645E-01 0.  0.
     -611    1    3    3    0    0  0.16306236424E-02 -0.13367886615E-01  0.15747353560E+01  0.15747930220E+01  0.51109989000E-03 0. -1.
      611    1    3    3    0    0  0.48655115069E-03  0.10733634554E-01  0.50091554480E+01  0.50091669977E+01  0.51109989000E-03 0.  1.
       11    1    1    2    0    0  0.52542569457E-03  0.76887884574E-04  0.16022999668E-01  0.16039941564E-01  0.51109989000E-03 0. -1.
     -623    1    1    2    0    0 -0.26426004873E-02  0.25573641759E-02  0.86177297918E-04  0.17124000004E+03  0.17124000000E+03 0.  1.
</event>
<event>
 7   1  0.1356560E+02  0.9118800E+02  0.7818608E-02  0.1180000E+00
       11   -1    0    0    0    0  0.00000000000E+00  0.00000000000E+00  0.65999999802E+01  0.66000000000E+01  0.51109989000E-03 0.  1.
     -623   -1    0    0    0    0  0.00000000000E+00  0.00000000000E+00  0.75637274222E-11  0.17124000000E+03  0.17124000000E+03 0.  1.
      622    2    1    2    0    0  0.66479172871E-02  0.71709882019E-02  0.24092592480E+01  0.24094658624E+01  0.29999999967E-01 0.  0.
     -611    1    3    3    0    0  0.39537040243E-02  0.16844655708E-01  0.86111904055E+00  0.86129300323E+00  0.51109989000E-03 0.  1.
      611    1    3    3    0    0  0.26942132629E-02 -0.96736675063E-02  0.15481402075E+01  0.15481728592E+01  0.51109989000E-03 0. -1.
       11    1    1    2    0    0  0.10302116269E-01 -0.19219790925E-01  0.41904761021E+01  0.41905328727E+01  0.51109989000E-03 0.  1.
     -623    1    1    2    0    0 -0.16950033562E-01  0.12048802726E-01  0.26462821133E-03  0.17124000126E+03  0.17124000000E+03 0.  1.
</event>
<event>
 7   1  0.1356560E+02  0.9118800E+02  0.7818608E-02  0.1180000E+00
       11   -1    0    0    0    0  0.00000000000E+00  0.00000000000E+00  0.65999999802E+01  0.66000000000E+01  0.51109989000E-03 0.  1.
     -623   -1    0    0    0    0  0.00000000000E+00  0.00000000000E+00  0.75637274222E-11  0.17124000000E+03  0.17124000000E+03 0. -1.
      622    2    1    2    0    0 -0.16324824389E-01 -0.15926810795E-01  0.38659739718E+01  0.38661576421E+01  0.29999999576E-01 0.  0.
     -611    1    3    3    0    0  0.23136486001E-02 -0.16197756332E-01  0.25374790414E+01  0.25375318456E+01  0.51109989000E-03 0.  1.
      611    1    3    3    0    0 -0.18638472989E-01  0.27094553656E-03  0.13284949303E+01  0.13286257965E+01  0.51109989000E-03 0. -1.
       11    1    1    2    0    0 -0.45574211566E-02  0.16394223672E-02  0.27338361532E+01  0.27338404912E+01  0.51109989000E-03 0.  1.
     -623    1    1    2    0    0  0.20882245537E-01  0.14287388422E-01  0.18985799600E-03  0.17124000187E+03  0.17124000000E+03 0. -1.
</event>
<event>
 7   1  0.1356560E+02  0.9118800E+02  0.7818608E-02  0.1180000E+00
       11   -1    0    0    0    0  0.00000000000E+00  0.00000000000E+00  0.65999999802E+01  0.66000000000E+01  0.51109989000E-03 0.  1.
     -623   -1    0    0    0    0  0.00000000000E+00  0.00000000000E+00  0.75637274222E-11  0.17124000000E+03  0.17124000000E+03 0.  1.
      622    2    1    2    0    0 -0.53418510522E-02  0.32452508531E-02  0.64641053074E+01  0.64641779441E+01  0.30000000241E-01 0.  0.
     -611    1    3    3    0    0 -0.17308539689E-01  0.13028895964E-03  0.45256971068E+01  0.45257302357E+01  0.51109989000E-03 0.  1.
      611    1    3    3    0    0  0.11966688637E-01  0.31149618934E-02  0.19384082007E+01  0.19384477084E+01  0.51109989000E-03 0. -1.
       11    1    1    2    0    0  0.51092047115E-02 -0.13861839787E-02  0.13571787620E+00  0.13582204763E+00  0.51109989000E-03 0.  1.
     -623    1    1    2    0    0  0.23264634061E-03 -0.18590668739E-02  0.17679862662E-03  0.17124000001E+03  0.17124000000E+03 0.  1.
</event>
<event>
 7   1  0.1356560E+02  0.9118800E+02  0.7818608E-02  0.1180000E+00
       11   -1    0    0    0    0  0.00000000000E+00  0.00000000000E+00  0.65999999802E+01  0.66000000000E+01  0.51109989000E-03 0.  1.
     -623   -1    0    0    0    0  0.00000000000E+00  0.00000000000E+00  0.75637274222E-11  0.17124000000E+03  0.17124000000E+03 0.  1.
      622    2    1    2    0    0 -0.79532552514E-02  0.15674755885E-02  0.63813525382E+01  0.63814282044E+01  0.30000000061E-01 0.  0.
     -611    1    3    3    0    0 -0.79494876241E-02  0.21689262493E-02  0.63769582155E+01  0.63769635597E+01  0.51109989000E-03 0.  1.
      611    1    3    3    0    0 -0.37676273863E-05 -0.60145066081E-03  0.43943227585E-02  0.44646447446E-02  0.51109989000E-03 0. -1.
       11    1    1    2    0    0  0.63844867836E-02 -0.25323777284E-02  0.21846324506E+00  0.21857178517E+00  0.51109989000E-03 0.  1.
     -623    1    1    2    0    0  0.15687684679E-02  0.96490213996E-03  0.18419654493E-03  0.17124000001E+03  0.17124000000E+03 0.  1.
</event>
<event>
 7   1  0.1356560E+02  0.9118800E+02  0.7818608E-02  0.1180000E+00
       11   -1    0    0    0    0  0.00000000000E+00  0.00000000000E+00  0.65999999802E+01  0.66000000000E+01  0.51109989000E-03 0. -1.
     -623   -1    0    0    0    0  0.00000000000E+00  0.00000000000E+00  0.75637274222E-11  0.17124000000E+03  0.17124000000E+03 0.  1.
      622    2    1    2    0    0 -0.78084175057E-02  0.41856602253E-02  0.64262147499E+01  0.64262908822E+01  0.29999999416E-01 0.  0.
     -611    1    3    3    0    0  0.10308034114E-01  0.43109002437E-02  0.36400598031E+01  0.36400769869E+01  0.51109989000E-03 0. -1.
      611    1    3    3    0    0 -0.18116451620E-01 -0.12524001847E-03  0.27861549468E+01  0.27862138953E+01  0.51109989000E-03 0.  1.
       11    1    1    2    0    0  0.54992561584E-02 -0.48658925573E-02  0.17355307963E+00  0.17370909993E+00  0.51109989000E-03 0. -1.
     -623    1    1    2    0    0  0.23091613475E-02  0.68023233210E-03  0.23214992500E-03  0.17124000002E+03  0.17124000000E+03 0.  1.
</event>
<event>
 7   1  0.1356560E+02  0.9118800E+02  0.7818608E-02  0.1180000E+00
       11   -1    0    0    0    0  0.00000000000E+00  0.00000000000E+00  0.65999999802E+01  0.66000000000E+01  0.51109989000E-03 0. -1.
     -623   -1    0    0    0    0  0.00000000000E+00  0.00000000000E+00  0.75637274222E-11  0.17124000000E+03  0.17124000000E+03 0.  1.
      622    2    1    2    0    0  0.28067344813E-03  0.14357633739E-02  0.65965929577E+01  0.65966613366E+01  0.30000000209E-01 0.  0.
     -611    1    3    3    0    0 -0.75684612684E-02 -0.12157836554E-01  0.31565614767E+01  0.31565940050E+01  0.51109989000E-03 0.  1.
      611    1    3    3    0    0  0.78491347165E-02  0.13593599928E-01  0.34400314809E+01  0.34400673316E+01  0.51109989000E-03 0. -1.
       11    1    1    2    0    0 -0.14515520442E-02 -0.52949830291E-03  0.29151387640E-02  0.33386567509E-02  0.51109989000E-03 0. -1.
     -623    1    1    2    0    0  0.11708785960E-02 -0.90626507095E-03  0.49188421194E-03  0.17124000001E+03  0.17124000000E+03 0.  1.
</event>
<event>
 7   1  0.1356560E+02  0.9118800E+02  0.7818608E-02  0.1180000E+00
       11   -1    0    0    0    0  0.00000000000E+00  0.00000000000E+00  0.65999999802E+01  0.66000000000E+01  0.51109989000E-03 0.  1.
     -623   -1    0    0    0    0  0.00000000000E+00  0.00000000000E+00  0.75637274222E-11  0.17124000000E+03  0.17124000000E+03 0. -1.
      622    2    1    2    0    0  0.14210624860E-02 -0.33825726074E-03  0.65939309838E+01  0.65939993899E+01  0.30000000441E-01 0.  0.
     -611    1    3    3    0    0 -0.89078961796E-02 -0.70215865607E-03  0.57220567535E+01  0.57220637532E+01  0.51109989000E-03 0.  1.
      611    1    3    3    0    0  0.10328958666E-01  0.36390139533E-03  0.87187423034E+00  0.87193563671E+00  0.51109989000E-03 0. -1.
       11    1    1    2    0    0 -0.14576334978E-02 -0.41452690200E-03  0.57835599776E-02  0.60006097256E-02  0.51109989000E-03 0.  1.
     -623    1    1    2    0    0  0.36571011857E-04  0.75278416258E-03  0.28543788504E-03  0.17124000000E+03  0.17124000000E+03 0. -1.
</event>
<event>
 7   1  0.1815550E+02  0.9118800E+02  0.7818608E-02  0.1180000E+00
       11   -1    0    0    0    0  0.00000000000E+00  0.00000000000E+00  0.65999999802E+01  0.66000000000E+01  0.51109989000E-03 0.  1.
     -623   -1    0    0    0    0  0.00000000000E+00  0.00000000000E+00  0.75637274222E-11  0.17124000000E+03  0.17124000000E+03 0.  1.
      622    2    1    2    0    0  0.55544252178E-03  0.45492053057E-03  0.65978867552E+01  0.65979549975E+01  0.29999999754E-01 0.  0.
     -611    1    3    3    0    0 -0.11474070704E-01 -0.26519248822E-02  0.12945759194E+01  0.12946295839E+01  0.51109989000E-03 0. -1.
      611    1    3    3    0    0  0.12029513226E-01  0.31068454128E-02  0.53033108358E+01  0.53033254137E+01  0.51109989000E-03 0.  1.
       11    1    1    2    0    0 -0.27844210204E-03 -0.71829902337E-03  0.18240955214E-02  0.20450014817E-02  0.51109989000E-03 0.  1.
     -623    1    1    2    0    0 -0.27700041975E-03  0.26337849281E-03  0.28912921441E-03  0.17124000000E+03  0.17124000000E+03 0.  1.
</event>
<event>
 7   1  0.1356560E+02  0.9118800E+02  0.7818608E-02  0.1180000E+00
       11   -1    0    0    0    0  0.00000000000E+00  0.00000000000E+00  0.65999999802E+01  0.66000000000E+01  0.51109989000E-03 0.  1.
     -623   -1    0    0    0    0  0.00000000000E+00  0.00000000000E+00  0.75637274222E-11  0.17124000000E+03  0.17124000000E+03 0. -1.
      622    2    1    2    0    0 -0.55502187340E-02 -0.42905647978E-03  0.54139112352E+01  0.54139972157E+01  0.30000000329E-01 0.  0.
     -611    1    3    3    0    0 -0.11128281707E-01 -0.73789241487E-02  0.11653667810E+01  0.11654433845E+01  0.51109989000E-03 0. -1.
      611    1    3    3    0    0  0.55780629732E-02  0.69498676689E-02  0.42485444543E+01  0.42485538312E+01  0.51109989000E-03 0.  1.
       11    1    1    2    0    0  0.60771891481E-02  0.14583502353E-02  0.11859862048E+01  0.11860027817E+01  0.51109989000E-03 0.  1.
     -623    1    1    2    0    0 -0.52697041402E-03 -0.10292937553E-02  0.10254156327E-03  0.17124000000E+03  0.17124000000E+03 0. -1.
</event>
<event>
 7   1  0.1356560E+02  0.9118800E+02  0.7818608E-02  0.1180000E+00
       11   -1    0    0    0    0  0.00000000000E+00  0.00000000000E+00  0.65999999802E+01  0.66000000000E+01  0.51109989000E-03 0.  1.
     -623   -1    0    0    0    0  0.00000000000E+00  0.00000000000E+00  0.75637274222E-11  0.17124000000E+03  0.17124000000E+03 0.  1.
      622    2    1    2    0    0 -0.18611321299E-02  0.24823770305E-02  0.56292363750E+01  0.56293171693E+01  0.30000001981E-01 0.  0.
     -611    1    3    3    0    0 -0.71037649677E-02  0.86803273630E-02  0.51466693672E+01  0.51466816151E+01  0.51109989000E-03 0.  1.
      611    1    3    3    0    0  0.52426328378E-02 -0.61979503325E-02  0.48256700788E+00  0.48263555413E+00  0.51109989000E-03 0. -1.
       11    1    1    2    0    0 -0.84435655147E-03 -0.34082790532E-02  0.97067632387E+00  0.97068280929E+00  0.51109989000E-03 0.  1.
     -623    1    1    2    0    0  0.27054886803E-02  0.92590202231E-03  0.87283761647E-04  0.17124000002E+03  0.17124000000E+03 0.  1.
</event>
<event>
 7   1  0.1356560E+02  0.9118800E+02  0.7818608E-02  0.1180000E+00
       11   -1    0    0    0    0  0.00000000000E+00  0.00000000000E+00  0.65999999802E+01  0.66000000000E+01  0.51109989000E-03 0.  1.
     -623   -1    0    0    0    0  0.00000000000E+00  0.00000000000E+00  0.75637274222E-11  0.17124000000E+03  0.17124000000E+03 0. -1.
      622    2    1    2    0    0  0.10811496606E-01  0.21030644304E-01  0.58137220086E+01  0.58138475014E+01  0.30000005173E-01 0.  0.
     -611    1    3    3    0    0  0.19128508938E-01  0.22621966163E-01  0.43498094543E+01  0.43499103672E+01  0.51109989000E-03 0.  1.
      611    1    3    3    0    0 -0.83170123315E-02 -0.15913218593E-02  0.14639125543E+01  0.14639371342E+01  0.51109989000E-03 0. -1.
       11    1    1    2    0    0  0.15656619326E-01 -0.15246135282E-01  0.78584638866E+00  0.78615035595E+00  0.51109989000E-03 0.  1.
     -623    1    1    2    0    0 -0.26468115927E-01 -0.57845090208E-02  0.43158415191E-03  0.17124000214E+03  0.17124000000E+03 0. -1.
</event>
<event>
 7   1  0.1356560E+02  0.9118800E+02  0.7818608E-02  0.1180000E+00
       11   -1    0    0    0    0  0.00000000000E+00  0.00000000000E+00  0.65999999802E+01  0.66000000000E+01  0.51109989000E-03 0. -1.
     -623   -1    0    0    0    0  0.00000000000E+00  0.00000000000E+00  0.75637274222E-11  0.17124000000E+03  0.17124000000E+03 0. -1.
      622    2    1    2    0    0  0.14585929552E-02 -0.10685298763E-01  0.56732703139E+01  0.56733598826E+01  0.29999999905E-01 0.  0.
     -611    1    3    3    0    0  0.29967564547E-02 -0.18630589348E-01  0.50691664883E+01  0.50692016361E+01  0.51109989000E-03 0. -1.
      611    1    3    3    0    0 -0.15381634995E-02  0.79452905848E-02  0.60410382552E+00  0.60415824651E+00  0.51109989000E-03 0.  1.
       11    1    1    2    0    0 -0.13440403487E-01  0.70305488480E-02  0.92651536620E+00  0.92663965925E+00  0.51109989000E-03 0. -1.
     -623    1    1    2    0    0  0.11981810531E-01  0.36547499149E-02  0.21430030613E-03  0.17124000046E+03  0.17124000000E+03 0. -1.
</event>
<event>
 7   1  0.1356560E+02  0.9118800E+02  0.7818608E-02  0.1180000E+00
       11   -1    0    0    0    0  0.00000000000E+00  0.00000000000E+00  0.65999999802E+01  0.66000000000E+01  0.51109989000E-03 0. -1.
     -623   -1    0    0    0    0  0.00000000000E+00  0.00000000000E+00  0.75637274222E-11  0.17124000000E+03  0.17124000000E+03 0.  1.
      622    2    1    2    0    0 -0.57844766133E-02 -0.77329199225E-03  0.50441731934E+01  0.50442657804E+01  0.30000000122E-01 0.  0.
     -611    1    3    3    0    0  0.12189557306E-01 -0.20357565848E-02  0.23172639085E+01  0.23172969194E+01  0.51109989000E-03 0. -1.
      611    1    3    3    0    0 -0.17974033919E-01  0.12624645926E-02  0.27269092849E+01  0.27269688610E+01  0.51109989000E-03 0.  1.
       11    1    1    2    0    0  0.62773151880E-02  0.31505794470E-02  0.15557182684E+01  0.15557342070E+01  0.51109989000E-03 0. -1.
     -623    1    1    2    0    0 -0.49283857444E-03 -0.23772874531E-02  0.10852300538E-03  0.17124000002E+03  0.17124000000E+03 0.  1.
</event>
<event>
 7   1  0.1356560E+02  0.9118800E+02  0.7818608E-02  0.1180000E+00
       11   -1    0    0    0    0  0.00000000000E+00  0.00000000000E+00  0.65999999802E+01  0.66000000000E+01  0.51109989000E-03 0.  1.
     -623   -1    0    0    0    0  0.00000000000E+00  0.00000000000E+00  0.75637274222E-11  0.17124000000E+03  0.17124000000E+03 0.  1.
      622    2    1    2    0    0 -0.39455979353E-02  0.22779321490E-02  0.65569224346E+01  0.65569926468E+01  0.30000000141E-01 0.  0.
     -611    1    3    3    0    0 -0.16985878601E-01 -0.24939499036E-03  0.34804949509E+01  0.34805364452E+01  0.51109989000E-03 0.  1.
      611    1    3    3    0    0  0.13040280666E-01  0.25273271394E-02  0.30764274837E+01  0.30764562015E+01  0.51109989000E-03 0. -1.
       11    1    1    2    0    0  0.34218495427E-02 -0.29805724669E-02  0.42764215941E-01  0.43007351170E-01  0.51109989000E-03 0.  1.
     -623    1    1    2    0    0  0.52374839252E-03  0.70264031787E-03  0.31333016859E-03  0.17124000000E+03  0.17124000000E+03 0.  1.
</event>
<event>
 7   1  0.1356560E+02  0.9118800E+02  0.7818608E-02  0.1180000E+00
       11   -1    0    0    0    0  0.00000000000E+00  0.00000000000E+00  0.65999999802E+01  0.66000000000E+01  0.51109989000E-03 0. -1.
     -623   -1    0    0    0    0  0.00000000000E+00  0.00000000000E+00  0.75637274222E-11  0.17124000000E+03  0.17124000000E+03 0.  1.
      622    2    1    2    0    0  0.26139174782E-02 -0.20061122204E-02  0.65606171992E+01  0.65606866174E+01  0.29999999602E-01 0.  0.
     -611    1    3    3    0    0 -0.87027512495E-02  0.16343863613E-02  0.68562689228E+00  0.68568426097E+00  0.51109989000E-03 0.  1.
      611    1    3    3    0    0  0.11316668728E-01 -0.36404985817E-02  0.58749903069E+01  0.58750023564E+01  0.51109989000E-03 0. -1.
       11    1    1    2    0    0 -0.67677494751E-03  0.32703531077E-02  0.39167924208E-01  0.39313365966E-01  0.51109989000E-03 0. -1.
     -623    1    1    2    0    0 -0.19371425310E-02 -0.12642408876E-02  0.21485591524E-03  0.17124000002E+03  0.17124000000E+03 0.  1.
</event>
<event>
 7   1  0.1356560E+02  0.9118800E+02  0.7818608E-02  0.1180000E+00
       11   -1    0    0    0    0  0.00000000000E+00  0.00000000000E+00  0.65999999802E+01  0.66000000000E+01  0.51109989000E-03 0.  1.
     -623   -1    0    0    0    0  0.00000000000E+00  0.00000000000E+00  0.75637274222E-11  0.17124000000E+03  0.17124000000E+03 0. -1.
      622    2    1    2    0    0  0.45525832632E-03  0.39629650128E-03  0.35568058586E+01  0.35569324255E+01  0.29999996492E-01 0.  0.
     -611    1    3    3    0    0 -0.10858699062E-01  0.10121030902E-01  0.19916051081E+01  0.19916604918E+01  0.51109989000E-03 0. -1.
      611    1    3    3    0    0  0.11313957389E-01 -0.97247344005E-02  0.15652007504E+01  0.15652719337E+01  0.51109989000E-03 0.  1.
       11    1    1    2    0    0 -0.80069445299E-03 -0.75144108197E-03  0.30430673351E+01  0.30430675761E+01  0.51109989000E-03 0.  1.
     -623    1    1    2    0    0  0.34543612654E-03  0.35514458056E-03  0.12678896307E-03  0.17124000000E+03  0.17124000000E+03 0. -1.
</event>
<event>
 7   1  0.1356560E+02  0.9118800E+02  0.7818608E-02  0.1180000E+00
       11   -1    0    0    0    0  0.00000000000E+00  0.00000000000E+00  0.65999999802E+01  0.66000000000E+01  0.51109989000E-03 0. -1.
     -623   -1    0    0    0    0  0.00000000000E+00  0.00000000000E+00  0.75637274222E-11  0.17124000000E+03  0.17124000000E+03 0. -1.
      622    2    1    2    0    0 -0.91577515694E-03  0.71663880322E-03  0.65872343320E+01  0.65873027482E+01  0.30000000131E-01 0.  0.
     -611    1    3    3    0    0 -0.91598753851E-04 -0.88923093467E-02  0.65510376252E+00  0.65516431714E+00  0.51109989000E-03 0.  1.
      611    1    3    3    0    0 -0.82417640309E-03  0.96089481499E-02  0.59321305695E+01  0.59321384311E+01  0.51109989000E-03 0. -1.
       11    1    1    2    0    0  0.89139252695E-03 -0.12126256512E-02  0.12597377513E-01  0.12697251077E-01  0.51109989000E-03 0. -1.
     -623    1    1    2    0    0  0.24382629987E-04  0.49598684797E-03  0.16827081958E-03  0.17124000000E+03  0.17124000000E+03 0. -1.
</event>
<event>
 7   1  0.1356560E+02  0.9118800E+02  0.7818608E-02  0.1180000E+00
       11   -1    0    0    0    0  0.00000000000E+00  0.00000000000E+00  0.65999999802E+01  0.66000000000E+01  0.51109989000E-03 0.  1.
     -623   -1    0    0    0    0  0.00000000000E+00  0.00000000000E+00  0.75637274222E-11  0.17124000000E+03  0.17124000000E+03 0. -1.
      622    2    1    2    0    0 -0.19146146942E-03 -0.11995443081E-02  0.65751023200E+01  0.65751708718E+01  0.30000002386E-01 0.  0.
     -611    1    3    3    0    0 -0.10084433863E-01  0.59539154545E-03  0.85700397286E+00  0.85706366217E+00  0.51109989000E-03 0. -1.
      611    1    3    3    0    0  0.98929723935E-02 -0.17949358535E-02  0.57180983471E+01  0.57181072097E+01  0.51109989000E-03 0.  1.
       11    1    1    2    0    0 -0.83294373941E-03 -0.17367311624E-02  0.24749001344E-01  0.24829102300E-01  0.51109989000E-03 0.  1.
     -623    1    1    2    0    0  0.10244052085E-02  0.29362754694E-02  0.14866133867E-03  0.17124000003E+03  0.17124000000E+03 0. -1.
</event>
<event>
 7   1  0.1356560E+02  0.9118800E+02  0.7818608E-02  0.1180000E+00
       11   -1    0    0    0    0  0.00000000000E+00  0.00000000000E+00  0.65999999802E+01  0.66000000000E+01  0.51109989000E-03 0.  1.
     -623   -1    0    0    0    0  0.00000000000E+00  0.00000000000E+00  0.75637274222E-11  0.17124000000E+03  0.17124000000E+03 0. -1.
      622    2    1    2    0    0 -0.25574415770E-02 -0.10081663603E-02  0.64671894650E+01  0.64672596309E+01  0.30000000271E-01 0.  0.
     -611    1    3    3    0    0  0.10566812924E-01  0.42241042969E-02  0.46933711420E+01  0.46933849659E+01  0.51109989000E-03 0.  1.
      611    1    3    3    0    0 -0.13124254501E-01 -0.52322706571E-02  0.17738183230E+01  0.17738746649E+01  0.51109989000E-03 0. -1.
       11    1    1    2    0    0 -0.33722463067E-02 -0.15336002958E-02  0.13268755923E+00  0.13274024850E+00  0.51109989000E-03 0.  1.
     -623    1    1    2    0    0  0.59296878828E-02  0.25417666557E-02  0.12295693917E-03  0.17124000012E+03  0.17124000000E+03 0. -1.
</event>
<event>
 7   1  0.1356560E+02  0.9118800E+02  0.7818608E-02  0.1180000E+00
       11   -1    0    0    0    0  0.00000000000E+00  0.00000000000E+00  0.65999999802E+01  0.66000000000E+01  0.51109989000E-03 0.  1.
     -623   -1    0    0    0    0  0.00000000000E+00  0.00000000000E+00  0.75637274222E-11  0.17124000000E+03  0.17124000000E+03 0.  1.
      622    2    1    2    0    0  0.13625008701E-01 -0.10979337858E-01  0.64773325815E+01  0.64774256892E+01  0.30000000246E-01 0.  0.
     -611    1    3    3    0    0 -0.13474417291E-02 -0.17123373591E-01  0.42227433476E+01  0.42227783113E+01  0.51109989000E-03 0. -1.
      611    1    3    3    0    0  0.14972450430E-01  0.61440357330E-02  0.22545892340E+01  0.22546473779E+01  0.51109989000E-03 0.  1.
       11    1    1    2    0    0 -0.13509039897E-01  0.37825825906E-03  0.12182562239E+00  0.12257398065E+00  0.51109989000E-03 0.  1.
     -623    1    1    2    0    0 -0.11596880454E-03  0.10601079599E-01  0.84177635141E-03  0.17124000033E+03  0.17124000000E+03 0.  1.
</event>
<event>
 7   1  0.1356560E+02  0.9118800E+02  0.7818608E-02  0.1180000E+00
       11   -1    0    0    0    0  0.00000000000E+00  0.00000000000E+00  0.65999999802E+01  0.66000000000E+01  0.51109989000E-03 0.  1.
     -623   -1    0    0    0    0  0.00000000000E+00  0.00000000000E+00  0.75637274222E-11  0.17124000000E+03  0.17124000000E+03 0.  1.
      622    2    1    2    0    0  0.22962277004E-03 -0.16108195266E-02  0.65762711467E+01  0.65763397755E+01  0.30000000322E-01 0.  0.
     -611    1    3    3    0    0 -0.11484668301E-01 -0.97147229267E-02  0.40981501726E+01  0.40981778112E+01  0.51109989000E-03 0.  1.
      611    1    3    3    0    0  0.11714291071E-01  0.81039034001E-02  0.24781209741E+01  0.24781619643E+01  0.51109989000E-03 0. -1.
       11    1    1    2    0    0  0.46304370371E-04  0.12811574757E-02  0.23619935102E-01  0.23660221171E-01  0.51109989000E-03 0.  1.
     -623    1    1    2    0    0 -0.27592714052E-03  0.32966205108E-03  0.10889563022E-03  0.17124000000E+03  0.17124000000E+03 0.  1.
</event>
<event>
 7   1  0.1356560E+02  0.9118800E+02  0.7818608E-02  0.1180000E+00
       11   -1    0    0    0    0  0.00000000000E+00  0.00000000000E+00  0.65999999802E+01  0.66000000000E+01  0.51109989000E-03 0. -1.
     -623   -1    0    0    0    0  0.00000000000E+00  0.00000000000E+00  0.75637274222E-11  0.17124000000E+03  0.17124000000E+03 0.  1.
      622    2    1    2    0    0  0.14148307159E-01  0.34119088579E-02  0.44661465885E+00  0.44785764393E+00  0.30000000161E-01 0.  0.
     -611    1    3    3    0    0  0.20130033930E-01 -0.45865115096E-02  0.37239495054E+00  0.37296717653E+00  0.51109989000E-03 0.  1.
      611    1    3    3    0    0 -0.59817267716E-02  0.79984203675E-02  0.74219708301E-01  0.74890467397E-01  0.51109989000E-03 0. -1.
       11    1    1    2    0    0 -0.16485197015E-01  0.15253607549E-01  0.61521002998E+01  0.61521413178E+01  0.51109989000E-03 0. -1.
     -623    1    1    2    0    0  0.23368898568E-02 -0.18665516408E-01  0.12850213642E-02  0.17124000104E+03  0.17124000000E+03 0.  1.
</event>
<event>
 7   1  0.1356560E+02  0.9118800E+02  0.7818608E-02  0.1180000E+00
       11   -1    0    0    0    0  0.00000000000E+00  0.00000000000E+00  0.65999999802E+01  0.66000000000E+01  0.51109989000E-03 0. -1.
     -623   -1    0    0    0    0  0.00000000000E+00  0.00000000000E+00  0.75637274222E-11  0.17124000000E+03  0.17124000000E+03 0.  1.
      622    2    1    2    0    0 -0.90199677785E-02 -0.13790236192E-01  0.63211540487E+01  0.63212467155E+01  0.30000001767E-01 0.  0.
     -611    1    3    3    0    0 -0.13352010686E-01 -0.20264548430E-01  0.55517412619E+01  0.55517943251E+01  0.51109989000E-03 0. -1.
      611    1    3    3    0    0  0.43320429077E-02  0.64743122375E-02  0.76941278684E+00  0.76945239040E+00  0.51109989000E-03 0.  1.
       11    1    1    2    0    0  0.55047181152E-02  0.11370991950E-01  0.27846633810E+00  0.27875323147E+00  0.51109989000E-03 0. -1.
     -623    1    1    2    0    0  0.35152496630E-02  0.24192442421E-02  0.37959396082E-03  0.17124000005E+03  0.17124000000E+03 0.  1.
</event>
<event>
 7   1  0.1356560E+02  0.9118800E+02  0.7818608E-02  0.1180000E+00
       11   -1    0    0    0    0  0.00000000000E+00  0.00000000000E+00  0.65999999802E+01  0.66000000000E+01  0.51109989000E-03 0. -1.
     -623   -1    0    0    0    0  0.00000000000E+00  0.00000000000E+00  0.75637274222E-11  0.17124000000E+03  0.17124000000E+03 0.  1.
      622    2    1    2    0    0  0.16158202571E-02  0.60021121238E-03  0.61014214980E+01  0.61014954944E+01  0.29999999673E-01 0.  0.
     -611    1    3    3    0    0  0.10687752069E-01 -0.76092523569E-02  0.47598607953E+01  0.47598789040E+01  0.51109989000E-03 0. -1.
      611    1    3    3    0    0 -0.90719318118E-02  0.82094635693E-02  0.13415607028E+01  0.13416165904E+01  0.51109989000E-03 0.  1.
       11    1    1    2    0    0 -0.10437665607E-02 -0.15068856635E-02  0.49850087341E+00  0.49850450566E+00  0.51109989000E-03 0. -1.
     -623    1    1    2    0    0 -0.57205369611E-03  0.90667445062E-03  0.77612177803E-04  0.17124000000E+03  0.17124000000E+03 0.  1.
</event>
<event>
 7   1  0.1356560E+02  0.9118800E+02  0.7818608E-02  0.1180000E+00
       11   -1    0    0    0    0  0.00000000000E+00  0.00000000000E+00  0.65999999802E+01  0.66000000000E+01  0.51109989000E-03 0.  1.
     -623   -1    0    0    0    0  0.00000000000E+00  0.00000000000E+00  0.75637274222E-11  0.17124000000E+03  0.17124000000E+03 0.  1.
      622    2    1    2    0    0 -0.15594540272E-02  0.56015932119E-02  0.65865315801E+01  0.65866024676E+01  0.30000000124E-01 0.  0.
     -611    1    3    3    0    0 -0.68793433353E-02  0.23652580623E-02  0.39252543619E+00  0.39259317249E+00  0.51109989000E-03 0. -1.
      611    1    3    3    0    0  0.53198893081E-02  0.32363351496E-02  0.61940061439E+01  0.61940092951E+01  0.51109989000E-03 0.  1.
       11    1    1    2    0    0 -0.45825837113E-03  0.28668075029E-02  0.13068976639E-01  0.13397311652E-01  0.51109989000E-03 0.  1.
     -623    1    1    2    0    0  0.20177123980E-02 -0.84684007135E-02  0.39942441918E-03  0.17124000022E+03  0.17124000000E+03 0.  1.
</event>
<event>
 7   1  0.1356560E+02  0.9118800E+02  0.7818608E-02  0.1180000E+00
       11   -1    0    0    0    0  0.00000000000E+00  0.00000000000E+00  0.65999999802E+01  0.66000000000E+01  0.51109989000E-03 0.  1.
     -623   -1    0    0    0    0  0.00000000000E+00  0.00000000000E+00  0.75637274222E-11  0.17124000000E+03  0.17124000000E+03 0.  1.
      622    2    1    2    0    0 -0.40373474379E-02  0.60786659879E-02  0.60555347898E+01  0.60556134983E+01  0.30000000164E-01 0.  0.
     -611    1    3    3    0    0 -0.78440112381E-02 -0.10195700607E-01  0.35218980038E+01  0.35219215339E+01  0.51109989000E-03 0.  1.
      611    1    3    3    0    0  0.38066638002E-02  0.16274366595E-01  0.25336367860E+01  0.25336919644E+01  0.51109989000E-03 0. -1.
       11    1    1    2    0    0  0.42951641785E-02 -0.10006785809E-01  0.54427728927E+00  0.54438645559E+00  0.51109989000E-03 0.  1.
     -623    1    1    2    0    0 -0.25781674070E-03  0.39281198217E-02  0.18790039888E-03  0.17124000005E+03  0.17124000000E+03 0.  1.
</event>
<event>
 7   1  0.1356560E+02  0.9118800E+02  0.7818608E-02  0.1180000E+00
       11   -1    0    0    0    0  0.00000000000E+00  0.00000000000E+00  0.65999999802E+01  0.66000000000E+01  0.51109989000E-03 0. -1.
     -623   -1    0    0    0    0  0.00000000000E+00  0.00000000000E+00  0.75637274222E-11  0.17124000000E+03  0.17124000000E+03 0.  1.
      622    2    1    2    0    0  0.15060742945E-02 -0.79862785484E-03  0.62862264520E+01  0.62862982679E+01  0.29999999702E-01 0.  0.
     -611    1    3    3    0    0 -0.89945261561E-02  0.69653923791E-02  0.48232062831E+01  0.48232197263E+01  0.51109989000E-03 0. -1.
      611    1    3    3    0    0  0.10500600451E-01 -0.77640202340E-02  0.14630201690E+01  0.14630785415E+01  0.51109989000E-03 0.  1.
       11    1    1    2    0    0 -0.18067505975E-02  0.59968112263E-03  0.31369553827E+00  0.31370173081E+00  0.51109989000E-03 0. -1.
     -623    1    1    2    0    0  0.30067630306E-03  0.19894673224E-03  0.77988974462E-04  0.17124000000E+03  0.17124000000E+03 0.  1.
</event>
<event>
 7   1  0.1356560E+02  0.9118800E+02  0.7818608E-02  0.1180000E+00
       11   -1    0    0    0    0  0.00000000000E+00  0.00000000000E+00  0.65999999802E+01  0.66000000000E+01  0.51109989000E-03 0. -1.
     -623   -1    0    0    0    0  0.00000000000E+00  0.00000000000E+00  0.75637274222E-11  0.17124000000E+03  0.17124000000E+03 0. -1.
      622    2    1    2    0    0 -0.46025798606E-03 -0.27208270716E-02  0.37265238048E+01  0.37266455805E+01  0.30000001149E-01 0.  0.
     -611    1    3    3    0    0 -0.30378243494E-02  0.13011036019E-01  0.12814423710E+01  0.12815121251E+01  0.51109989000E-03 0. -1.
      611    1    3    3    0    0  0.25775663633E-02 -0.15731863091E-01  0.24450814338E+01  0.24451334554E+01  0.51109989000E-03 0.  1.
       11    1    1    2    0    0  0.68233849818E-03  0.26289151741E-02  0.28733530907E+01  0.28733544198E+01  0.51109989000E-03 0. -1.
     -623    1    1    2    0    0 -0.22208051210E-03  0.91911897431E-04  0.12308522544E-03  0.17124000000E+03  0.17124000000E+03 0. -1.
</event>
<event>
 7   1  0.1356560E+02  0.9118800E+02  0.7818608E-02  0.1180000E+00
       11   -1    0    0    0    0  0.00000000000E+00  0.00000000000E+00  0.65999999802E+01  0.66000000000E+01  0.51109989000E-03 0. -1.
     -623   -1    0    0    0    0  0.00000000000E+00  0.00000000000E+00  0.75637274222E-11  0.17124000000E+03  0.17124000000E+03 0.  1.
      622    2    1    2    0    0 -0.69885136766E-03 -0.67552787927E-03  0.64672884770E+01  0.64673581306E+01  0.29999999450E-01 0.  0.
     -611    1    3    3    0    0 -0.76832237040E-02  0.10663991840E-01  0.47394598450E+01  0.47394780974E+01  0.51109989000E-03 0. -1.
      611    1    3    3    0    0  0.69843723364E-02 -0.11339519720E-01  0.17278286320E+01  0.17278800331E+01  0.51109989000E-03 0.  1.
       11    1    1    2    0    0  0.92891748288E-03  0.12474773233E-02  0.13263176703E+00  0.13264187097E+00  0.51109989000E-03 0. -1.
     -623    1    1    2    0    0 -0.23006611512E-03 -0.57194944375E-03  0.79738891933E-04  0.17124000000E+03  0.17124000000E+03 0.  1.
</event>
<event>
 7   1  0.1356560E+02  0.9118800E+02  0.7818608E-02  0.1180000E+00
       11   -1    0    0    0    0  0.00000000000E+00  0.00000000000E+00  0.65999999802E+01  0.66000000000E+01  0.51109989000E-03 0. -1.
     -623   -1    0    0    0    0  0.00000000000E+00  0.00000000000E+00  0.75637274222E-11  0.17124000000E+03  0.17124000000E+03 0.  1.
      622    2    1    2    0    0 -0.53389860368E-03  0.82985403290E-03  0.65959440742E+01  0.65960123714E+01  0.30000000448E-01 0.  0.
     -611    1    3    3    0    0  0.99728559084E-02  0.89047518092E-02  0.17900694466E+01  0.17901194478E+01  0.51109989000E-03 0.  1.
      611    1    3    3    0    0 -0.10506754512E-01 -0.80748977763E-02  0.48058746275E+01  0.48058929235E+01  0.51109989000E-03 0. -1.
       11    1    1    2    0    0 -0.14180468726E-03  0.54768856573E-04  0.39518127496E-02  0.39876252711E-02  0.51109989000E-03 0. -1.
     -623    1    1    2    0    0  0.67570329091E-03 -0.88462288944E-03  0.10409359269E-03  0.17124000000E+03  0.17124000000E+03 0.  1.
</event>
<event>
 7   1  0.1356560E+02  0.9118800E+02  0.7818608E-02  0.1180000E+00
       11   -1    0    0    0    0  0.00000000000E+00  0.00000000000E+00  0.65999999802E+01  0.66000000000E+01  0.51109989000E-03 0.  1.
     -623   -1    0    0    0    0  0.00000000000E+00  0.00000000000E+00  0.75637274222E-11  0.17124000000E+03  0.17124000000E+03 0. -1.
      622    2    1    2    0    0  0.14692388048E-02  0.12128507337E-02  0.63490262577E+01  0.63490974202E+01  0.30000000039E-01 0.  0.
     -611    1    3    3    0    0  0.36478597256E-02  0.65576122906E-02  0.60967101933E+01  0.60967148327E+01  0.51109989000E-03 0.  1.
      611    1    3    3    0    0 -0.21786209208E-02 -0.53447615568E-02  0.25231606447E+00  0.25238258751E+00  0.51109989000E-03 0. -1.
       11    1    1    2    0    0  0.79031119282E-02  0.70430812253E-02  0.25067818100E+00  0.25090212399E+00  0.51109989000E-03 0.  1.
     -623    1    1    2    0    0 -0.93723507330E-02 -0.82559319591E-02  0.29554142687E-03  0.17124000046E+03  0.17124000000E+03 0. -1.
</event>
<event>
 7   1  0.1356560E+02  0.9118800E+02  0.7818608E-02  0.1180000E+00
       11   -1    0    0    0    0  0.00000000000E+00  0.00000000000E+00  0.65999999802E+01  0.66000000000E+01  0.51109989000E-03 0.  1.
     -623   -1    0    0    0    0  0.00000000000E+00  0.00000000000E+00  0.75637274222E-11  0.17124000000E+03  0.17124000000E+03 0.  1.
      622    2    1    2    0    0 -0.39897043053E-02 -0.41939260676E-02  0.64220178949E+01  0.64220905747E+01  0.30000001123E-01 0.  0.
     -611    1    3    3    0    0  0.44952457577E-02 -0.77714829005E-02  0.57745389537E+01  0.57745459556E+01  0.51109989000E-03 0.  1.
      611    1    3    3    0    0 -0.84849500630E-02  0.35775568328E-02  0.64747894115E+00  0.64754461912E+00  0.51109989000E-03 0. -1.
       11    1    1    2    0    0  0.55546789975E-02  0.97121403560E-03  0.17781926549E+00  0.17790938738E+00  0.51109989000E-03 0.  1.
     -623    1    1    2    0    0 -0.15649746923E-02  0.32227120322E-02  0.16281943032E-03  0.17124000004E+03  0.17124000000E+03 0.  1.
</event>
<event>
 7   1  0.1356560E+02  0.9118800E+02  0.7818608E-02  0.1180000E+00
       11   -1    0    0    0    0  0.00000000000E+00  0.00000000000E+00  0.65999999802E+01  0.66000000000E+01  0.51109989000E-03 0.  1.
     -623   -1    0    0    0    0  0.00000000000E+00  0.00000000000E+00  0.75637274222E-11  0.17124000000E+03  0.17124000000E+03 0. -1.
      622    2    1    2    0    0 -0.18111694986E-02  0.13616524823E-02  0.56898615256E+01  0.56899410643E+01  0.30000000055E-01 0.  0.
     -611    1    3    3    0    0 -0.13461266787E-01 -0.31153883368E-02  0.15782247034E+01  0.15782852679E+01  0.51109989000E-03 0. -1.
      611    1    3    3    0    0  0.11650097289E-01  0.44770408191E-02  0.41116368222E+01  0.41116557964E+01  0.51109989000E-03 0.  1.
       11    1    1    2    0    0  0.40147883370E-02 -0.12896412865E-02  0.91004900940E+00  0.91005892250E+00  0.51109989000E-03 0.  1.
     -623    1    1    2    0    0 -0.22036188381E-02 -0.72011195794E-04  0.89446217892E-04  0.17124000001E+03  0.17124000000E+03 0. -1.
</event>
<event>
 7   1  0.1356560E+02  0.9118800E+02  0.7818608E-02  0.1180000E+00
       11   -1    0    0    0    0  0.00000000000E+00  0.00000000000E+00  0.65999999802E+01  0.66000000000E+01  0.51109989000E-03 0. -1.
     -623   -1    0    0    0    0  0.00000000000E+00  0.00000000000E+00  0.75637274222E-11  0.17124000000E+03  0.17124000000E+03 0. -1.
      622    2    1    2    0    0 -0.15034555145E-02  0.51839759373E-02  0.65851828466E+01  0.65852533935E+01  0.30000000957E-01 0.  0.
     -611    1    3    3    0    0 -0.22570508056E-02  0.43166463084E-02  0.65737115621E+01  0.65737133867E+01  0.51109989000E-03 0. -1.
      611    1    3    3    0    0  0.75359529102E-03  0.86732962893E-03  0.11471284465E-01  0.11540006799E-01  0.51109989000E-03 0.  1.
       11    1    1    2    0    0  0.16381808224E-02  0.17065747653E-02  0.14546512834E-01  0.14746467122E-01  0.51109989000E-03 0. -1.
     -623    1    1    2    0    0 -0.13472530791E-03 -0.68905507031E-02  0.27062035243E-03  0.17124000014E+03  0.17124000000E+03 0. -1.
</event>
<event>
 7   1  0.1356560E+02  0.9118800E+02  0.7818608E-02  0.1180000E+00
       11   -1    0    0    0    0  0.00000000000E+00  0.00000000000E+00  0.65999999802E+01  0.66000000000E+01  0.51109989000E-03 0.  1.
     -623   -1    0    0    0    0  0.00000000000E+00  0.00000000000E+00  0.75637274222E-11  0.17124000000E+03  0.17124000000E+03 0. -1.
      622    2    1    2    0    0  0.26459301683E-02 -0.15350727866E-01  0.54588990389E+01  0.54590036969E+01  0.30000000865E-01 0.  0.
     -611    1    3    3    0    0  0.18263627085E-02 -0.40220825122E-02  0.48290391844E+01  0.48290412318E+01  0.51109989000E-03 0.  1.
      611    1    3    3    0    0  0.81956745976E-03 -0.11328645353E-01  0.62985985450E+00  0.62996246510E+00  0.51109989000E-03 0. -1.
       11    1    1    2    0    0 -0.78174695942E-03  0.16376401257E-01  0.11408783781E+01  0.11409962894E+01  0.51109989000E-03 0.  1.
     -623    1    1    2    0    0 -0.18641832089E-02 -0.10256733910E-02  0.22256290648E-03  0.17124000001E+03  0.17124000000E+03 0. -1.
</event>
<event>
 7   1  0.1356560E+02  0.9118800E+02  0.7818608E-02  0.1180000E+00
       11   -1    0    0    0    0  0.00000000000E+00  0.00000000000E+00  0.65999999802E+01  0.66000000000E+01  0.51109989000E-03 0. -1.
     -623   -1    0    0    0    0  0.00000000000E+00  0.00000000000E+00  0.75637274222E-11  0.17124000000E+03  0.17124000000E+03 0. -1.
      622    2    1    2    0    0 -0.18139233450E-02 -0.61894807672E-02  0.65343831242E+01  0.65344551735E+01  0.30000000701E-01 0.  0.
     -611    1    3    3    0    0 -0.10611919089E-01 -0.11547184919E-01  0.54600078864E+01  0.54600304332E+01  0.51109989000E-03 0. -1.
      611    1    3    3    0    0  0.87979957440E-02  0.53577041518E-02  0.10743752378E+01  0.10744247403E+01  0.51109989000E-03 0.  1.
       11    1    1    2    0    0 -0.14866994431E-02  0.34874292138E-02  0.65433048708E-01  0.65544774956E-01  0.51109989000E-03 0. -1.
     -623    1    1    2    0    0  0.33006227872E-02  0.27020515527E-02  0.18380894543E-03  0.17124000005E+03  0.17124000000E+03 0. -1.
</event>
<event>
 7   1  0.1356560E+02  0.9118800E+02  0.7818608E-02  0.1180000E+00
       11   -1    0    0    0    0  0.00000000000E+00  0.00000000000E+00  0.65999999802E+01  0.66000000000E+01  0.51109989000E-03 0.  1.
     -623   -1    0    0    0    0  0.00000000000E+00  0.00000000000E+00  0.75637274222E-11  0.17124000000E+03  0.17124000000E+03 0.  1.
      622    2    1    2    0    0 -0.18184760541E-02 -0.17122169267E-02  0.65977291280E+01  0.65977978057E+01  0.29999999990E-01 0.  0.
     -611    1    3    3    0    0  0.13290068023E-01 -0.48501716778E-02  0.37634210619E+01  0.37634476880E+01  0.51109989000E-03 0.  1.
      611    1    3    3    0    0 -0.15108544077E-01  0.31379547512E-02  0.28343080662E+01  0.28343501177E+01  0.51109989000E-03 0. -1.
       11    1    1    2    0    0  0.12349997179E-02  0.68447436030E-03  0.16108026078E-02  0.22021892725E-02  0.51109989000E-03 0.  1.
     -623    1    1    2    0    0  0.58347633611E-03  0.10277425663E-02  0.66004994078E-03  0.17124000001E+03  0.17124000000E+03 0.  1.
</event>
<event>
 7   1  0.1356560E+02  0.9118800E+02  0.7818608E-02  0.1180000E+00
       11   -1    0    0    0    0  0.00000000000E+00  0.00000000000E+00  0.65999999802E+01  0.66000000000E+01  0.51109989000E-03 0.  1.
     -623   -1    0    0    0    0  0.00000000000E+00  0.00000000000E+00  0.75637274222E-11  0.17124000000E+03  0.17124000000E+03 0. -1.
      622    2    1    2    0    0  0.24259285187E-02  0.21282111140E-02  0.65886280020E+01  0.65886970915E+01  0.30000000173E-01 0.  0.
     -611    1    3    3    0    0  0.75979926766E-02 -0.10436228988E-02  0.63008395525E+01  0.63008442407E+01  0.51109989000E-03 0.  1.
      611    1    3    3    0    0 -0.51720641579E-02  0.31718340128E-02  0.28778844953E+00  0.28785285075E+00  0.51109989000E-03 0. -1.
       11    1    1    2    0    0 -0.28163590086E-02 -0.10529281574E-02  0.10883652236E-01  0.11302904267E-01  0.51109989000E-03 0.  1.
     -623    1    1    2    0    0  0.39043048984E-03 -0.10752829565E-02  0.48832623737E-03  0.17124000000E+03  0.17124000000E+03 0. -1.
</event>
<event>
 7   1  0.1356560E+02  0.9118800E+02  0.7818608E-02  0.1180000E+00
       11   -1    0    0    0    0  0.00000000000E+00  0.00000000000E+00  0.65999999802E+01  0.66000000000E+01  0.51109989000E-03 0.  1.
     -623   -1    0    0    0    0  0.00000000000E+00  0.00000000000E+00  0.75637274222E-11  0.17124000000E+03  0.17124000000E+03 0. -1.
      622    2    1    2    0    0 -0.57280077834E-02 -0.67604405527E-02  0.60992343650E+01  0.60993145806E+01  0.29999999587E-01 0.  0.
     -611    1    3    3    0    0  0.62393464537E-03  0.20544996538E-02  0.53576106932E+01  0.53576111478E+01  0.51109989000E-03 0.  1.
      611    1    3    3    0    0 -0.63519424288E-02 -0.88149402065E-02  0.74162367185E+00  0.74170343279E+00  0.51109989000E-03 0. -1.
       11    1    1    2    0    0  0.14449757997E-01 -0.68867147950E-03  0.50047574738E+00  0.50068503544E+00  0.51109989000E-03 0.  1.
     -623    1    1    2    0    0 -0.87217502131E-02  0.74491120318E-02  0.28986823101E-03  0.17124000038E+03  0.17124000000E+03 0. -1.
</event>
<event>
 7   1  0.1356560E+02  0.9118800E+02  0.7818608E-02  0.1180000E+00
       11   -1    0    0    0    0  0.00000000000E+00  0.00000000000E+00  0.65999999802E+01  0.66000000000E+01  0.51109989000E-03 0. -1.
     -623   -1    0    0    0    0  0.00000000000E+00  0.00000000000E+00  0.75637274222E-11  0.17124000000E+03  0.17124000000E+03 0.  1.
      622    2    1    2    0    0  0.34535259066E-02  0.11115983430E-01  0.61605676977E+01  0.61606517390E+01  0.29999999772E-01 0.  0.
     -611    1    3    3    0    0 -0.71994245724E-03  0.19966065523E-01  0.28766503332E+01  0.28767197574E+01  0.51109989000E-03 0.  1.
      611    1    3    3    0    0  0.41734683639E-02 -0.88500820931E-02  0.32839173645E+01  0.32839319816E+01  0.51109989000E-03 0. -1.
       11    1    1    2    0    0 -0.63458067461E-03 -0.12011240538E-01  0.43918326377E+00  0.43934823658E+00  0.51109989000E-03 0. -1.
     -623    1    1    2    0    0 -0.28189452314E-02  0.89525710773E-03  0.24902010740E-03  0.17124000003E+03  0.17124000000E+03 0.  1.
</event>
<event>
 7   1  0.1356560E+02  0.9118800E+02  0.7818608E-02  0.1180000E+00
       11   -1    0    0    0    0  0.00000000000E+00  0.00000000000E+00  0.65999999802E+01  0.66000000000E+01  0.51109989000E-03 0. -1.
     -623   -1    0    0    0    0  0.00000000000E+00  0.00000000000E+00  0.75637274222E-11  0.17124000000E+03  0.17124000000E+03 0. -1.
      622    2    1    2    0    0  0.11765861120E-02  0.18977618254E-02  0.62693812257E+01  0.62694534004E+01  0.30000000540E-01 0.  0.
     -611    1    3    3    0    0 -0.85487792993E-02  0.18522592194E-03  0.55233939878E+01  0.55234006302E+01  0.51109989000E-03 0. -1.
      611    1    3    3    0    0  0.97253654113E-02  0.17125359035E-02  0.74598723794E+00  0.74605277019E+00  0.51109989000E-03 0.  1.
       11    1    1    2    0    0 -0.25187981733E-02 -0.56278226545E-02  0.33048864903E+00  0.33054655511E+00  0.51109989000E-03 0. -1.
     -623    1    1    2    0    0  0.13422120610E-02  0.37300608282E-02  0.13010687062E-03  0.17124000005E+03  0.17124000000E+03 0. -1.
</event>
<event>
 7   1  0.1356560E+02  0.9118800E+02  0.7818608E-02  0.1180000E+00
       11   -1    0    0    0    0  0.00000000000E+00  0.00000000000E+00  0.65999999802E+01  0.66000000000E+01  0.51109989000E-03 0.  1.
     -623   -1    0    0    0    0  0.00000000000E+00  0.00000000000E+00  0.75637274222E-11  0.17124000000E+03  0.17124000000E+03 0.  1.
      622    2    1    2    0    0 -0.98559203504E-04 -0.45154779628E-02  0.63403465213E+01  0.63404191036E+01  0.29999999722E-01 0.  0.
     -611    1    3    3    0    0 -0.46265487469E-02  0.16162112217E-02  0.17888752810E+00  0.17895537440E+00  0.51109989000E-03 0. -1.
      611    1    3    3    0    0  0.45279895434E-02 -0.61316891845E-02  0.61614589932E+01  0.61614637292E+01  0.51109989000E-03 0.  1.
       11    1    1    2    0    0 -0.67657451805E-03  0.43726718226E-02  0.25954267944E+00  0.25958089623E+00  0.51109989000E-03 0.  1.
     -623    1    1    2    0    0  0.77513372135E-03  0.14280614010E-03  0.11078116284E-03  0.17124000000E+03  0.17124000000E+03 0.  1.
</event>
<event>
 7   1  0.1356560E+02  0.9118800E+02  0.7818608E-02  0.1180000E+00
       11   -1    0    0    0    0  0.00000000000E+00  0.00000000000E+00  0.65999999802E+01  0.66000000000E+01  0.51109989000E-03 0. -1.
     -623   -1    0    0    0    0  0.00000000000E+00  0.00000000000E+00  0.75637274222E-11  0.17124000000E+03  0.17124000000E+03 0.  1.
      622    2    1    2    0    0 -0.52732351741E-02 -0.17482407423E-02  0.63381631666E+01  0.63382365994E+01  0.29999998836E-01 0.  0.
     -611    1    3    3    0    0 -0.16023772219E-02  0.10686881835E-01  0.10156433410E+01  0.10157009571E+01  0.51109989000E-03 0.  1.
      611    1    3    3    0    0 -0.36708579522E-02 -0.12435122578E-01  0.53225198256E+01  0.53225356423E+01  0.51109989000E-03 0. -1.
       11    1    1    2    0    0  0.49490594397E-02  0.58409562335E-03  0.26171545346E+00  0.26176339347E+00  0.51109989000E-03 0. -1.
     -623    1    1    2    0    0  0.32417573447E-03  0.11641451194E-02  0.12135731394E-03  0.17124000000E+03  0.17124000000E+03 0.  1.
</event>
<event>
 7   1  0.1356560E+02  0.9118800E+02  0.7818608E-02  0.1180000E+00
       11   -1    0    0    0    0  0.00000000000E+00  0.00000000000E+00  0.65999999802E+01  0.66000000000E+01  0.51109989000E-03 0. -1.
     -623   -1    0    0    0    0  0.00000000000E+00  0.00000000000E+00  0.75637274222E-11  0.17124000000E+03  0.17124000000E+03 0. -1.
      622    2    1    2    0    0 -0.33442292216E-04 -0.60480258355E-03  0.65960300955E+01  0.65960983459E+01  0.30000000367E-01 0.  0.
     -611    1    3    3    0    0  0.14030648855E-01 -0.86793863448E-03  0.21529244764E+01  0.21529704305E+01  0.51109989000E-03 0. -1.
      611    1    3    3    0    0 -0.14064091148E-01  0.26313605093E-03  0.44431056192E+01  0.44431279153E+01  0.51109989000E-03 0.  1.
       11    1    1    2    0    0 -0.23779779535E-03  0.33708214995E-03  0.38459721044E-02  0.39016530718E-02  0.51109989000E-03 0. -1.
     -623    1    1    2    0    0  0.27124008759E-03  0.26772043362E-03  0.12391196982E-03  0.17124000000E+03  0.17124000000E+03 0. -1.
</event>
<event>
 7   1  0.1356560E+02  0.9118800E+02  0.7818608E-02  0.1180000E+00
       11   -1    0    0    0    0  0.00000000000E+00  0.00000000000E+00  0.65999999802E+01  0.66000000000E+01  0.51109989000E-03 0.  1.
     -623   -1    0    0    0    0  0.00000000000E+00  0.00000000000E+00  0.75637274222E-11  0.17124000000E+03  0.17124000000E+03 0. -1.
      622    2    1    2    0    0 -0.35536299264E-02  0.76821370398E-04  0.65889653420E+01  0.65890345963E+01  0.30000000767E-01 0.  0.
     -611    1    3    3    0    0  0.11241205504E-01 -0.40114677884E-02  0.43589888249E+01  0.43590051954E+01  0.51109989000E-03 0.  1.
      611    1    3    3    0    0 -0.14794835430E-01  0.40882891588E-02  0.22299765171E+01  0.22300294010E+01  0.51109989000E-03 0. -1.
       11    1    1    2    0    0  0.89680576939E-04  0.21805808412E-02  0.10733815956E-01  0.10965354691E-01  0.51109989000E-03 0.  1.
     -623    1    1    2    0    0  0.34639493488E-02 -0.22574022112E-02  0.30082351279E-03  0.17124000005E+03  0.17124000000E+03 0. -1.
</event>
<event>
 7   1  0.1356560E+02  0.9118800E+02  0.7818608E-02  0.1180000E+00
       11   -1    0    0    0    0  0.00000000000E+00  0.00000000000E+00  0.65999999802E+01  0.66000000000E+01  0.51109989000E-03 0.  1.
     -623   -1    0    0    0    0  0.00000000000E+00  0.00000000000E+00  0.75637274222E-11  0.17124000000E+03  0.17124000000E+03 0.  1.
      622    2    1    2    0    0 -0.19418134290E-02 -0.39682816647E-02  0.64445515474E+01  0.64446228877E+01  0.30000000169E-01 0.  0.
     -611    1    3    3    0    0 -0.29383753815E-02 -0.35902443596E-02  0.15288693407E+00  0.15295816335E+00  0.51109989000E-03 0. -1.
      611    1    3    3    0    0  0.99656195249E-03 -0.37803730502E-03  0.62916646133E+01  0.62916647244E+01  0.51109989000E-03 0.  1.
       11    1    1    2    0    0 -0.22006345687E-02  0.14954254370E-02  0.15535342351E+00  0.15537704627E+00  0.51109989000E-03 0.  1.
     -623    1    1    2    0    0  0.41424479965E-02  0.24728562269E-02  0.95011295433E-04  0.17124000007E+03  0.17124000000E+03 0.  1.
</event>
<event>
 7   1  0.1356560E+02  0.9118800E+02  0.7818608E-02  0.1180000E+00
       11   -1    0    0    0    0  0.00000000000E+00  0.00000000000E+00  0.65999999802E+01  0.66000000000E+01  0.51109989000E-03 0.  1.
     -623   -1    0    0    0    0  0.00000000000E+00  0.00000000000E+00  0.75637274222E-11  0.17124000000E+03  0.17124000000E+03 0. -1.
      622    2    1    2    0    0  0.21306999003E-02  0.27655725397E-02  0.62055758725E+01  0.62056493695E+01  0.29999999747E-01 0.  0.
     -611    1    3    3    0    0 -0.82454879379E-02  0.12817920278E-01  0.26226357085E+01  0.26226800430E+01  0.51109989000E-03 0. -1.
      611    1    3    3    0    0  0.10376187838E-01 -0.10052347738E-01  0.35829401640E+01  0.35829693265E+01  0.51109989000E-03 0.  1.
       11    1    1    2    0    0 -0.21279173023E-02 -0.28035304782E-02  0.39433459495E+00  0.39435063309E+00  0.51109989000E-03 0.  1.
     -623    1    1    2    0    0 -0.27825979955E-05  0.37957938520E-04  0.89515413508E-04  0.17124000000E+03  0.17124000000E+03 0. -1.
</event>
<event>
 7   1  0.1356560E+02  0.9118800E+02  0.7818608E-02  0.1180000E+00
       11   -1    0    0    0    0  0.00000000000E+00  0.00000000000E+00  0.65999999802E+01  0.66000000000E+01  0.51109989000E-03 0.  1.
     -623   -1    0    0    0    0  0.00000000000E+00  0.00000000000E+00  0.75637274222E-11  0.17124000000E+03  0.17124000000E+03 0.  1.
      622    2    1    2    0    0 -0.29100633273E-02 -0.26646116448E-02  0.64860582005E+01  0.64861287799E+01  0.29999999827E-01 0.  0.
     -611    1    3    3    0    0  0.77259553692E-02 -0.48270881988E-02  0.68919003654E+00  0.68925043261E+00  0.51109989000E-03 0. -1.
      611    1    3    3    0    0 -0.10636018697E-01  0.21624765540E-02  0.57968681640E+01  0.57968783473E+01  0.51109989000E-03 0.  1.
       11    1    1    2    0    0  0.33729298506E-02  0.23178536749E-02  0.11379650549E+00  0.11387122106E+00  0.51109989000E-03 0.  1.
     -623    1    1    2    0    0 -0.46286652308E-03  0.34675796982E-03  0.14527618566E-03  0.17124000000E+03  0.17124000000E+03 0.  1.
</event>
<event>
 7   1  0.1356560E+02  0.9118800E+02  0.7818608E-02  0.1180000E+00
       11   -1    0    0    0    0  0.00000000000E+00  0.00000000000E+00  0.65999999802E+01  0.66000000000E+01  0.51109989000E-03 0. -1.
     -623   -1    0    0    0    0  0.00000000000E+00  0.00000000000E+00  0.75637274222E-11  0.17124000000E+03  0.17124000000E+03 0. -1.
      622    2    1    2    0    0 -0.29790088476E-02  0.67021692577E-03  0.65904996855E+01  0.65905686726E+01  0.30000000374E-01 0.  0.
     -611    1    3    3    0    0 -0.76522723582E-02  0.19963876862E-02  0.46838444268E+00  0.46845148116E+00  0.51109989000E-03 0.  1.
      611    1    3    3    0    0  0.46732635106E-02 -0.13261707604E-02  0.61221152428E+01  0.61221171915E+01  0.51109989000E-03 0. -1.
       11    1    1    2    0    0  0.49565154487E-03  0.12801901980E-03  0.94035224195E-02  0.94313051226E-02  0.51109989000E-03 0. -1.
     -623    1    1    2    0    0  0.24833573036E-02 -0.79823594586E-03  0.96769918084E-04  0.17124000002E+03  0.17124000000E+03 0. -1.
</event>
<event>
 7   1  0.1356560E+02  0.9118800E+02  0.7818608E-02  0.1180000E+00
       11   -1    0    0    0    0  0.00000000000E+00  0.00000000000E+00  0.65999999802E+01  0.66000000000E+01  0.51109989000E-03 0.  1.
     -623   -1    0    0    0    0  0.00000000000E+00  0.00000000000E+00  0.75637274222E-11  0.17124000000E+03  0.17124000000E+03 0. -1.
      622    2    1    2    0    0 -0.25454415286E-03 -0.47209390442E-03  0.65386723334E+01  0.65387411764E+01  0.29999994168E-01 0.  0.
     -611    1    3    3    0    0  0.78153095930E-02  0.69693933940E-02  0.94675595306E+00  0.94681399831E+00  0.51109989000E-03 0. -1.
      611    1    3    3    0    0 -0.80698537458E-02 -0.74414872985E-02  0.55919163804E+01  0.55919271780E+01  0.51109989000E-03 0.  1.
       11    1    1    2    0    0  0.25521354022E-03  0.39188346029E-03  0.61254907538E-01  0.61258824892E-01  0.51109989000E-03 0.  1.
     -623    1    1    2    0    0 -0.66938736423E-06  0.80210444113E-04  0.72740525349E-04  0.17124000000E+03  0.17124000000E+03 0. -1.
</event>
<event>
 7   1  0.1356560E+02  0.9118800E+02  0.7818608E-02  0.1180000E+00
       11   -1    0    0    0    0  0.00000000000E+00  0.00000000000E+00  0.65999999802E+01  0.66000000000E+01  0.51109989000E-03 0.  1.
     -623   -1    0    0    0    0  0.00000000000E+00  0.00000000000E+00  0.75637274222E-11  0.17124000000E+03  0.17124000000E+03 0.  1.
      622    2    1    2    0    0  0.42011342930E-03 -0.20947316352E-03  0.65356714454E+01  0.65357403148E+01  0.29999999796E-01 0.  0.
     -611    1    3    3    0    0 -0.60790622175E-02 -0.12686547387E-01  0.21383414035E+01  0.21383877391E+01  0.51109989000E-03 0. -1.
      611    1    3    3    0    0  0.64991756468E-02  0.12477074223E-01  0.43973300419E+01  0.43973525757E+01  0.51109989000E-03 0.  1.
       11    1    1    2    0    0 -0.74771718500E-03  0.44544321394E-03  0.64251765109E-01  0.64259692214E-01  0.51109989000E-03 0.  1.
     -623    1    1    2    0    0  0.32760375533E-03 -0.23597005015E-03  0.76777221508E-04  0.17124000000E+03  0.17124000000E+03 0.  1.
</event>
<event>
 7   1  0.1356560E+02  0.9118800E+02  0.7818608E-02  0.1180000E+00
       11   -1    0    0    0    0  0.00000000000E+00  0.00000000000E+00  0.65999999802E+01  0.66000000000E+01  0.51109989000E-03 0. -1.
     -623   -1    0    0    0    0  0.00000000000E+00  0.00000000000E+00  0.75637274222E-11  0.17124000000E+03  0.17124000000E+03 0. -1.
      622    2    1    2    0    0 -0.96939320080E-02 -0.63130848306E-02  0.56943320373E+01  0.56944228134E+01  0.29999999886E-01 0.  0.
     -611    1    3    3    0    0 -0.14152799982E-01 -0.40571530961E-02  0.55169461106E+01  0.55169657793E+01  0.51109989000E-03 0. -1.
      611    1    3    3    0    0  0.44588679736E-02 -0.22559317346E-02  0.17738592670E+00  0.17745703409E+00  0.51109989000E-03 0.  1.
       11    1    1    2    0    0  0.61996858018E-02 -0.81840247282E-03  0.90555526708E+00  0.90557700327E+00  0.51109989000E-03 0. -1.
     -623    1    1    2    0    0  0.34942462059E-02  0.71314873025E-02  0.11267674553E-03  0.17124000018E+03  0.17124000000E+03 0. -1.
</event>
<event>
 7   1  0.1356560E+02  0.9118800E+02  0.7818608E-02  0.1180000E+00
       11   -1    0    0    0    0  0.00000000000E+00  0.00000000000E+00  0.65999999802E+01  0.66000000000E+01  0.51109989000E-03 0. -1.
     -623   -1    0    0    0    0  0.00000000000E+00  0.00000000000E+00  0.75637274222E-11  0.17124000000E+03  0.17124000000E+03 0. -1.
      622    2    1    2    0    0 -0.10505253866E-01 -0.14418374010E-01  0.44559429065E+01  0.44560796039E+01  0.30000000124E-01 0.  0.
     -611    1    3    3    0    0 -0.77774173646E-02  0.40265555713E-02  0.41066277150E+00  0.41075646616E+00  0.51109989000E-03 0. -1.
      611    1    3    3    0    0 -0.27278365018E-02 -0.18444929581E-01  0.40452801350E+01  0.40453231377E+01  0.51109989000E-03 0.  1.
       11    1    1    2    0    0  0.13643046219E-01  0.16403753467E-01  0.21438141269E+01  0.21439203548E+01  0.51109989000E-03 0. -1.
     -623    1    1    2    0    0 -0.31377923531E-02 -0.19853794572E-02  0.24294590721E-03  0.17124000004E+03  0.17124000000E+03 0. -1.
</event>
<event>
 7   1  0.1356560E+02  0.9118800E+02  0.7818608E-02  0.1180000E+00
       11   -1    0    0    0    0  0.00000000000E+00  0.00000000000E+00  0.65999999802E+01  0.66000000000E+01  0.51109989000E-03 0. -1.
     -623   -1    0    0    0    0  0.00000000000E+00  0.00000000000E+00  0.75637274222E-11  0.17124000000E+03  0.17124000000E+03 0.  1.
      622    2    1    2    0    0 -0.30786907542E-01 -0.15179528575E-01  0.47180179196E+01  0.47182381607E+01  0.30000001432E-01 0.  0.
     -611    1    3    3    0    0 -0.16057821525E-01 -0.10752216520E-01  0.99138247364E+00  0.99157094252E+00  0.51109989000E-03 0. -1.
      611    1    3    3    0    0 -0.14729086017E-01 -0.44273120552E-02  0.37266354460E+01  0.37266672182E+01  0.51109989000E-03 0.  1.
       11    1    1    2    0    0  0.25641397276E-01  0.11547066794E-01  0.18815515156E+01  0.18817617233E+01  0.51109989000E-03 0. -1.
     -623    1    1    2    0    0  0.51455102654E-02  0.36324617809E-02  0.43054538878E-03  0.17124000012E+03  0.17124000000E+03 0.  1.
</event>
<event>
 7   1  0.1356560E+02  0.9118800E+02  0.7818608E-02  0.1180000E+00
       11   -1    0    0    0    0  0.00000000000E+00  0.00000000000E+00  0.65999999802E+01  0.66000000000E+01  0.51109989000E-03 0. -1.
     -623   -1    0    0    0    0  0.00000000000E+00  0.00000000000E+00  0.75637274222E-11  0.17124000000E+03  0.17124000000E+03 0. -1.
      622    2    1    2    0    0 -0.41082531921E-02 -0.46512693309E-02  0.45183472270E+01  0.45184510815E+01  0.29999995608E-01 0.  0.
     -611    1    3    3    0    0 -0.34750141592E-02 -0.11583792466E-01  0.75222162724E+00  0.75231901324E+00  0.51109989000E-03 0.  1.
      611    1    3    3    0    0 -0.63323903282E-03  0.69325231348E-02  0.37661255998E+01  0.37661320682E+01  0.51109989000E-03 0. -1.
       11    1    1    2    0    0  0.27814258318E-02 -0.15925716538E-01  0.20814848335E+01  0.20815476785E+01  0.51109989000E-03 0. -1.
     -623    1    1    2    0    0  0.13268273600E-02  0.20576985864E-01  0.16792126429E-03  0.17124000124E+03  0.17124000000E+03 0. -1.
</event>
<event>
 7   1  0.1356560E+02  0.9118800E+02  0.7818608E-02  0.1180000E+00
       11   -1    0    0    0    0  0.00000000000E+00  0.00000000000E+00  0.65999999802E+01  0.66000000000E+01  0.51109989000E-03 0. -1.
     -623   -1    0    0    0    0  0.00000000000E+00  0.00000000000E+00  0.75637274222E-11  0.17124000000E+03  0.17124000000E+03 0. -1.
      622    2    1    2    0    0 -0.26746332622E-02  0.31707231150E-03  0.64262463577E+01  0.64263169471E+01  0.30000000363E-01 0.  0.
     -611    1    3    3    0    0  0.51631114690E-02 -0.99577470825E-02  0.49828147718E+01  0.49828274228E+01  0.51109989000E-03 0. -1.
      611    1    3    3    0    0 -0.78377447311E-02  0.10274819394E-01  0.14434315859E+01  0.14434895243E+01  0.51109989000E-03 0.  1.
       11    1    1    2    0    0  0.20712684756E-02  0.20895578893E-03  0.17366982278E+00  0.17368305151E+00  0.51109989000E-03 0. -1.
     -623    1    1    2    0    0  0.60336478653E-03 -0.52602810039E-03  0.83800203478E-04  0.17124000000E+03  0.17124000000E+03 0. -1.
</event>
<event>
 7   1  0.1356560E+02  0.9118800E+02  0.7818608E-02  0.1180000E+00
       11   -1    0    0    0    0  0.00000000000E+00  0.00000000000E+00  0.65999999802E+01  0.66000000000E+01  0.51109989000E-03 0.  1.
     -623   -1    0    0    0    0  0.00000000000E+00  0.00000000000E+00  0.75637274222E-11  0.17124000000E+03  0.17124000000E+03 0. -1.
      622    2    1    2    0    0 -0.52737309917E-03  0.24173290565E-02  0.65638202746E+01  0.65638892982E+01  0.30000001297E-01 0.  0.
     -611    1    3    3    0    0  0.12398644145E-01 -0.40562977737E-02  0.18131712421E+01  0.18132182423E+01  0.51109989000E-03 0. -1.
      611    1    3    3    0    0 -0.12926017244E-01  0.64736268301E-02  0.47506490325E+01  0.47506710559E+01  0.51109989000E-03 0.  1.
       11    1    1    2    0    0  0.22339232690E-02  0.74641103457E-03  0.36030146036E-01  0.36110665863E-01  0.51109989000E-03 0.  1.
     -623    1    1    2    0    0 -0.17065501694E-02 -0.31637400901E-02  0.14956143269E-03  0.17124000004E+03  0.17124000000E+03 0. -1.
</event>
<event>
 7   1  0.1356560E+02  0.9118800E+02  0.7818608E-02  0.1180000E+00
       11   -1    0    0    0    0  0.00000000000E+00  0.00000000000E+00  0.65999999802E+01  0.66000000000E+01  0.51109989000E-03 0. -1.
     -623   -1    0    0    0    0  0.00000000000E+00  0.00000000000E+00  0.75637274222E-11  0.17124000000E+03  0.17124000000E+03 0. -1.
      622    2    1    2    0    0  0.87192148602E-02  0.75709622771E-02  0.48613033018E+01  0.48614095833E+01  0.30000000439E-01 0.  0.
     -611    1    3    3    0    0  0.92229646382E-02 -0.10470987784E-01  0.23359891822E+01  0.23360309127E+01  0.51109989000E-03 0.  1.
      611    1    3    3    0    0 -0.50374977807E-03  0.18041950061E-01  0.25253141196E+01  0.25253786705E+01  0.51109989000E-03 0. -1.
       11    1    1    2    0    0 -0.28831448292E-02 -0.11798160792E-01  0.17385477691E+01  0.17385902668E+01  0.51109989000E-03 0. -1.
     -623    1    1    2    0    0 -0.58360700294E-02  0.42271985137E-02  0.14891107067E-03  0.17124000015E+03  0.17124000000E+03 0. -1.
</event>
<event>
 7   1  0.1356560E+02  0.9118800E+02  0.7818608E-02  0.1180000E+00
       11   -1    0    0    0    0  0.00000000000E+00  0.00000000000E+00  0.65999999802E+01  0.66000000000E+01  0.51109989000E-03 0.  1.
     -623   -1    0    0    0    0  0.00000000000E+00  0.00000000000E+00  0.75637274222E-11  0.17124000000E+03  0.17124000000E+03 0. -1.
      622    2    1    2    0    0  0.25766625233E-02  0.48021595377E-02  0.65565539133E+01  0.65566248114E+01  0.29999998928E-01 0.  0.
     -611    1    3    3    0    0  0.41513245109E-02 -0.19222037328E-02  0.62100324967E+01  0.62100342028E+01  0.51109989000E-03 0.  1.
      611    1    3    3    0    0 -0.15746619876E-02  0.67243632705E-02  0.34652141660E+00  0.34659060865E+00  0.51109989000E-03 0. -1.
       11    1    1    2    0    0 -0.14700017607E-02 -0.47295268154E-02  0.43088468196E-01  0.43375184652E-01  0.51109989000E-03 0.  1.
     -623    1    1    2    0    0 -0.11066607626E-02 -0.72632722369E-04  0.35759877038E-03  0.17124000000E+03  0.17124000000E+03 0. -1.
</event>
<event>
 7   1  0.1356560E+02  0.9118800E+02  0.7818608E-02  0.1180000E+00
       11   -1    0    0    0    0  0.00000000000E+00  0.00000000000E+00  0.65999999802E+01  0.66000000000E+01  0.51109989000E-03 0. -1.
     -623   -1    0    0    0    0  0.00000000000E+00  0.00000000000E+00  0.75637274222E-11  0.17124000000E+03  0.17124000000E+03 0.  1.
      622    2    1    2    0    0 -0.77865111206E-02  0.15847374013E-02  0.57632244782E+01  0.57633080369E+01  0.29999999950E-01 0.  0.
     -611    1    3    3    0    0  0.10949254907E-01  0.10696986475E-02  0.29832912215E+01  0.29833115500E+01  0.51109989000E-03 0. -1.
      611    1    3    3    0    0 -0.18735766027E-01  0.51503875382E-03  0.27799332567E+01  0.27799964869E+01  0.51109989000E-03 0.  1.
       11    1    1    2    0    0  0.86171757694E-02  0.16091407544E-02  0.83664585408E+00  0.83669193340E+00  0.51109989000E-03 0. -1.
     -623    1    1    2    0    0 -0.83066464854E-03 -0.31938781547E-02  0.12965001142E-03  0.17124000003E+03  0.17124000000E+03 0.  1.
</event>
<event>
 7   1  0.1356560E+02  0.9118800E+02  0.7818608E-02  0.1180000E+00
       11   -1    0    0    0    0  0.00000000000E+00  0.00000000000E+00  0.65999999802E+01  0.66000000000E+01  0.51109989000E-03 0.  1.
     -623   -1    0    0    0    0  0.00000000000E+00  0.00000000000E+00  0.75637274222E-11  0.17124000000E+03  0.17124000000E+03 0.  1.
      622    2    1    2    0    0  0.11734966641E-01 -0.10986768990E-02  0.17936128249E+01  0.17939024171E+01  0.29999999992E-01 0.  0.
     -611    1    3    3    0    0  0.14503329047E-01 -0.44276537992E-02  0.40696947436E+00  0.40725221295E+00  0.51109989000E-03 0. -1.
      611    1    3    3    0    0 -0.27683624066E-02  0.33289769002E-02  0.13866433505E+01  0.13866502041E+01  0.51109989000E-03 0.  1.
       11    1    1    2    0    0 -0.27332777680E-01 -0.22800719131E-01  0.48059633686E+01  0.48060952045E+01  0.51109989000E-03 0.  1.
     -623    1    1    2    0    0  0.15597811039E-01  0.23899396029E-01  0.42378706973E-03  0.17124000238E+03  0.17124000000E+03 0.  1.
</event>
<event>
 7   1  0.1356560E+02  0.9118800E+02  0.7818608E-02  0.1180000E+00
       11   -1    0    0    0    0  0.00000000000E+00  0.00000000000E+00  0.65999999802E+01  0.66000000000E+01  0.51109989000E-03 0. -1.
     -623   -1    0    0    0    0  0.00000000000E+00  0.00000000000E+00  0.75637274222E-11  0.17124000000E+03  0.17124000000E+03 0.  1.
      622    2    1    2    0    0 -0.13999490585E-01  0.10780772856E-01  0.44747875305E+01  0.44749229774E+01  0.30000000350E-01 0.  0.
     -611    1    3    3    0    0 -0.30274831229E-02  0.15752285576E-01  0.11325726866E+01  0.11326863873E+01  0.51109989000E-03 0. -1.
      611    1    3    3    0    0 -0.10972007462E-01 -0.49715127195E-02  0.33422148439E+01  0.33422365902E+01  0.51109989000E-03 0.  1.
       11    1    1    2    0    0  0.14653019814E-01 -0.18377908833E-01  0.21249468008E+01  0.21250768518E+01  0.51109989000E-03 0. -1.
     -623    1    1    2    0    0 -0.65352922902E-03  0.75971359776E-02  0.26564810842E-03  0.17124000017E+03  0.17124000000E+03 0.  1.
</event>
<event>
 7   1  0.1356560E+02  0.9118800E+02  0.7818608E-02  0.1180000E+00
       11   -1    0    0    0    0  0.00000000000E+00  0.00000000000E+00  0.65999999802E+01  0.66000000000E+01  0.51109989000E-03 0. -1.
     -623   -1    0    0    0    0  0.00000000000E+00  0.00000000000E+00  0.75637274222E-11  0.17124000000E+03  0.17124000000E+03 0.  1.
      622    2    1    2    0    0  0.18716512155E-01  0.84756000620E-02  0.62108424819E+01  0.62109489194E+01  0.30000000476E-01 0.  0.
     -611    1    3    3    0    0  0.58363056218E-02 -0.36135070886E-02  0.29595365946E+00  0.29603369685E+00  0.51109989000E-03 0.  1.
      611    1    3    3    0    0  0.12880206533E-01  0.12089107151E-01  0.59148888225E+01  0.59149152225E+01  0.51109989000E-03 0. -1.
       11    1    1    2    0    0 -0.17578255322E-01 -0.86989724822E-02  0.38855605887E+00  0.38905107542E+00  0.51109989000E-03 0. -1.
     -623    1    1    2    0    0 -0.11382568330E-02  0.22337242017E-03  0.60143919706E-03  0.17124000000E+03  0.17124000000E+03 0.  1.
</event>
<event>
 7   1  0.1356560E+02  0.9118800E+02  0.7818608E-02  0.1180000E+00
       11   -1    0    0    0    0  0.00000000000E+00  0.00000000000E+00  0.65999999802E+01  0.66000000000E+01  0.51109989000E-03 0.  1.
     -623   -1    0    0    0    0  0.00000000000E+00  0.00000000000E+00  0.75637274222E-11  0.17124000000E+03  0.17124000000E+03 0.  1.
      622    2    1    2    0    0 -0.48510753295E-02 -0.68866486472E-02  0.60227766173E+01  0.60228572240E+01  0.29999999955E-01 0.  0.
     -611    1    3    3    0    0 -0.98040051343E-02 -0.12142752655E-01  0.16334083404E+01  0.16334829760E+01  0.51109989000E-03 0. -1.
      611    1    3    3    0    0  0.49529298048E-02  0.52561040078E-02  0.43893682769E+01  0.43893742480E+01  0.51109989000E-03 0.  1.
       11    1    1    2    0    0  0.37137431402E-02  0.76239651897E-02  0.57708023945E+00  0.57714277326E+00  0.51109989000E-03 0.  1.
     -623    1    1    2    0    0  0.11373321887E-02 -0.73731654228E-03  0.14312615224E-03  0.17124000001E+03  0.17124000000E+03 0.  1.
</event>
<event>
 7   1  0.1356560E+02  0.9118800E+02  0.7818608E-02  0.1180000E+00
       11   -1    0    0    0    0  0.00000000000E+00  0.00000000000E+00  0.65999999802E+01  0.66000000000E+01  0.51109989000E-03 0. -1.
     -623   -1    0    0    0    0  0.00000000000E+00  0.00000000000E+00  0.75637274222E-11  0.17124000000E+03  0.17124000000E+03 0. -1.
      622    2    1    2    0    0 -0.26299524980E-02 -0.25440042467E-01  0.52534247854E+01  0.52535726975E+01  0.30000000153E-01 0.  0.
     -611    1    3    3    0    0  0.90872913753E-02 -0.11478981462E-02  0.24741256976E+01  0.24741427051E+01  0.51109989000E-03 0.  1.
      611    1    3    3    0    0 -0.11717243873E-01 -0.24292144320E-01  0.27792990878E+01  0.27794299924E+01  0.51109989000E-03 0. -1.
       11    1    1    2    0    0 -0.69979967221E-04  0.26046979519E-01  0.13461752143E+01  0.13464272795E+01  0.51109989000E-03 0. -1.
     -623    1    1    2    0    0  0.26999324653E-02 -0.60693705233E-03  0.39998033376E-03  0.17124000002E+03  0.17124000000E+03 0. -1.
</event>
<event>
 7   1  0.1356560E+02  0.9118800E+02  0.7818608E-02  0.1180000E+00
       11   -1    0    0    0    0  0.00000000000E+00  0.00000000000E+00  0.65999999802E+01  0.66000000000E+01  0.51109989000E-03 0.  1.
     -623   -1    0    0    0    0  0.00000000000E+00  0.00000000000E+00  0.75637274222E-11  0.17124000000E+03  0.17124000000E+03 0. -1.
      622    2    1    2    0    0 -0.15686728878E-02 -0.44105632477E-03  0.61502946300E+01  0.61503680127E+01  0.30000000151E-01 0.  0.
     -611    1    3    3    0    0 -0.12200965774E-01 -0.66620071864E-02  0.17208288260E+01  0.17208850501E+01  0.51109989000E-03 0.  1.
      611    1    3    3    0    0  0.10632292886E-01  0.62209508617E-02  0.44294658040E+01  0.44294829626E+01  0.51109989000E-03 0. -1.
       11    1    1    2    0    0 -0.61634136978E-02 -0.83438857598E-02  0.44951161980E+00  0.44963158881E+00  0.51109989000E-03 0.  1.
     -623    1    1    2    0    0  0.77320865839E-02  0.87849420825E-02  0.19373190015E-03  0.17124000040E+03  0.17124000000E+03 0. -1.
</event>
<event>
 7   1  0.1356560E+02  0.9118800E+02  0.7818608E-02  0.1180000E+00
       11   -1    0    0    0    0  0.00000000000E+00  0.00000000000E+00  0.65999999802E+01  0.66000000000E+01  0.51109989000E-03 0.  1.
     -623   -1    0    0    0    0  0.00000000000E+00  0.00000000000E+00  0.75637274222E-11  0.17124000000E+03  0.17124000000E+03 0.  1.
      622    2    1    2    0    0  0.33011053045E-02  0.59323985213E-03  0.65939467335E+01  0.65940158306E+01  0.29999998889E-01 0.  0.
     -611    1    3    3    0    0  0.59337445889E-02 -0.30589319305E-02  0.64375345450E+01  0.64375380267E+01  0.51109989000E-03 0.  1.
      611    1    3    3    0    0 -0.26326392843E-02  0.36521717826E-02  0.15641218853E+00  0.15647780383E+00  0.51109989000E-03 0. -1.
       11    1    1    2    0    0 -0.61450665798E-03 -0.60966467790E-03  0.58991074185E-02  0.59841457941E-02  0.51109989000E-03 0.  1.
     -623    1    1    2    0    0 -0.26865986476E-02  0.16424825772E-04  0.15413677799E-03  0.17124000002E+03  0.17124000000E+03 0.  1.
</event>
<event>
 7   1  0.1356560E+02  0.9118800E+02  0.7818608E-02  0.1180000E+00
       11   -1    0    0    0    0  0.00000000000E+00  0.00000000000E+00  0.65999999802E+01  0.66000000000E+01  0.51109989000E-03 0.  1.
     -623   -1    0    0    0    0  0.00000000000E+00  0.00000000000E+00  0.75637274222E-11  0.17124000000E+03  0.17124000000E+03 0.  1.
      622    2    1    2    0    0 -0.65886414178E-03 -0.37377955005E-02  0.65955399262E+01  0.65956092458E+01  0.29999999868E-01 0.  0.
     -611    1    3    3    0    0  0.85621451957E-02 -0.12464473379E-01  0.22571138582E+01  0.22571645717E+01  0.51109989000E-03 0. -1.
      611    1    3    3    0    0 -0.92210093375E-02  0.87266778788E-02  0.43384260680E+01  0.43384446741E+01  0.51109989000E-03 0.  1.
       11    1    1    2    0    0  0.13539360867E-02  0.36452221010E-03  0.41293065917E-02  0.43907192343E-02  0.51109989000E-03 0.  1.
     -623    1    1    2    0    0 -0.69507194489E-03  0.33732732904E-02  0.33074741789E-03  0.17124000003E+03  0.17124000000E+03 0.  1.
</event>
<event>
 7   1  0.1356560E+02  0.9118800E+02  0.7818608E-02  0.1180000E+00
       11   -1    0    0    0    0  0.00000000000E+00  0.00000000000E+00  0.65999999802E+01  0.66000000000E+01  0.51109989000E-03 0. -1.
     -623   -1    0    0    0    0  0.00000000000E+00  0.00000000000E+00  0.75637274222E-11  0.17124000000E+03  0.17124000000E+03 0.  1.
      622    2    1    2    0    0  0.47783122457E-02 -0.41861369756E-02  0.49136876742E+01  0.49137833607E+01  0.30000000350E-01 0.  0.
     -611    1    3    3    0    0  0.48247145463E-02 -0.10744477788E-01  0.46456979165E+01  0.46457128747E+01  0.51109989000E-03 0. -1.
      611    1    3    3    0    0 -0.46402300539E-04  0.65583408125E-02  0.26798975776E+00  0.26807048602E+00  0.51109989000E-03 0.  1.
       11    1    1    2    0    0 -0.20057315384E-02  0.15532172593E-02  0.16862146148E+01  0.16862166005E+01  0.51109989000E-03 0. -1.
     -623    1    1    2    0    0 -0.27725807057E-02  0.26329197147E-02  0.97695113651E-04  0.17124000004E+03  0.17124000000E+03 0.  1.
</event>
<event>
 7   1  0.1356560E+02  0.9118800E+02  0.7818608E-02  0.1180000E+00
       11   -1    0    0    0    0  0.00000000000E+00  0.00000000000E+00  0.65999999802E+01  0.66000000000E+01  0.51109989000E-03 0.  1.
     -623   -1    0    0    0    0  0.00000000000E+00  0.00000000000E+00  0.75637274222E-11  0.17124000000E+03  0.17124000000E+03 0. -1.
      622    2    1    2    0    0 -0.79949828350E-03  0.31053625124E-03  0.64681164727E+01  0.64681861012E+01  0.30000000078E-01 0.  0.
     -611    1    3    3    0    0 -0.59852019616E-02  0.45477818029E-02  0.61211273305E+01  0.61211319674E+01  0.51109989000E-03 0.  1.
      611    1    3    3    0    0  0.51857036781E-02 -0.42372455516E-02  0.34698914215E+00  0.34705413377E+00  0.51109989000E-03 0. -1.
       11    1    1    2    0    0  0.93661166817E-03 -0.13010099155E-03  0.13180952042E+00  0.13181390316E+00  0.51109989000E-03 0.  1.
     -623    1    1    2    0    0 -0.13711338458E-03 -0.18043525957E-03  0.73991638383E-04  0.17124000000E+03  0.17124000000E+03 0. -1.
</event>
<event>
 7   1  0.1356560E+02  0.9118800E+02  0.7818608E-02  0.1180000E+00
       11   -1    0    0    0    0  0.00000000000E+00  0.00000000000E+00  0.65999999802E+01  0.66000000000E+01  0.51109989000E-03 0. -1.
     -623   -1    0    0    0    0  0.00000000000E+00  0.00000000000E+00  0.75637274222E-11  0.17124000000E+03  0.17124000000E+03 0. -1.
      622    2    1    2    0    0  0.20464305699E-02 -0.30699231607E-03  0.65013190696E+01  0.65013886153E+01  0.29999999170E-01 0.  0.
     -611    1    3    3    0    0 -0.77759936722E-02  0.11584820564E-01  0.24102068907E+01  0.24102473299E+01  0.51109989000E-03 0.  1.
      611    1    3    3    0    0  0.98224242422E-02 -0.11891812880E-01  0.40911121790E+01  0.40911412854E+01  0.51109989000E-03 0. -1.
       11    1    1    2    0    0 -0.13165436843E-02  0.85915492235E-03  0.98597530095E-01  0.98611386758E-01  0.51109989000E-03 0. -1.
     -623    1    1    2    0    0 -0.72988688511E-03 -0.55216260590E-03  0.83385021562E-04  0.17124000000E+03  0.17124000000E+03 0. -1.
</event>
<event>
 7   1  0.1356560E+02  0.9118800E+02  0.7818608E-02  0.1180000E+00
       11   -1    0    0    0    0  0.00000000000E+00  0.00000000000E+00  0.65999999802E+01  0.66000000000E+01  0.51109989000E-03 0.  1.
     -623   -1    0    0    0    0  0.00000000000E+00  0.00000000000E+00  0.75637274222E-11  0.17124000000E+03  0.17124000000E+03 0. -1.
      622    2    1    2    0    0 -0.97855095504E-03 -0.10044611427E-01  0.59177471363E+01  0.59178317837E+01  0.30000000104E-01 0.  0.
     -611    1    3    3    0    0 -0.35005501165E-02 -0.12913137337E-01  0.58105165782E+01  0.58105320040E+01  0.51109989000E-03 0.  1.
      611    1    3    3    0    0  0.25219991614E-02  0.28685259097E-02  0.10723055809E+00  0.10729977973E+00  0.51109989000E-03 0. -1.
       11    1    1    2    0    0  0.25518758522E-03  0.12351529730E-01  0.68205612990E+00  0.68216819844E+00  0.51109989000E-03 0.  1.
     -623    1    1    2    0    0  0.72336336988E-03 -0.23069183032E-02  0.19671340738E-03  0.17124000002E+03  0.17124000000E+03 0. -1.
</event>
<event>
 7   1  0.1356560E+02  0.9118800E+02  0.7818608E-02  0.1180000E+00
       11   -1    0    0    0    0  0.00000000000E+00  0.00000000000E+00  0.65999999802E+01  0.66000000000E+01  0.51109989000E-03 0. -1.
     -623   -1    0    0    0    0  0.00000000000E+00  0.00000000000E+00  0.75637274222E-11  0.17124000000E+03  0.17124000000E+03 0.  1.
      622    2    1    2    0    0  0.10136383752E-01  0.86726822677E-02  0.53047556098E+01  0.53048572122E+01  0.29999999027E-01 0.  0.
     -611    1    3    3    0    0 -0.98106572004E-02 -0.17643318905E-03  0.10619275957E+01  0.10619730504E+01  0.51109989000E-03 0.  1.
      611    1    3    3    0    0  0.19947040952E-01  0.88491154568E-02  0.42428280142E+01  0.42428841618E+01  0.51109989000E-03 0. -1.
       11    1    1    2    0    0 -0.10508622004E-01 -0.85590425052E-02  0.12950717707E+01  0.12951427878E+01  0.51109989000E-03 0. -1.
     -623    1    1    2    0    0  0.37223825257E-03 -0.11363976247E-03  0.17260021723E-03  0.17124000000E+03  0.17124000000E+03 0.  1.
</event>
<event>
 7   1  0.1356560E+02  0.9118800E+02  0.7818608E-02  0.1180000E+00
       11   -1    0    0    0    0  0.00000000000E+00  0.00000000000E+00  0.65999999802E+01  0.66000000000E+01  0.51109989000E-03 0. -1.
     -623   -1    0    0    0    0  0.00000000000E+00  0.00000000000E+00  0.75637274222E-11  0.17124000000E+03  0.17124000000E+03 0.  1.
      622    2    1    2    0    0 -0.10155407793E-01 -0.33423461033E-01  0.32563291802E+01  0.32566547238E+01  0.29999999651E-01 0.  0.
     -611    1    3    3    0    0  0.10358723629E-01 -0.66938208407E-02  0.85355347390E+00  0.85364272645E+00  0.51109989000E-03 0.  1.
      611    1    3    3    0    0 -0.20514131422E-01 -0.26729640192E-01  0.24027757063E+01  0.24030119973E+01  0.51109989000E-03 0. -1.
       11    1    1    2    0    0  0.16664548311E-02  0.24024202369E-01  0.33432580379E+01  0.33433448085E+01  0.51109989000E-03 0. -1.
     -623    1    1    2    0    0  0.84889529607E-02  0.93992586618E-02  0.41276326686E-03  0.17124000047E+03  0.17124000000E+03 0.  1.
</event>
<event>
 7   1  0.1356560E+02  0.9118800E+02  0.7818608E-02  0.1180000E+00
       11   -1    0    0    0    0  0.00000000000E+00  0.00000000000E+00  0.65999999802E+01  0.66000000000E+01  0.51109989000E-03 0.  1.
     -623   -1    0    0    0    0  0.00000000000E+00  0.00000000000E+00  0.75637274222E-11  0.17124000000E+03  0.17124000000E+03 0.  1.
      622    2    1    2    0    0 -0.23658951518E-02  0.77742106299E-03  0.65808349829E+01  0.65809038341E+01  0.30000003107E-01 0.  0.
     -611    1    3    3    0    0 -0.44721558654E-02  0.13546767932E-02  0.65434164126E+01  0.65434181010E+01  0.51109989000E-03 0.  1.
      611    1    3    3    0    0  0.21062607136E-02 -0.57725573022E-03  0.37418570322E-01  0.37485733105E-01  0.51109989000E-03 0. -1.
       11    1    1    2    0    0  0.10249567069E-02  0.23656282582E-03  0.19060317360E-01  0.19096162421E-01  0.51109989000E-03 0.  1.
     -623    1    1    2    0    0  0.13409384439E-02 -0.10139838881E-02  0.10468480210E-03  0.17124000001E+03  0.17124000000E+03 0.  1.
</event>
<event>
 7   1  0.1356560E+02  0.9118800E+02  0.7818608E-02  0.1180000E+00
       11   -1    0    0    0    0  0.00000000000E+00  0.00000000000E+00  0.65999999802E+01  0.66000000000E+01  0.51109989000E-03 0. -1.
     -623   -1    0    0    0    0  0.00000000000E+00  0.00000000000E+00  0.75637274222E-11  0.17124000000E+03  0.17124000000E+03 0.  1.
      622    2    1    2    0    0 -0.18884030755E-01  0.23502954298E-01  0.52599726635E+01  0.52601446193E+01  0.29999999798E-01 0.  0.
     -611    1    3    3    0    0 -0.13956863502E-01 -0.40463772967E-02  0.17853706275E+01  0.17854298379E+01  0.51109989000E-03 0.  1.
      611    1    3    3    0    0 -0.49271672532E-02  0.27549331594E-01  0.34746020360E+01  0.34747147814E+01  0.51109989000E-03 0. -1.
       11    1    1    2    0    0  0.15479512627E-01 -0.20046627760E-01  0.13396158071E+01  0.13398553110E+01  0.51109989000E-03 0. -1.
     -623    1    1    2    0    0  0.34045181283E-02 -0.34563265380E-02  0.41150917792E-03  0.17124000007E+03  0.17124000000E+03 0.  1.
</event>
<event>
 7   1  0.1356560E+02  0.9118800E+02  0.7818608E-02  0.1180000E+00
       11   -1    0    0    0    0  0.00000000000E+00  0.00000000000E+00  0.65999999802E+01  0.66000000000E+01  0.51109989000E-03 0. -1.
     -623   -1    0    0    0    0  0.00000000000E+00  0.00000000000E+00  0.75637274222E-11  0.17124000000E+03  0.17124000000E+03 0. -1.
      622    2    1    2    0    0  0.30746892963E-02  0.53803841591E-02  0.64216534950E+01  0.64217265600E+01  0.29999999823E-01 0.  0.
     -611    1    3    3    0    0 -0.47004812117E-02  0.16436306082E-01  0.35300429055E+01  0.35300843365E+01  0.51109989000E-03 0. -1.
      611    1    3    3    0    0  0.77751705080E-02 -0.11055921923E-01  0.28916105895E+01  0.28916422236E+01  0.51109989000E-03 0.  1.
       11    1    1    2    0    0  0.13800453182E-02 -0.28676298548E-02  0.17824422606E+00  0.17827336642E+00  0.51109989000E-03 0. -1.
     -623    1    1    2    0    0 -0.44547346126E-02 -0.25127543033E-02  0.10226203583E-03  0.17124000008E+03  0.17124000000E+03 0. -1.
</event>
<event>
 7   1  0.1356560E+02  0.9118800E+02  0.7818608E-02  0.1180000E+00
       11   -1    0    0    0    0  0.00000000000E+00  0.00000000000E+00  0.65999999802E+01  0.66000000000E+01  0.51109989000E-03 0.  1.
     -623   -1    0    0    0    0  0.00000000000E+00  0.00000000000E+00  0.75637274222E-11  0.17124000000E+03  0.17124000000E+03 0. -1.
      622    2    1    2    0    0 -0.32022699013E-02 -0.34678463189E-03  0.65025958581E+01  0.65026658586E+01  0.30000000644E-01 0.  0.
     -611    1    3    3    0    0  0.10950224290E-01  0.35749225901E-02  0.13559781012E+01  0.13560271235E+01  0.51109989000E-03 0. -1.
      611    1    3    3    0    0 -0.14152494191E-01 -0.39217072220E-02  0.51466177569E+01  0.51466387351E+01  0.51109989000E-03 0.  1.
       11    1    1    2    0    0  0.32528400392E-02  0.44112910927E-03  0.97277427480E-01  0.97334139352E-01  0.51109989000E-03 0.  1.
     -623    1    1    2    0    0 -0.50570137869E-04 -0.94344477412E-04  0.12669267129E-03  0.17124000000E+03  0.17124000000E+03 0. -1.
</event>
<event>
 7   1  0.1356560E+02  0.9118800E+02  0.7818608E-02  0.1180000E+00
       11   -1    0    0    0    0  0.00000000000E+00  0.00000000000E+00  0.65999999802E+01  0.66000000000E+01  0.51109989000E-03 0.  1.
     -623   -1    0    0    0    0  0.00000000000E+00  0.00000000000E+00  0.75637274222E-11  0.17124000000E+03  0.17124000000E+03 0. -1.
      622    2    1    2    0    0 -0.16329900149E-01 -0.15814905347E-03  0.53252318821E+01  0.53253414247E+01  0.29999999815E-01 0.  0.
     -611    1    3    3    0    0  0.41860822635E-02  0.34135904911E-02  0.32595094597E+01  0.32595139753E+01  0.51109989000E-03 0.  1.
      611    1    3    3    0    0 -0.20515982413E-01 -0.35717395446E-02  0.20657224224E+01  0.20658274494E+01  0.51109989000E-03 0. -1.
       11    1    1    2    0    0  0.13302841569E-01  0.44443885893E-02  0.12745812255E+01  0.12746584953E+01  0.51109989000E-03 0.  1.
     -623    1    1    2    0    0  0.30270585802E-02 -0.42862395355E-02  0.18687310278E-03  0.17124000008E+03  0.17124000000E+03 0. -1.
</event>
<event>
 7   1  0.1356560E+02  0.9118800E+02  0.7818608E-02  0.1180000E+00
       11   -1    0    0    0    0  0.00000000000E+00  0.00000000000E+00  0.65999999802E+01  0.66000000000E+01  0.51109989000E-03 0.  1.
     -623   -1    0    0    0    0  0.00000000000E+00  0.00000000000E+00  0.75637274222E-11  0.17124000000E+03  0.17124000000E+03 0.  1.
      622    2    1    2    0    0 -0.20369368270E-02  0.23264450070E-02  0.65650977099E+01  0.65651669821E+01  0.29999999109E-01 0.  0.
     -611    1    3    3    0    0  0.12825196620E-01 -0.68740511426E-03  0.42566026820E+01  0.42566220894E+01  0.51109989000E-03 0.  1.
      611    1    3    3    0    0 -0.14862133447E-01  0.30138501212E-02  0.23084950279E+01  0.23085448927E+01  0.51109989000E-03 0. -1.
       11    1    1    2    0    0  0.24002806284E-02 -0.28853538818E-02  0.34626452907E-01  0.34833017069E-01  0.51109989000E-03 0. -1.
     -623    1    1    2    0    0 -0.36334380138E-03  0.55890887477E-03  0.27581803004E-03  0.17124000000E+03  0.17124000000E+03 0.  1.
</event>
<event>
 7   1  0.1356560E+02  0.9118800E+02  0.7818608E-02  0.1180000E+00
       11   -1    0    0    0    0  0.00000000000E+00  0.00000000000E+00  0.65999999802E+01  0.66000000000E+01  0.51109989000E-03 0. -1.
     -623   -1    0    0    0    0  0.00000000000E+00  0.00000000000E+00  0.75637274222E-11  0.17124000000E+03  0.17124000000E+03 0. -1.
      622    2    1    2    0    0  0.88527920045E-03 -0.39130426088E-02  0.61580697953E+01  0.61581441766E+01  0.30000000312E-01 0.  0.
     -611    1    3    3    0    0 -0.75785004360E-02 -0.59301788979E-02  0.55831722541E+01  0.55831805703E+01  0.51109989000E-03 0. -1.
      611    1    3    3    0    0  0.84637796365E-02  0.20171362891E-02  0.57489754126E+00  0.57496360630E+00  0.51109989000E-03 0.  1.
       11    1    1    2    0    0 -0.24705486947E-02  0.59203963954E-02  0.44180893782E+00  0.44185580619E+00  0.51109989000E-03 0. -1.
     -623    1    1    2    0    0  0.15852694938E-02 -0.20073537860E-02  0.12124900615E-03  0.17124000002E+03  0.17124000000E+03 0. -1.
</event>
<event>
 7   1  0.1356560E+02  0.9118800E+02  0.7818608E-02  0.1180000E+00
       11   -1    0    0    0    0  0.00000000000E+00  0.00000000000E+00  0.65999999802E+01  0.66000000000E+01  0.51109989000E-03 0.  1.
     -623   -1    0    0    0    0  0.00000000000E+00  0.00000000000E+00  0.75637274222E-11  0.17124000000E+03  0.17124000000E+03 0.  1.
      622    2    1    2    0    0 -0.46297747592E-02 -0.22940897544E-02  0.43140643012E+01  0.43141717041E+01  0.30000001831E-01 0.  0.
     -611    1    3    3    0    0  0.11628398208E-01 -0.32450105895E-02  0.26522089888E+01  0.26522365150E+01  0.51109989000E-03 0.  1.
      611    1    3    3    0    0 -0.16258172967E-01  0.95092083504E-03  0.16618553124E+01  0.16619351892E+01  0.51109989000E-03 0. -1.
       11    1    1    2    0    0 -0.96636651547E-02 -0.16479000079E-01  0.22857467824E+01  0.22858266684E+01  0.51109989000E-03 0.  1.
     -623    1    1    2    0    0  0.14293439918E-01  0.18773089838E-01  0.18889491557E-03  0.17124000163E+03  0.17124000000E+03 0.  1.
</event>
<event>
 7   1  0.1356560E+02  0.9118800E+02  0.7818608E-02  0.1180000E+00
       11   -1    0    0    0    0  0.00000000000E+00  0.00000000000E+00  0.65999999802E+01  0.66000000000E+01  0.51109989000E-03 0.  1.
     -623   -1    0    0    0    0  0.00000000000E+00  0.00000000000E+00  0.75637274222E-11  0.17124000000E+03  0.17124000000E+03 0.  1.
      622    2    1    2    0    0 -0.20235109684E-02  0.22426498540E-02  0.63570103123E+01  0.63570818175E+01  0.29999999857E-01 0.  0.
     -611    1    3    3    0    0 -0.42186861205E-02  0.88857868308E-02  0.59688077388E+01  0.59688158657E+01  0.51109989000E-03 0.  1.
      611    1    3    3    0    0  0.21951751521E-02 -0.66431369768E-02  0.38820257349E+00  0.38826595183E+00  0.51109989000E-03 0. -1.
       11    1    1    2    0    0  0.24234590903E-02  0.34400359509E-02  0.24288110043E+00  0.24291808737E+00  0.51109989000E-03 0.  1.
     -623    1    1    2    0    0 -0.39994812188E-03 -0.56826858052E-02  0.10856717768E-03  0.17124000009E+03  0.17124000000E+03 0.  1.
</event>
<event>
 7   1  0.1356560E+02  0.9118800E+02  0.7818608E-02  0.1180000E+00
       11   -1    0    0    0    0  0.00000000000E+00  0.00000000000E+00  0.65999999802E+01  0.66000000000E+01  0.51109989000E-03 0.  1.
     -623   -1    0    0    0    0  0.00000000000E+00  0.00000000000E+00  0.75637274222E-11  0.17124000000E+03  0.17124000000E+03 0. -1.
      622    2    1    2    0    0  0.25795624510E-01 -0.51901865229E-02  0.64287222812E+01  0.64288461267E+01  0.30000000095E-01 0.  0.
     -611    1    3    3    0    0  0.19857131332E-01 -0.10219517110E-01  0.21368276175E+01  0.21369443775E+01  0.51109989000E-03 0. -1.
      611    1    3    3    0    0  0.59384931779E-02  0.50293305869E-02  0.42918946636E+01  0.42919017492E+01  0.51109989000E-03 0.  1.
       11    1    1    2    0    0 -0.39968969981E-01  0.27882956531E-01  0.16406596789E+00  0.17115163122E+00  0.51109989000E-03 0.  1.
     -623    1    1    2    0    0  0.14173345471E-01 -0.22692770008E-01  0.72117311130E-02  0.17124000224E+03  0.17124000000E+03 0. -1.
</event>
<event>
 7   1  0.1356560E+02  0.9118800E+02  0.7818608E-02  0.1180000E+00
       11   -1    0    0    0    0  0.00000000000E+00  0.00000000000E+00  0.65999999802E+01  0.66000000000E+01  0.51109989000E-03 0. -1.
     -623   -1    0    0    0    0  0.00000000000E+00  0.00000000000E+00  0.75637274222E-11  0.17124000000E+03  0.17124000000E+03 0.  1.
      622    2    1    2    0    0  0.94878294711E-02  0.23497727819E-01  0.61305713702E+01  0.61306971453E+01  0.30000000379E-01 0.  0.
     -611    1    3    3    0    0  0.12072382969E-01  0.14303811401E-01  0.15128434481E+01  0.15129593191E+01  0.51109989000E-03 0.  1.
      611    1    3    3    0    0 -0.25845534981E-02  0.91939164176E-02  0.46177279221E+01  0.46177378263E+01  0.51109989000E-03 0. -1.
       11    1    1    2    0    0 -0.86285361690E-02 -0.22466444494E-01  0.46868508506E+00  0.46930284779E+00  0.51109989000E-03 0. -1.
     -623    1    1    2    0    0 -0.85929330199E-03 -0.10312833245E-02  0.74352491482E-03  0.17124000001E+03  0.17124000000E+03 0.  1.
</event>
<event>
 7   1  0.1356560E+02  0.9118800E+02  0.7818608E-02  0.1180000E+00
       11   -1    0    0    0    0  0.00000000000E+00  0.00000000000E+00  0.65999999802E+01  0.66000000000E+01  0.51109989000E-03 0.  1.
     -623   -1    0    0    0    0  0.00000000000E+00  0.00000000000E+00  0.75637274222E-11  0.17124000000E+03  0.17124000000E+03 0.  1.
      622    2    1    2    0    0  0.38206332493E-02 -0.11102265574E-02  0.56973261857E+01  0.56974065588E+01  0.30000000173E-01 0.  0.
     -611    1    3    3    0    0  0.10832802914E-01  0.48338738509E-02  0.98755423035E+00  0.98762560470E+00  0.51109989000E-03 0. -1.
      611    1    3    3    0    0 -0.70121696648E-02 -0.59441004083E-02  0.47097719554E+01  0.47097809541E+01  0.51109989000E-03 0.  1.
       11    1    1    2    0    0 -0.38607975475E-02  0.33720671587E-02  0.90257872530E+00  0.90259342629E+00  0.51109989000E-03 0.  1.
     -623    1    1    2    0    0  0.40164298251E-04 -0.22618406013E-02  0.95069264550E-04  0.17124000001E+03  0.17124000000E+03 0.  1.
</event>
<event>
 7   1  0.1356560E+02  0.9118800E+02  0.7818608E-02  0.1180000E+00
       11   -1    0    0    0    0  0.00000000000E+00  0.00000000000E+00  0.65999999802E+01  0.66000000000E+01  0.51109989000E-03 0.  1.
     -623   -1    0    0    0    0  0.00000000000E+00  0.00000000000E+00  0.75637274222E-11  0.17124000000E+03  0.17124000000E+03 0.  1.
      622    2    1    2    0    0 -0.35584209394E-02  0.29825586711E-02  0.65536333255E+01  0.65537036340E+01  0.30000000734E-01 0.  0.
     -611    1    3    3    0    0  0.99857287337E-02 -0.42257281117E-02  0.44935588490E+01  0.44935719603E+01  0.51109989000E-03 0.  1.
      611    1    3    3    0    0 -0.13544149673E-01  0.72082867828E-02  0.20600744765E+01  0.20601316738E+01  0.51109989000E-03 0. -1.
       11    1    1    2    0    0  0.72132107832E-02 -0.42598439954E-02  0.45529236215E-01  0.46296320092E-01  0.51109989000E-03 0.  1.
     -623    1    1    2    0    0 -0.36547898439E-02  0.12772853243E-02  0.83741847448E-03  0.17124000005E+03  0.17124000000E+03 0.  1.
</event>
<event>
 7   1  0.1356560E+02  0.9118800E+02  0.7818608E-02  0.1180000E+00
       11   -1    0    0    0    0  0.00000000000E+00  0.00000000000E+00  0.65999999802E+01  0.66000000000E+01  0.51109989000E-03 0. -1.
     -623   -1    0    0    0    0  0.00000000000E+00  0.00000000000E+00  0.75637274222E-11  0.17124000000E+03  0.17124000000E+03 0.  1.
      622    2    1    2    0    0 -0.28984399626E-03 -0.33099286993E-02  0.65295884626E+01  0.65296582246E+01  0.29999999675E-01 0.  0.
     -611    1    3    3    0    0  0.12137669277E-01 -0.91280346251E-02  0.24855239375E+01  0.24855703870E+01  0.51109989000E-03 0.  1.
      611    1    3    3    0    0 -0.12427513273E-01  0.58181059258E-02  0.40440645251E+01  0.40440878375E+01  0.51109989000E-03 0. -1.
       11    1    1    2    0    0  0.15051411983E-03  0.34712625248E-02  0.70254050703E-01  0.70341774084E-01  0.51109989000E-03 0. -1.
     -623    1    1    2    0    0  0.13932987646E-03 -0.16133382554E-03  0.15746583878E-03  0.17124000000E+03  0.17124000000E+03 0.  1.
</event>
<event>
 7   1  0.1356560E+02  0.9118800E+02  0.7818608E-02  0.1180000E+00
       11   -1    0    0    0    0  0.00000000000E+00  0.00000000000E+00  0.65999999802E+01  0.66000000000E+01  0.51109989000E-03 0. -1.
     -623   -1    0    0    0    0  0.00000000000E+00  0.00000000000E+00  0.75637274222E-11  0.17124000000E+03  0.17124000000E+03 0.  1.
      622    2    1    2    0    0  0.16925449069E-01 -0.56138763720E-02  0.47127165816E+01  0.47128458032E+01  0.30000000086E-01 0.  0.
     -611    1    3    3    0    0 -0.47021844378E-02  0.77503654780E-02  0.95399186149E+00  0.95403506839E+00  0.51109989000E-03 0.  1.
      611    1    3    3    0    0  0.21627633507E-01 -0.13364241850E-01  0.37587247201E+01  0.37588107348E+01  0.51109989000E-03 0. -1.
       11    1    1    2    0    0 -0.20883221906E-01  0.48009675486E-02  0.18870324217E+01  0.18871541484E+01  0.51109989000E-03 0. -1.
     -623    1    1    2    0    0  0.39577728372E-02  0.81290882334E-03  0.25097643949E-03  0.17124000005E+03  0.17124000000E+03 0.  1.
</event>
<event>
 7   1  0.1440739E+02  0.9118800E+02  0.7818608E-02  0.1180000E+00
       11   -1    0    0    0    0  0.00000000000E+00  0.00000000000E+00  0.65999999802E+01  0.66000000000E+01  0.51109989000E-03 0.  1.
     -623   -1    0    0    0    0  0.00000000000E+00  0.00000000000E+00  0.75637274222E-11  0.17124000000E+03  0.17124000000E+03 0.  1.
      622    2    1    2    0    0 -0.31224540533E-03 -0.41116591733E-03  0.65836811969E+01  0.65837495676E+01  0.30000000152E-01 0.  0.
     -611    1    3    3    0    0 -0.10912275755E-01 -0.20083991444E-02  0.55789506497E+01  0.55789617066E+01  0.51109989000E-03 0.  1.
      611    1    3    3    0    0  0.10600030350E-01  0.15972332270E-02  0.10047305472E+01  0.10047878609E+01  0.51109989000E-03 0. -1.
       11    1    1    2    0    0  0.60829375476E-03 -0.27433302725E-03  0.16228682939E-01  0.16250435469E-01  0.51109989000E-03 0.  1.
     -623    1    1    2    0    0 -0.29604834922E-03  0.68549894409E-03  0.90105107777E-04  0.17124000000E+03  0.17124000000E+03 0.  1.
</event>
<event>
 7   1  0.1356560E+02  0.9118800E+02  0.7818608E-02  0.1180000E+00
       11   -1    0    0    0    0  0.00000000000E+00  0.00000000000E+00  0.65999999802E+01  0.66000000000E+01  0.51109989000E-03 0.  1.
     -623   -1    0    0    0    0  0.00000000000E+00  0.00000000000E+00  0.75637274222E-11  0.17124000000E+03  0.17124000000E+03 0. -1.
      622    2    1    2    0    0  0.18472375863E-01  0.20066060769E-01  0.23040061988E+01  0.23043629141E+01  0.30000000015E-01 0.  0.
     -611    1    3    3    0    0  0.16570093861E-01  0.57785314856E-02  0.51605489683E+00  0.51635344214E+00  0.51109989000E-03 0.  1.
      611    1    3    3    0    0  0.19022820019E-02  0.14287529283E-01  0.17879513020E+01  0.17880094719E+01  0.51109989000E-03 0. -1.
       11    1    1    2    0    0 -0.16425093464E-01 -0.21267663565E-01  0.42955529879E+01  0.42956370692E+01  0.51109989000E-03 0.  1.
     -623    1    1    2    0    0 -0.20472823987E-02  0.12016027960E-02  0.44079377377E-03  0.17124000002E+03  0.17124000000E+03 0. -1.
</event>
<event>
 7   1  0.1356560E+02  0.9118800E+02  0.7818608E-02  0.1180000E+00
       11   -1    0    0    0    0  0.00000000000E+00  0.00000000000E+00  0.65999999802E+01  0.66000000000E+01  0.51109989000E-03 0. -1.
     -623   -1    0    0    0    0  0.00000000000E+00  0.00000000000E+00  0.75637274222E-11  0.17124000000E+03  0.17124000000E+03 0.  1.
      622    2    1    2    0    0  0.25383525292E-01  0.18103898184E-01  0.36395312154E+01  0.36397883925E+01  0.29999999678E-01 0.  0.
     -611    1    3    3    0    0  0.16674500021E-01  0.17133954694E-01  0.34175898170E+01  0.34176734820E+01  0.51109989000E-03 0. -1.
      611    1    3    3    0    0  0.87090252705E-02  0.96994348926E-03  0.22194139839E+00  0.22211491047E+00  0.51109989000E-03 0.  1.
       11    1    1    2    0    0 -0.18979435724E-01 -0.16550661174E-01  0.29601043241E+01  0.29602114813E+01  0.51109989000E-03 0. -1.
     -623    1    1    2    0    0 -0.64040895670E-02 -0.15532370098E-02  0.36444174419E-03  0.17124000013E+03  0.17124000000E+03 0.  1.
</event>
<event>
 7   1  0.1356560E+02  0.9118800E+02  0.7818608E-02  0.1180000E+00
       11   -1    0    0    0    0  0.00000000000E+00  0.00000000000E+00  0.65999999802E+01  0.66000000000E+01  0.51109989000E-03 0. -1.
     -623   -1    0    0    0    0  0.00000000000E+00  0.00000000000E+00  0.75637274222E-11  0.17124000000E+03  0.17124000000E+03 0.  1.
      622    2    1    2    0    0  0.24060799883E-01  0.13173559737E-01  0.17070175689E+01  0.17075015213E+01  0.30000000042E-01 0.  0.
     -611    1    3    3    0    0  0.10767877492E-01  0.57408231588E-03  0.13257503643E+01  0.13257943152E+01  0.51109989000E-03 0. -1.
      611    1    3    3    0    0  0.13292922391E-01  0.12599477421E-01  0.38126720464E+00  0.38170720608E+00  0.51109989000E-03 0.  1.
       11    1    1    2    0    0 -0.25918475885E-01 -0.15434415340E-01  0.48924054269E+01  0.48924984528E+01  0.51109989000E-03 0. -1.
     -623    1    1    2    0    0  0.18576760011E-02  0.22608556035E-02  0.57698454021E-03  0.17124000003E+03  0.17124000000E+03 0.  1.
</event>
<event>
 7   1  0.1356560E+02  0.9118800E+02  0.7818608E-02  0.1180000E+00
       11   -1    0    0    0    0  0.00000000000E+00  0.00000000000E+00  0.65999999802E+01  0.66000000000E+01  0.51109989000E-03 0. -1.
     -623   -1    0    0    0    0  0.00000000000E+00  0.00000000000E+00  0.75637274222E-11  0.17124000000E+03  0.17124000000E+03 0. -1.
      622    2    1    2    0    0 -0.17440894488E-03  0.39339424183E-02  0.65248446630E+01  0.65249148180E+01  0.30000000041E-01 0.  0.
     -611    1    3    3    0    0 -0.10878042816E-01  0.10830022632E-01  0.47292202767E+01  0.47292452155E+01  0.51109989000E-03 0. -1.
      611    1    3    3    0    0  0.10703633871E-01 -0.68960802137E-02  0.17956243862E+01  0.17956696025E+01  0.51109989000E-03 0.  1.
       11    1    1    2    0    0 -0.13128894272E-04 -0.39513654289E-02  0.74979397218E-01  0.75085182901E-01  0.51109989000E-03 0. -1.
     -623    1    1    2    0    0  0.18753783913E-03  0.17423010599E-04  0.17592113009E-03  0.17124000000E+03  0.17124000000E+03 0. -1.
</event>
<event>
 7   1  0.1356560E+02  0.9118800E+02  0.7818608E-02  0.1180000E+00
       11   -1    0    0    0    0  0.00000000000E+00  0.00000000000E+00  0.65999999802E+01  0.66000000000E+01  0.51109989000E-03 0.  1.
     -623   -1    0    0    0    0  0.00000000000E+00  0.00000000000E+00  0.75637274222E-11  0.17124000000E+03  0.17124000000E+03 0. -1.
      622    2    1    2    0    0 -0.11791536713E-02 -0.87911236719E-03  0.65881241969E+01  0.65881926654E+01  0.30000001324E-01 0.  0.
     -611    1    3    3    0    0  0.66312312713E-02  0.87038870451E-02  0.11004251265E+01  0.11004796459E+01  0.51109989000E-03 0. -1.
      611    1    3    3    0    0 -0.78103849426E-02 -0.95829994123E-02  0.54876990704E+01  0.54877130195E+01  0.51109989000E-03 0.  1.
       11    1    1    2    0    0  0.95657665688E-03  0.82517832395E-03  0.11728426692E-01  0.11807335598E-01  0.51109989000E-03 0.  1.
     -623    1    1    2    0    0  0.22257701443E-03  0.53934043236E-04  0.14735789193E-03  0.17124000000E+03  0.17124000000E+03 0. -1.
</event>
<event>
 7   1  0.1356560E+02  0.9118800E+02  0.7818608E-02  0.1180000E+00
       11   -1    0    0    0    0  0.00000000000E+00  0.00000000000E+00  0.65999999802E+01  0.66000000000E+01  0.51109989000E-03 0. -1.
     -623   -1    0    0    0    0  0.00000000000E+00  0.00000000000E+00  0.75637274222E-11  0.17124000000E+03  0.17124000000E+03 0. -1.
      622    2    1    2    0    0  0.22648863971E-02  0.22452524632E-02  0.65804311605E+01  0.65805003176E+01  0.29999999659E-01 0.  0.
     -611    1    3    3    0    0  0.55896535385E-02  0.11640993741E-01  0.14025495428E+01  0.14026090824E+01  0.51109989000E-03 0.  1.
      611    1    3    3    0    0 -0.33247671414E-02 -0.93957412780E-02  0.51778816178E+01  0.51778912351E+01  0.51109989000E-03 0. -1.
       11    1    1    2    0    0 -0.82755891663E-03 -0.29339987249E-02  0.19253127268E-01  0.19499675253E-01  0.51109989000E-03 0. -1.
     -623    1    1    2    0    0 -0.14373274804E-02  0.68874626167E-03  0.31569293501E-03  0.17124000001E+03  0.17124000000E+03 0. -1.
</event>
<event>
 7   1  0.1356560E+02  0.9118800E+02  0.7818608E-02  0.1180000E+00
       11   -1    0    0    0    0  0.00000000000E+00  0.00000000000E+00  0.65999999802E+01  0.66000000000E+01  0.51109989000E-03 0.  1.
     -623   -1    0    0    0    0  0.00000000000E+00  0.00000000000E+00  0.75637274222E-11  0.17124000000E+03  0.17124000000E+03 0. -1.
      622    2    1    2    0    0  0.15661122122E-02  0.14859217622E-03  0.62922922328E+01  0.62923639452E+01  0.30000000438E-01 0.  0.
     -611    1    3    3    0    0  0.15273328738E-01 -0.37380278811E-02  0.31154947982E+01  0.31155345202E+01  0.51109989000E-03 0. -1.
      611    1    3    3    0    0 -0.13707216526E-01  0.38866200573E-02  0.31767974346E+01  0.31768294250E+01  0.51109989000E-03 0.  1.
       11    1    1    2    0    0 -0.15288693696E-02 -0.33706828325E-03  0.30763165299E+00  0.30763606128E+00  0.51109989000E-03 0.  1.
     -623    1    1    2    0    0 -0.37242842546E-04  0.18847610684E-03  0.76100948435E-04  0.17124000000E+03  0.17124000000E+03 0. -1.
</event>
<event>
 7   1  0.1356560E+02  0.9118800E+02  0.7818608E-02  0.1180000E+00
       11   -1    0    0    0    0  0.00000000000E+00  0.00000000000E+00  0.65999999802E+01  0.66000000000E+01  0.51109989000E-03 0. -1.
     -623   -1    0    0    0    0  0.00000000000E+00  0.00000000000E+00  0.75637274222E-11  0.17124000000E+03  0.17124000000E+03 0. -1.
      622    2    1    2    0    0 -0.25304028674E-02  0.16590424949E-02  0.28871276255E+01  0.28872850710E+01  0.29999999907E-01 0.  0.
     -611    1    3    3    0    0 -0.61040051938E-02  0.13490081822E-02  0.12677016054E+00  0.12692522810E+00  0.51109989000E-03 0.  1.
      611    1    3    3    0    0  0.35736023264E-02  0.31003431274E-03  0.27603574649E+01  0.27603598429E+01  0.51109989000E-03 0. -1.
       11    1    1    2    0    0  0.22059344704E-02 -0.17540291399E-02  0.37127138270E+01  0.37127149319E+01  0.51109989000E-03 0. -1.
     -623    1    1    2    0    0  0.32446839685E-03  0.94986644865E-04  0.15853098614E-03  0.17124000000E+03  0.17124000000E+03 0. -1.
</event>
<event>
 7   1  0.1356560E+02  0.9118800E+02  0.7818608E-02  0.1180000E+00
       11   -1    0    0    0    0  0.00000000000E+00  0.00000000000E+00  0.65999999802E+01  0.66000000000E+01  0.51109989000E-03 0. -1.
     -623   -1    0    0    0    0  0.00000000000E+00  0.00000000000E+00  0.75637274222E-11  0.17124000000E+03  0.17124000000E+03 0.  1.
      622    2    1    2    0    0 -0.43881345802E-02  0.11455366547E-01  0.60388270151E+01  0.60389139917E+01  0.29999999494E-01 0.  0.
     -611    1    3    3    0    0 -0.17731961208E-02  0.13124982136E-01  0.10214000805E+01  0.10214860719E+01  0.51109989000E-03 0.  1.
      611    1    3    3    0    0 -0.26149384594E-02 -0.16696155890E-02  0.50174269346E+01  0.50174279199E+01  0.51109989000E-03 0. -1.
       11    1    1    2    0    0  0.39485212153E-02 -0.11721134235E-01  0.56094943647E+00  0.56108600705E+00  0.51109989000E-03 0. -1.
     -623    1    1    2    0    0  0.43961336502E-03  0.26576768786E-03  0.22352833621E-03  0.17124000000E+03  0.17124000000E+03 0.  1.
</event>
<event>
 7   1  0.1356560E+02  0.9118800E+02  0.7818608E-02  0.1180000E+00
       11   -1    0    0    0    0  0.00000000000E+00  0.00000000000E+00  0.65999999802E+01  0.66000000000E+01  0.51109989000E-03 0. -1.
     -623   -1    0    0    0    0  0.00000000000E+00  0.00000000000E+00  0.75637274222E-11  0.17124000000E+03  0.17124000000E+03 0. -1.
      622    2    1    2    0    0 -0.14230765236E-02 -0.56934533625E-03  0.65684901422E+01  0.65685588296E+01  0.30000000215E-01 0.  0.
     -611    1    3    3    0    0 -0.64038207735E-02  0.11453853783E-01  0.16795939957E+01  0.16796453350E+01  0.51109989000E-03 0.  1.
      611    1    3    3    0    0  0.49807442499E-02 -0.12023199120E-01  0.48888961465E+01  0.48889134946E+01  0.51109989000E-03 0. -1.
       11    1    1    2    0    0  0.27862006810E-02 -0.17881453229E-02  0.31262185914E-01  0.31441149298E-01  0.51109989000E-03 0. -1.
     -623    1    1    2    0    0 -0.13631241572E-02  0.23574906589E-02  0.24765280187E-03  0.17124000002E+03  0.17124000000E+03 0. -1.
</event>
<event>
 7   1  0.1356560E+02  0.9118800E+02  0.7818608E-02  0.1180000E+00
       11   -1    0    0    0    0  0.00000000000E+00  0.00000000000E+00  0.65999999802E+01  0.66000000000E+01  0.51109989000E-03 0.  1.
     -623   -1    0    0    0    0  0.00000000000E+00  0.00000000000E+00  0.75637274222E-11  0.17124000000E+03  0.17124000000E+03 0. -1.
      622    2    1    2    0    0  0.11154098837E-01 -0.61063063862E-02  0.65530580711E+01  0.65531390787E+01  0.30000000069E-01 0.  0.
     -611    1    3    3    0    0  0.12973261824E-01 -0.12946846060E-01  0.60812166237E+01  0.60812442651E+01  0.51109989000E-03 0.  1.
      611    1    3    3    0    0 -0.18191629870E-02  0.68405396734E-02  0.47184144744E+00  0.47189481358E+00  0.51109989000E-03 0. -1.
       11    1    1    2    0    0 -0.22767496928E-02 -0.49096221991E-02  0.46543979116E-01  0.46860337113E-01  0.51109989000E-03 0.  1.
     -623    1    1    2    0    0 -0.88773491432E-02  0.11015928584E-01  0.39793066317E-03  0.17124000058E+03  0.17124000000E+03 0. -1.
</event>
<event>
 7   1  0.1356560E+02  0.9118800E+02  0.7818608E-02  0.1180000E+00
       11   -1    0    0    0    0  0.00000000000E+00  0.00000000000E+00  0.65999999802E+01  0.66000000000E+01  0.51109989000E-03 0. -1.
     -623   -1    0    0    0    0  0.00000000000E+00  0.00000000000E+00  0.75637274222E-11  0.17124000000E+03  0.17124000000E+03 0. -1.
      622    2    1    2    0    0 -0.56285736685E-04 -0.59860768214E-03  0.65369923932E+01  0.65370612595E+01  0.30000000221E-01 0.  0.
     -611    1    3    3    0    0 -0.10459568312E-01  0.89118977452E-02  0.20176923772E+01  0.20177392335E+01  0.51109989000E-03 0.  1.
      611    1    3    3    0    0  0.10403282576E-01 -0.95105054274E-02  0.45193000161E+01  0.45193220260E+01  0.51109989000E-03 0. -1.
       11    1    1    2    0    0 -0.13019244156E-03  0.52566255584E-03  0.62934340381E-01  0.62938745566E-01  0.51109989000E-03 0. -1.
     -623    1    1    2    0    0  0.18647817810E-03  0.72945126244E-04  0.73251821862E-04  0.17124000000E+03  0.17124000000E+03 0. -1.
</event>
<event>
 7   1  0.1356560E+02  0.9118800E+02  0.7818608E-02  0.1180000E+00
       11   -1    0    0    0    0  0.00000000000E+00  0.00000000000E+00  0.65999999802E+01  0.66000000000E+01  0.51109989000E-03 0. -1.
     -623   -1    0    0    0    0  0.00000000000E+00  0.00000000000E+00  0.75637274222E-11  0.17124000000E+03  0.17124000000E+03 0.  1.
      622    2    1    2    0    0  0.92695328805E-02  0.17786467303E-01  0.46850399487E+01  0.46851789297E+01  0.29999999383E-01 0.  0.
     -611    1    3    3    0    0  0.12748761488E-01  0.23527701988E-01  0.28246736915E+01  0.28248004900E+01  0.51109989000E-03 0. -1.
      611    1    3    3    0    0 -0.34792286076E-02 -0.57412346855E-02  0.18603662571E+01  0.18603784397E+01  0.51109989000E-03 0.  1.
       11    1    1    2    0    0 -0.87912867005E-02 -0.17196216142E-01  0.19147236006E+01  0.19148210685E+01  0.51109989000E-03 0. -1.
     -623    1    1    2    0    0 -0.47824617996E-03 -0.59025116068E-03  0.23643102192E-03  0.17124000000E+03  0.17124000000E+03 0.  1.
</event>
<event>
 7   1  0.1356560E+02  0.9118800E+02  0.7818608E-02  0.1180000E+00
       11   -1    0    0    0    0  0.00000000000E+00  0.00000000000E+00  0.65999999802E+01  0.66000000000E+01  0.51109989000E-03 0.  1.
     -623   -1    0    0    0    0  0.00000000000E+00  0.00000000000E+00  0.75637274222E-11  0.17124000000E+03  0.17124000000E+03 0. -1.
      622    2    1    2    0    0 -0.12699572335E-01  0.51341038716E-02  0.37309502419E+01  0.37310959979E+01  0.29999996050E-01 0.  0.
     -611    1    3    3    0    0 -0.18107624122E-02 -0.85835555813E-02  0.38658686375E+00  0.38668672169E+00  0.51109989000E-03 0.  1.
      611    1    3    3    0    0 -0.10888809922E-01  0.13717659453E-01  0.33443633781E+01  0.33444092762E+01  0.51109989000E-03 0. -1.
       11    1    1    2    0    0  0.10709328662E-01 -0.83878077977E-02  0.28688716672E+01  0.28689039630E+01  0.51109989000E-03 0.  1.
     -623    1    1    2    0    0  0.19902436712E-02  0.32537039244E-02  0.17807461253E-03  0.17124000004E+03  0.17124000000E+03 0. -1.
</event>
<event>
 7   1  0.1356560E+02  0.9118800E+02  0.7818608E-02  0.1180000E+00
       11   -1    0    0    0    0  0.00000000000E+00  0.00000000000E+00  0.65999999802E+01  0.66000000000E+01  0.51109989000E-03 0.  1.
     -623   -1    0    0    0    0  0.00000000000E+00  0.00000000000E+00  0.75637274222E-11  0.17124000000E+03  0.17124000000E+03 0.  1.
      622    2    1    2    0    0  0.12118622359E-01 -0.20908164823E-01  0.56439311742E+01  0.56440626424E+01  0.30000000135E-01 0.  0.
     -611    1    3    3    0    0 -0.71219592544E-03 -0.11653984794E-01  0.64162684896E+00  0.64173327568E+00  0.51109989000E-03 0. -1.
      611    1    3    3    0    0  0.12830818284E-01 -0.92541800288E-02  0.50023043253E+01  0.50023293668E+01  0.51109989000E-03 0.  1.
       11    1    1    2    0    0 -0.22348109538E-01  0.16212386094E-01  0.95553805901E+00  0.95593698689E+00  0.51109989000E-03 0.  1.
     -623    1    1    2    0    0  0.10229487179E-01  0.46957787289E-02  0.53074705979E-03  0.17124000037E+03  0.17124000000E+03 0.  1.
</event>
<event>
 7   1  0.1356560E+02  0.9118800E+02  0.7818608E-02  0.1180000E+00
       11   -1    0    0    0    0  0.00000000000E+00  0.00000000000E+00  0.65999999802E+01  0.66000000000E+01  0.51109989000E-03 0.  1.
     -623   -1    0    0    0    0  0.00000000000E+00  0.00000000000E+00  0.75637274222E-11  0.17124000000E+03  0.17124000000E+03 0. -1.
      622    2    1    2    0    0  0.13749555527E-03 -0.27875925424E-02  0.65908292424E+01  0.65908981096E+01  0.29999999884E-01 0.  0.
     -611    1    3    3    0    0 -0.43575435956E-02  0.89315467457E-02  0.52639102446E+01  0.52639196504E+01  0.51109989000E-03 0.  1.
      611    1    3    3    0    0  0.44950391508E-02 -0.11719139288E-01  0.13269189977E+01  0.13269784593E+01  0.51109989000E-03 0. -1.
       11    1    1    2    0    0 -0.23318285182E-03  0.14635415119E-02  0.89658680464E-02  0.91018866683E-02  0.51109989000E-03 0. -1.
     -623    1    1    2    0    0  0.95687296528E-04  0.13240510301E-02  0.20487137762E-03  0.17124000001E+03  0.17124000000E+03 0. -1.
</event>
<event>
 7   1  0.1356560E+02  0.9118800E+02  0.7818608E-02  0.1180000E+00
       11   -1    0    0    0    0  0.00000000000E+00  0.00000000000E+00  0.65999999802E+01  0.66000000000E+01  0.51109989000E-03 0. -1.
     -623   -1    0    0    0    0  0.00000000000E+00  0.00000000000E+00  0.75637274222E-11  0.17124000000E+03  0.17124000000E+03 0.  1.
      622    2    1    2    0    0  0.35951562908E-03 -0.13752295388E-02  0.65549553891E+01  0.65550241932E+01  0.30000000016E-01 0.  0.
     -611    1    3    3    0    0  0.11104422960E-02 -0.18834213114E-02  0.65470724158E+01  0.65470728009E+01  0.51109989000E-03 0. -1.
      611    1    3    3    0    0 -0.75092666688E-03  0.50819177256E-03  0.78829732551E-02  0.79513923419E-02  0.51109989000E-03 0. -1.
       11    1    1    2    0    0  0.29125998824E-02  0.28349941150E-02  0.44788818438E-01  0.44975770253E-01  0.51109989000E-03 0. -1.
     -623    1    1    2    0    0 -0.32721155109E-02 -0.14597645760E-02  0.25577382116E-03  0.17124000004E+03  0.17124000000E+03 0.  1.
</event>
<event>
 7   1  0.1356560E+02  0.9118800E+02  0.7818608E-02  0.1180000E+00
       11   -1    0    0    0    0  0.00000000000E+00  0.00000000000E+00  0.65999999802E+01  0.66000000000E+01  0.51109989000E-03 0. -1.
     -623   -1    0    0    0    0  0.00000000000E+00  0.00000000000E+00  0.75637274222E-11  0.17124000000E+03  0.17124000000E+03 0.  1.
      622    2    1    2    0    0 -0.11241059449E-02  0.59632019400E-03  0.65548282524E+01  0.65548970272E+01  0.29999999581E-01 0.  0.
     -611    1    3    3    0    0  0.29961117738E-02 -0.89618515253E-02  0.75358909763E+00  0.75364851274E+00  0.51109989000E-03 0.  1.
      611    1    3    3    0    0 -0.41202177186E-02  0.95581717193E-02  0.58012391548E+01  0.58012485145E+01  0.51109989000E-03 0. -1.
       11    1    1    2    0    0  0.96281020941E-03 -0.58168867479E-03  0.45086046806E-01  0.45102973348E-01  0.51109989000E-03 0. -1.
     -623    1    1    2    0    0  0.16129573546E-03 -0.14631519211E-04  0.85681693465E-04  0.17124000000E+03  0.17124000000E+03 0.  1.
</event>
<event>
 7   1  0.1356560E+02  0.9118800E+02  0.7818608E-02  0.1180000E+00
       11   -1    0    0    0    0  0.00000000000E+00  0.00000000000E+00  0.65999999802E+01  0.66000000000E+01  0.51109989000E-03 0.  1.
     -623   -1    0    0    0    0  0.00000000000E+00  0.00000000000E+00  0.75637274222E-11  0.17124000000E+03  0.17124000000E+03 0. -1.
      622    2    1    2    0    0 -0.30723036260E-02 -0.36617965576E-02  0.51526279995E+01  0.51527175499E+01  0.29999999244E-01 0.  0.
     -611    1    3    3    0    0  0.87954065641E-03  0.13060837468E-01  0.20371382034E+01  0.20371803259E+01  0.51109989000E-03 0.  1.
      611    1    3    3    0    0 -0.39518442824E-02 -0.16722634026E-01  0.31154897960E+01  0.31155372239E+01  0.51109989000E-03 0. -1.
       11    1    1    2    0    0  0.30785452720E-02  0.39369358221E-02  0.14472737345E+01  0.14472824537E+01  0.51109989000E-03 0.  1.
     -623    1    1    2    0    0 -0.62416459807E-05 -0.27513926434E-03  0.98250031869E-04  0.17124000000E+03  0.17124000000E+03 0. -1.
</event>
<event>
 7   1  0.1356560E+02  0.9118800E+02  0.7818608E-02  0.1180000E+00
       11   -1    0    0    0    0  0.00000000000E+00  0.00000000000E+00  0.65999999802E+01  0.66000000000E+01  0.51109989000E-03 0.  1.
     -623   -1    0    0    0    0  0.00000000000E+00  0.00000000000E+00  0.75637274222E-11  0.17124000000E+03  0.17124000000E+03 0.  1.
      622    2    1    2    0    0  0.13763437701E-02  0.28701623756E-03  0.65924670548E+01  0.65925354641E+01  0.30000000420E-01 0.  0.
     -611    1    3    3    0    0  0.86960362064E-02 -0.60396124535E-02  0.93451610252E+00  0.93457621682E+00  0.51109989000E-03 0. -1.
      611    1    3    3    0    0 -0.73196924363E-02  0.63266286910E-02  0.56579509523E+01  0.56579592472E+01  0.51109989000E-03 0.  1.
       11    1    1    2    0    0 -0.39707197586E-03  0.10797652481E-03  0.74356394307E-02  0.74645349436E-02  0.51109989000E-03 0. -1.
     -623    1    1    2    0    0 -0.97927179389E-03 -0.39499276224E-03  0.97288309207E-04  0.17124000000E+03  0.17124000000E+03 0.  1.
</event>
<event>
 7   1  0.1356560E+02  0.9118800E+02  0.7818608E-02  0.1180000E+00
       11   -1    0    0    0    0  0.00000000000E+00  0.00000000000E+00  0.65999999802E+01  0.66000000000E+01  0.51109989000E-03 0.  1.
     -623   -1    0    0    0    0  0.00000000000E+00  0.00000000000E+00  0.75637274222E-11  0.17124000000E+03  0.17124000000E+03 0. -1.
      622    2    1    2    0    0  0.56781217646E-03  0.38429863363E-02  0.64827235064E+01  0.64827940852E+01  0.29999999805E-01 0.  0.
     -611    1    3    3    0    0  0.35750756256E-02 -0.12037400312E-01  0.38794215324E+01  0.38794418887E+01  0.51109989000E-03 0.  1.
      611    1    3    3    0    0 -0.30072634492E-02  0.15880386648E-01  0.26033019740E+01  0.26033521966E+01  0.51109989000E-03 0. -1.
       11    1    1    2    0    0  0.63608941915E-02 -0.61383462945E-02  0.11687081965E+00  0.11720575915E+00  0.51109989000E-03 0.  1.
     -623    1    1    2    0    0 -0.69287063676E-02  0.22953599580E-02  0.40565458199E-03  0.17124000016E+03  0.17124000000E+03 0. -1.
</event>
<event>
 7   1  0.1356560E+02  0.9118800E+02  0.7818608E-02  0.1180000E+00
       11   -1    0    0    0    0  0.00000000000E+00  0.00000000000E+00  0.65999999802E+01  0.66000000000E+01  0.51109989000E-03 0. -1.
     -623   -1    0    0    0    0  0.00000000000E+00  0.00000000000E+00  0.75637274222E-11  0.17124000000E+03  0.17124000000E+03 0.  1.
      622    2    1    2    0    0 -0.44660401362E-02  0.14407538305E-02  0.60688074553E+01  0.60688834188E+01  0.30000002789E-01 0.  0.
     -611    1    3    3    0    0 -0.12283790031E-01  0.85076577337E-02  0.50334751296E+01  0.50334973342E+01  0.51109989000E-03 0. -1.
      611    1    3    3    0    0  0.78177498943E-02 -0.70669039031E-02  0.10353323257E+01  0.10353860846E+01  0.51109989000E-03 0.  1.
       11    1    1    2    0    0  0.39585992874E-02 -0.19415921815E-02  0.53109803068E+00  0.53111657826E+00  0.51109989000E-03 0. -1.
     -623    1    1    2    0    0  0.50744084886E-03  0.50083835106E-03  0.94492807334E-04  0.17124000000E+03  0.17124000000E+03 0.  1.
</event>
<event>
 7   1  0.1356560E+02  0.9118800E+02  0.7818608E-02  0.1180000E+00
       11   -1    0    0    0    0  0.00000000000E+00  0.00000000000E+00  0.65999999802E+01  0.66000000000E+01  0.51109989000E-03 0.  1.
     -623   -1    0    0    0    0  0.00000000000E+00  0.00000000000E+00  0.75637274222E-11  0.17124000000E+03  0.17124000000E+03 0. -1.
      622    2    1    2    0    0 -0.96372654307E-02 -0.21494466366E-01  0.64042619877E+01  0.64043755743E+01  0.29999999923E-01 0.  0.
     -611    1    3    3    0    0 -0.17802030291E-01 -0.71136376100E-02  0.45290145962E+01  0.45290551984E+01  0.51109989000E-03 0. -1.
      611    1    3    3    0    0  0.81647648605E-02 -0.14380828756E-01  0.18752473915E+01  0.18753203759E+01  0.51109989000E-03 0.  1.
       11    1    1    2    0    0  0.59475760101E-02  0.13632089032E-01  0.19505732654E+00  0.19562420446E+00  0.51109989000E-03 0.  1.
     -623    1    1    2    0    0  0.36896894205E-02  0.78623773338E-02  0.68066629373E-03  0.17124000022E+03  0.17124000000E+03 0. -1.
</event>
<event>
 7   1  0.1356560E+02  0.9118800E+02  0.7818608E-02  0.1180000E+00
       11   -1    0    0    0    0  0.00000000000E+00  0.00000000000E+00  0.65999999802E+01  0.66000000000E+01  0.51109989000E-03 0.  1.
     -623   -1    0    0    0    0  0.00000000000E+00  0.00000000000E+00  0.75637274222E-11  0.17124000000E+03  0.17124000000E+03 0. -1.
      622    2    1    2    0    0  0.19458554428E-02  0.50645107913E-02  0.63645393044E+01  0.63646123207E+01  0.30000001733E-01 0.  0.
     -611    1    3    3    0    0  0.56290683700E-02 -0.11599092754E-01  0.21799080308E+01  0.21799462171E+01  0.51109989000E-03 0. -1.
      611    1    3    3    0    0 -0.36832129272E-02  0.16663603545E-01  0.41846312736E+01  0.41846661036E+01  0.51109989000E-03 0.  1.
       11    1    1    2    0    0 -0.90958958684E-02 -0.56138849960E-02  0.23514416076E+00  0.23538752854E+00  0.51109989000E-03 0.  1.
     -623    1    1    2    0    0  0.71500404260E-02  0.54937420476E-03  0.31651475198E-03  0.17124000015E+03  0.17124000000E+03 0. -1.
</event>
<event>
 7   1  0.1356560E+02  0.9118800E+02  0.7818608E-02  0.1180000E+00
       11   -1    0    0    0    0  0.00000000000E+00  0.00000000000E+00  0.65999999802E+01  0.66000000000E+01  0.51109989000E-03 0. -1.
     -623   -1    0    0    0    0  0.00000000000E+00  0.00000000000E+00  0.75637274222E-11  0.17124000000E+03  0.17124000000E+03 0. -1.
      622    2    1    2    0    0  0.63584736971E-03  0.47094478974E-03  0.65958341022E+01  0.65959023742E+01  0.30000000478E-01 0.  0.
     -611    1    3    3    0    0 -0.12271837699E-01  0.27162351364E-02  0.15434781275E+01  0.15435293866E+01  0.51109989000E-03 0.  1.
      611    1    3    3    0    0  0.12907685068E-01 -0.22452903466E-02  0.50523559747E+01  0.50523729876E+01  0.51109989000E-03 0. -1.
       11    1    1    2    0    0 -0.60883426747E-03 -0.28125820227E-03  0.40099304012E-02  0.40976273942E-02  0.51109989000E-03 0. -1.
     -623    1    1    2    0    0 -0.27013102236E-04 -0.18968658742E-03  0.15594938068E-03  0.17124000000E+03  0.17124000000E+03 0. -1.
</event>
<event>
 7   1  0.1356560E+02  0.9118800E+02  0.7818608E-02  0.1180000E+00
       11   -1    0    0    0    0  0.00000000000E+00  0.00000000000E+00  0.65999999802E+01  0.66000000000E+01  0.51109989000E-03 0.  1.
     -623   -1    0    0    0    0  0.00000000000E+00  0.00000000000E+00  0.75637274222E-11  0.17124000000E+03  0.17124000000E+03 0. -1.
      622    2    1    2    0    0  0.19175688902E-03 -0.32485325108E-03  0.65144260929E+01  0.65144951809E+01  0.29999999887E-01 0.  0.
     -611    1    3    3    0    0  0.11914854986E-01 -0.91529374809E-02  0.37424439049E+01  0.37424740992E+01  0.51109989000E-03 0. -1.
      611    1    3    3    0    0 -0.11723098097E-01  0.88280842298E-02  0.27719821880E+01  0.27720210817E+01  0.51109989000E-03 0.  1.
       11    1    1    2    0    0  0.83071512894E-03  0.73820342112E-03  0.85496069668E-01  0.85504819651E-01  0.51109989000E-03 0.  1.
     -623    1    1    2    0    0 -0.10224720173E-02 -0.41335016977E-03  0.77821784886E-04  0.17124000000E+03  0.17124000000E+03 0. -1.
</event>
<event>
 7   1  0.1356560E+02  0.9118800E+02  0.7818608E-02  0.1180000E+00
       11   -1    0    0    0    0  0.00000000000E+00  0.00000000000E+00  0.65999999802E+01  0.66000000000E+01  0.51109989000E-03 0.  1.
     -623   -1    0    0    0    0  0.00000000000E+00  0.00000000000E+00  0.75637274222E-11  0.17124000000E+03  0.17124000000E+03 0. -1.
      622    2    1    2    0    0 -0.11801421923E-02  0.31092869094E-04  0.65375089164E+01  0.65375778561E+01  0.30000000080E-01 0.  0.
     -611    1    3    3    0    0 -0.91692624065E-02 -0.66847067782E-02  0.10950746202E+01  0.10951335287E+01  0.51109989000E-03 0. -1.
      611    1    3    3    0    0  0.79891202142E-02  0.67157996473E-02  0.54424342962E+01  0.54424443275E+01  0.51109989000E-03 0.  1.
       11    1    1    2    0    0 -0.19090170441E-02 -0.26431146215E-02  0.62334791724E-01  0.62422094512E-01  0.51109989000E-03 0.  1.
     -623    1    1    2    0    0  0.30891592371E-02  0.26120217530E-02  0.15627065134E-03  0.17124000005E+03  0.17124000000E+03 0. -1.
</event>
<event>
 7   1  0.1356560E+02  0.9118800E+02  0.7818608E-02  0.1180000E+00
       11   -1    0    0    0    0  0.00000000000E+00  0.00000000000E+00  0.65999999802E+01  0.66000000000E+01  0.51109989000E-03 0.  1.
     -623   -1    0    0    0    0  0.00000000000E+00  0.00000000000E+00  0.75637274222E-11  0.17124000000E+03  0.17124000000E+03 0.  1.
      622    2    1    2    0    0 -0.33870647615E-01 -0.18292287592E-01  0.45033135992E+01  0.45035780444E+01  0.30000000438E-01 0.  0.
     -611    1    3    3    0    0 -0.34404151888E-02  0.74251699481E-02  0.51313607580E+00  0.51320158136E+00  0.51109989000E-03 0.  1.
      611    1    3    3    0    0 -0.30430232426E-01 -0.25717457540E-01  0.39901775234E+01  0.39903764630E+01  0.51109989000E-03 0. -1.
       11    1    1    2    0    0  0.28590389623E-01  0.16663580607E-01  0.20961606075E+01  0.20964218657E+01  0.51109989000E-03 0.  1.
     -623    1    1    2    0    0  0.52802579915E-02  0.16287069850E-02  0.52577349762E-03  0.17124000009E+03  0.17124000000E+03 0.  1.
</event>
<event>
 7   1  0.1356560E+02  0.9118800E+02  0.7818608E-02  0.1180000E+00
       11   -1    0    0    0    0  0.00000000000E+00  0.00000000000E+00  0.65999999802E+01  0.66000000000E+01  0.51109989000E-03 0. -1.
     -623   -1    0    0    0    0  0.00000000000E+00  0.00000000000E+00  0.75637274222E-11  0.17124000000E+03  0.17124000000E+03 0.  1.
      622    2    1    2    0    0  0.10848457728E-03  0.44169743904E-04  0.65918462803E+01  0.65919145472E+01  0.30000004390E-01 0.  0.
     -611    1    3    3    0    0 -0.24443856637E-02  0.13647279490E-01  0.20389739739E+01  0.20390211747E+01  0.51109989000E-03 0.  1.
      611    1    3    3    0    0  0.25528702410E-02 -0.13603109746E-01  0.45528723064E+01  0.45528933725E+01  0.51109989000E-03 0. -1.
       11    1    1    2    0    0 -0.30341874816E-03 -0.29462584610E-04  0.80635188547E-02  0.80854493010E-02  0.51109989000E-03 0. -1.
     -623    1    1    2    0    0  0.19493417097E-03 -0.14707159301E-04  0.90177661899E-04  0.17124000000E+03  0.17124000000E+03 0.  1.
</event>
<event>
 7   1  0.1356560E+02  0.9118800E+02  0.7818608E-02  0.1180000E+00
       11   -1    0    0    0    0  0.00000000000E+00  0.00000000000E+00  0.65999999802E+01  0.66000000000E+01  0.51109989000E-03 0.  1.
     -623   -1    0    0    0    0  0.00000000000E+00  0.00000000000E+00  0.75637274222E-11  0.17124000000E+03  0.17124000000E+03 0. -1.
      622    2    1    2    0    0 -0.10171101055E-02  0.17461362754E-02  0.63596801260E+01  0.63597512049E+01  0.30000000489E-01 0.  0.
     -611    1    3    3    0    0 -0.13937145647E-01  0.82970128667E-03  0.46881542415E+01  0.46881750592E+01  0.51109989000E-03 0.  1.
      611    1    3    3    0    0  0.12920035541E-01  0.91643498873E-03  0.16715258845E+01  0.16715761457E+01  0.51109989000E-03 0. -1.
       11    1    1    2    0    0  0.65571283355E-02  0.42261162923E-02  0.24012137253E+00  0.24024860200E+00  0.51109989000E-03 0.  1.
     -623    1    1    2    0    0 -0.55400182293E-02 -0.59722525670E-02  0.19848248559E-03  0.17124000019E+03  0.17124000000E+03 0. -1.
</event>
<event>
 7   1  0.1356560E+02  0.9118800E+02  0.7818608E-02  0.1180000E+00
       11   -1    0    0    0    0  0.00000000000E+00  0.00000000000E+00  0.65999999802E+01  0.66000000000E+01  0.51109989000E-03 0.  1.
     -623   -1    0    0    0    0  0.00000000000E+00  0.00000000000E+00  0.75637274222E-11  0.17124000000E+03  0.17124000000E+03 0. -1.
      622    2    1    2    0    0  0.36549820921E-02  0.12684799229E-02  0.64102904726E+01  0.64103618393E+01  0.30000000149E-01 0.  0.
     -611    1    3    3    0    0  0.32234077548E-02  0.30777185105E-04  0.74760431872E-01  0.74831642382E-01  0.51109989000E-03 0. -1.
      611    1    3    3    0    0  0.43157433729E-03  0.12377027378E-02  0.63355300407E+01  0.63355301969E+01  0.51109989000E-03 0.  1.
       11    1    1    2    0    0 -0.11106004326E-02  0.98601879521E-03  0.18963162489E+00  0.18963812920E+00  0.51109989000E-03 0.  1.
     -623    1    1    2    0    0 -0.25443816586E-02 -0.22544987173E-02  0.77885016715E-04  0.17124000003E+03  0.17124000000E+03 0. -1.
</event>
<event>
 7   1  0.1356560E+02  0.9118800E+02  0.7818608E-02  0.1180000E+00
       11   -1    0    0    0    0  0.00000000000E+00  0.00000000000E+00  0.65999999802E+01  0.66000000000E+01  0.51109989000E-03 0.  1.
     -623   -1    0    0    0    0  0.00000000000E+00  0.00000000000E+00  0.75637274222E-11  0.17124000000E+03  0.17124000000E+03 0.  1.
      622    2    1    2    0    0  0.24168715268E-02 -0.25106162486E-02  0.65301671465E+01  0.65302369870E+01  0.29999999289E-01 0.  0.
     -611    1    3    3    0    0 -0.11709310926E-01 -0.61194313424E-02  0.44009754467E+01  0.44009953078E+01  0.51109989000E-03 0.  1.
      611    1    3    3    0    0  0.14126182452E-01  0.36088150937E-02  0.21291916998E+01  0.21292416792E+01  0.51109989000E-03 0. -1.
       11    1    1    2    0    0 -0.26025224474E-02  0.23720568825E-02  0.69672209565E-01  0.69763011587E-01  0.51109989000E-03 0.  1.
     -623    1    1    2    0    0  0.18565092061E-03  0.13855936609E-03  0.16062291599E-03  0.17124000000E+03  0.17124000000E+03 0.  1.
</event>
