<event>
 6   3  0.2312675E+03  0.9118800E+02  0.7818608E-02  0.1180000E+00
       11   -1    0    0    0    0  0.00000000000E+00  0.00000000000E+00  0.54999999763E+01  0.55000000000E+01  0.51109989000E-03 0. -1.
     -623   -1    0    0    0    0  0.00000000000E+00  0.00000000000E+00  0.93234578044E-11  0.17124000000E+03  0.17124000000E+03 0. -1.
       11    1    1    2    0    0  0.12542653277E-01 -0.86515841966E-02  0.14008812266E+00  0.14091526316E+00  0.51109989000E-03 0. -1.
     -623    1    1    2    0    0 -0.15981615591E-01  0.92489372360E-02  0.12793935638E-02  0.17124000100E+03  0.17124000000E+03 0. -1.
     -611    1    1    2    0    0 -0.31443500942E-01  0.83274270477E-02  0.30005276140E+01  0.30007039613E+01  0.51109989000E-03 0. -1.
      611    1    1    2    0    0  0.34882463256E-01 -0.89247800870E-02  0.23581048460E+01  0.23583797752E+01  0.51109989000E-03 0.  1.
</event>
<event>
 6   3  0.2312675E+03  0.9118800E+02  0.7818608E-02  0.1180000E+00
       11   -1    0    0    0    0  0.00000000000E+00  0.00000000000E+00  0.54999999763E+01  0.55000000000E+01  0.51109989000E-03 0.  1.
     -623   -1    0    0    0    0  0.00000000000E+00  0.00000000000E+00  0.93234578044E-11  0.17124000000E+03  0.17124000000E+03 0. -1.
       11    1    1    2    0    0 -0.18217409534E-01  0.80429879941E-02  0.75852472403E+00  0.75878625571E+00  0.51109989000E-03 0.  1.
     -623    1    1    2    0    0  0.26117643735E-02  0.25920964987E-02  0.18098793566E-02  0.17124000005E+03  0.17124000000E+03 0. -1.
     -611    1    1    2    0    0 -0.28772115591E-01  0.39670509866E-01  0.27017946963E+01  0.27022391504E+01  0.51109989000E-03 0.  1.
      611    1    1    2    0    0  0.44377760752E-01 -0.50305594359E-01  0.20378706766E+01  0.20389745448E+01  0.51109989000E-03 0. -1.
</event>
<event>
 6   3  0.2312675E+03  0.9118800E+02  0.7818608E-02  0.1180000E+00
       11   -1    0    0    0    0  0.00000000000E+00  0.00000000000E+00  0.54999999763E+01  0.55000000000E+01  0.51109989000E-03 0. -1.
     -623   -1    0    0    0    0  0.00000000000E+00  0.00000000000E+00  0.93234578044E-11  0.17124000000E+03  0.17124000000E+03 0. -1.
       11    1    1    2    0    0  0.96258345431E-02 -0.47238292139E-02  0.10275582640E+01  0.10276143335E+01  0.51109989000E-03 0. -1.
     -623    1    1    2    0    0 -0.63466969774E-01  0.65725206222E-02  0.39298689087E-03  0.17124001189E+03  0.17124000000E+03 0. -1.
     -611    1    1    2    0    0  0.27810614118E-01 -0.60973080242E-03  0.22301457287E+01  0.22303192674E+01  0.51109989000E-03 0. -1.
      611    1    1    2    0    0  0.26030521178E-01 -0.12389606145E-02  0.22419030024E+01  0.22420545168E+01  0.51109989000E-03 0.  1.
</event>
<event>
 6   3  0.2312675E+03  0.9118800E+02  0.7818608E-02  0.1180000E+00
       11   -1    0    0    0    0  0.00000000000E+00  0.00000000000E+00  0.54999999763E+01  0.55000000000E+01  0.51109989000E-03 0. -1.
     -623   -1    0    0    0    0  0.00000000000E+00  0.00000000000E+00  0.93234578044E-11  0.17124000000E+03  0.17124000000E+03 0. -1.
       11    1    1    2    0    0 -0.24507528723E-03  0.12205860028E-03  0.69584503406E-03  0.90575030074E-03  0.51109989000E-03 0.  1.
     -623    1    1    2    0    0  0.14777595564E-03  0.10149046287E-02  0.91195851089E-03  0.17124000001E+03  0.17124000000E+03 0. -1.
     -611    1    1    2    0    0 -0.37603542511E-01 -0.23184805011E-01  0.28111402832E+01  0.28114874203E+01  0.51109989000E-03 0. -1.
      611    1    1    2    0    0  0.37700841842E-01  0.22047841782E-01  0.26872518896E+01  0.26876068240E+01  0.51109989000E-03 0.  1.
</event>
<event>
 6   3  0.2312675E+03  0.9118800E+02  0.7818608E-02  0.1180000E+00
       11   -1    0    0    0    0  0.00000000000E+00  0.00000000000E+00  0.54999999763E+01  0.55000000000E+01  0.51109989000E-03 0.  1.
     -623   -1    0    0    0    0  0.00000000000E+00  0.00000000000E+00  0.93234578044E-11  0.17124000000E+03  0.17124000000E+03 0. -1.
       11    1    1    2    0    0  0.10912461206E-01 -0.73085928223E-02  0.39966329082E+00  0.39987936255E+00  0.51109989000E-03 0.  1.
     -623    1    1    2    0    0 -0.25058537869E-02  0.11453172650E-01  0.70131964828E-03  0.17124000040E+03  0.17124000000E+03 0. -1.
     -611    1    1    2    0    0  0.29925332477E-01 -0.29955974009E-02  0.16743497605E+01  0.16746199214E+01  0.51109989000E-03 0. -1.
      611    1    1    2    0    0 -0.38331939896E-01 -0.11489824267E-02  0.34252856053E+01  0.34255003134E+01  0.51109989000E-03 0.  1.
</event>
<event>
 6   3  0.2312675E+03  0.9118800E+02  0.7818608E-02  0.1180000E+00
       11   -1    0    0    0    0  0.00000000000E+00  0.00000000000E+00  0.54999999763E+01  0.55000000000E+01  0.51109989000E-03 0.  1.
     -623   -1    0    0    0    0  0.00000000000E+00  0.00000000000E+00  0.93234578044E-11  0.17124000000E+03  0.17124000000E+03 0.  1.
       11    1    1    2    0    0  0.77938880539E-02  0.83342198291E-02  0.61643707638E-01  0.62692996624E-01  0.51109989000E-03 0.  1.
     -623    1    1    2    0    0 -0.63841345906E-01  0.22273175135E-01  0.14383439523E-02  0.17124001336E+03  0.17124000000E+03 0.  1.
     -611    1    1    2    0    0  0.18327900941E-01 -0.88681418171E-02  0.17855804740E+01  0.17856966277E+01  0.51109989000E-03 0.  1.
      611    1    1    2    0    0  0.37719556900E-01 -0.21739253141E-01  0.36513374496E+01  0.36515970194E+01  0.51109989000E-03 0.  1.
</event>
<event>
 6   3  0.2312675E+03  0.9118800E+02  0.7818608E-02  0.1180000E+00
       11   -1    0    0    0    0  0.00000000000E+00  0.00000000000E+00  0.54999999763E+01  0.55000000000E+01  0.51109989000E-03 0.  1.
     -623   -1    0    0    0    0  0.00000000000E+00  0.00000000000E+00  0.93234578044E-11  0.17124000000E+03  0.17124000000E+03 0.  1.
       11    1    1    2    0    0 -0.22483560643E-02  0.53454410451E-04  0.13942429383E+00  0.13944336806E+00  0.51109989000E-03 0.  1.
     -623    1    1    2    0    0  0.67547422307E-01 -0.27206845961E-01  0.50121738578E-03  0.17124001548E+03  0.17124000000E+03 0.  1.
     -611    1    1    2    0    0 -0.32518182717E-01  0.13998615191E-01  0.26895692727E+01  0.26898023212E+01  0.51109989000E-03 0.  1.
      611    1    1    2    0    0 -0.32780883926E-01  0.13154776522E-01  0.26705052250E+01  0.26707388589E+01  0.51109989000E-03 0.  1.
</event>
<event>
 6   3  0.2312675E+03  0.9118800E+02  0.7818608E-02  0.1180000E+00
       11   -1    0    0    0    0  0.00000000000E+00  0.00000000000E+00  0.54999999763E+01  0.55000000000E+01  0.51109989000E-03 0. -1.
     -623   -1    0    0    0    0  0.00000000000E+00  0.00000000000E+00  0.93234578044E-11  0.17124000000E+03  0.17124000000E+03 0. -1.
       11    1    1    2    0    0  0.11967633204E-01  0.32494349402E-01  0.59111617706E+00  0.59212980249E+00  0.51109989000E-03 0. -1.
     -623    1    1    2    0    0  0.41070725708E-01 -0.28940576844E-01  0.13218773400E-02  0.17124000738E+03  0.17124000000E+03 0. -1.
     -611    1    1    2    0    0 -0.13542461329E-01  0.25617537969E-02  0.97015514098E+00  0.97025317295E+00  0.51109989000E-03 0.  1.
      611    1    1    2    0    0 -0.39495897583E-01 -0.61155263534E-02  0.39374067810E+01  0.39376096487E+01  0.51109989000E-03 0. -1.
</event>
<event>
 6   3  0.2312675E+03  0.9118800E+02  0.7818608E-02  0.1180000E+00
       11   -1    0    0    0    0  0.00000000000E+00  0.00000000000E+00  0.54999999763E+01  0.55000000000E+01  0.51109989000E-03 0. -1.
     -623   -1    0    0    0    0  0.00000000000E+00  0.00000000000E+00  0.93234578044E-11  0.17124000000E+03  0.17124000000E+03 0.  1.
       11    1    1    2    0    0 -0.37829981341E-01 -0.59616952465E-01  0.93467523431E+00  0.93733843587E+00  0.51109989000E-03 0. -1.
     -623    1    1    2    0    0 -0.24736043686E-01  0.87842811330E-02  0.33810690186E-02  0.17124000205E+03  0.17124000000E+03 0.  1.
     -611    1    1    2    0    0  0.14599849445E-01  0.11772795387E-01  0.12023492103E+01  0.12024955879E+01  0.51109989000E-03 0.  1.
      611    1    1    2    0    0  0.47966175584E-01  0.39059875946E-01  0.33595944628E+01  0.33601639311E+01  0.51109989000E-03 0. -1.
</event>
<event>
 6   3  0.2312675E+03  0.9118800E+02  0.7818608E-02  0.1180000E+00
       11   -1    0    0    0    0  0.00000000000E+00  0.00000000000E+00  0.54999999763E+01  0.55000000000E+01  0.51109989000E-03 0.  1.
     -623   -1    0    0    0    0  0.00000000000E+00  0.00000000000E+00  0.93234578044E-11  0.17124000000E+03  0.17124000000E+03 0. -1.
       11    1    1    2    0    0 -0.93913994779E-02  0.77406239343E-03  0.34455800919E+00  0.34468722123E+00  0.51109989000E-03 0.  1.
     -623    1    1    2    0    0  0.12704128707E+00  0.16374040199E-01  0.15491227967E-02  0.17124004792E+03  0.17124000000E+03 0. -1.
     -611    1    1    2    0    0 -0.20725977751E-01 -0.39300980810E-02  0.89457295296E+00  0.89482179299E+00  0.51109989000E-03 0. -1.
      611    1    1    2    0    0 -0.96923910207E-01 -0.13218004559E-01  0.42593199071E+01  0.42604430864E+01  0.51109989000E-03 0.  1.
</event>
<event>
 6   3  0.2312675E+03  0.9118800E+02  0.7818608E-02  0.1180000E+00
       11   -1    0    0    0    0  0.00000000000E+00  0.00000000000E+00  0.54999999763E+01  0.55000000000E+01  0.51109989000E-03 0.  1.
     -623   -1    0    0    0    0  0.00000000000E+00  0.00000000000E+00  0.93234578044E-11  0.17124000000E+03  0.17124000000E+03 0. -1.
       11    1    1    2    0    0 -0.24278521167E-01  0.13713591841E-02  0.10477680047E+00  0.10756284840E+00  0.51109989000E-03 0.  1.
     -623    1    1    2    0    0 -0.15456020837E+00  0.19320833164E-01  0.58634855316E-02  0.17124007094E+03  0.17124000000E+03 0. -1.
     -611    1    1    2    0    0  0.80749996307E-01 -0.85265655363E-02  0.24386455463E+01  0.24399970545E+01  0.51109989000E-03 0.  1.
      611    1    1    2    0    0  0.98088733221E-01 -0.12165626811E-01  0.29507141438E+01  0.29523691540E+01  0.51109989000E-03 0.  1.
</event>
<event>
 6   3  0.2312675E+03  0.9118800E+02  0.7818608E-02  0.1180000E+00
       11   -1    0    0    0    0  0.00000000000E+00  0.00000000000E+00  0.54999999763E+01  0.55000000000E+01  0.51109989000E-03 0. -1.
     -623   -1    0    0    0    0  0.00000000000E+00  0.00000000000E+00  0.93234578044E-11  0.17124000000E+03  0.17124000000E+03 0.  1.
       11    1    1    2    0    0 -0.24373594359E-02 -0.10160282338E-02  0.11826795120E+00  0.11829853144E+00  0.51109989000E-03 0. -1.
     -623    1    1    2    0    0 -0.10920904196E-02  0.17288469950E-03  0.12016556347E-02  0.17124000001E+03  0.17124000000E+03 0.  1.
     -611    1    1    2    0    0  0.43928152686E-01  0.31389084646E-01  0.37391672280E+01  0.37395570296E+01  0.51109989000E-03 0. -1.
      611    1    1    2    0    0 -0.40398702830E-01 -0.30545941112E-01  0.16413631414E+01  0.16421444311E+01  0.51109989000E-03 0.  1.
</event>
<event>
 6   3  0.2312675E+03  0.9118800E+02  0.7818608E-02  0.1180000E+00
       11   -1    0    0    0    0  0.00000000000E+00  0.00000000000E+00  0.54999999763E+01  0.55000000000E+01  0.51109989000E-03 0. -1.
     -623   -1    0    0    0    0  0.00000000000E+00  0.00000000000E+00  0.93234578044E-11  0.17124000000E+03  0.17124000000E+03 0. -1.
       11    1    1    2    0    0  0.44858529359E-02 -0.36150435499E-02  0.34139872823E-01  0.34626341936E-01  0.51109989000E-03 0. -1.
     -623    1    1    2    0    0  0.13850479103E-03  0.26896895640E-02  0.21354053119E-02  0.17124000003E+03  0.17124000000E+03 0. -1.
     -611    1    1    2    0    0  0.58768980170E-01 -0.56922921954E-02  0.15405141928E+01  0.15416453660E+01  0.51109989000E-03 0.  1.
      611    1    1    2    0    0 -0.63393337896E-01  0.66176461813E-02  0.39232105054E+01  0.39237282576E+01  0.51109989000E-03 0. -1.
</event>
<event>
 6   3  0.2312675E+03  0.9118800E+02  0.7818608E-02  0.1180000E+00
       11   -1    0    0    0    0  0.00000000000E+00  0.00000000000E+00  0.54999999763E+01  0.55000000000E+01  0.51109989000E-03 0. -1.
     -623   -1    0    0    0    0  0.00000000000E+00  0.00000000000E+00  0.93234578044E-11  0.17124000000E+03  0.17124000000E+03 0.  1.
       11    1    1    2    0    0 -0.17375659880E-01  0.23031928362E-01  0.96240770441E+00  0.96284019132E+00  0.51109989000E-03 0. -1.
     -623    1    1    2    0    0 -0.16206806367E-01 -0.21524833120E-01  0.15312211907E-02  0.17124000213E+03  0.17124000000E+03 0.  1.
     -611    1    1    2    0    0 -0.26541755693E-01  0.21829584180E-01  0.18763369621E+01  0.18766517131E+01  0.51109989000E-03 0.  1.
      611    1    1    2    0    0  0.60124221940E-01 -0.23336679423E-01  0.26597240885E+01  0.26605059690E+01  0.51109989000E-03 0. -1.
</event>
<event>
 6   3  0.2312675E+03  0.9118800E+02  0.7818608E-02  0.1180000E+00
       11   -1    0    0    0    0  0.00000000000E+00  0.00000000000E+00  0.54999999763E+01  0.55000000000E+01  0.51109989000E-03 0.  1.
     -623   -1    0    0    0    0  0.00000000000E+00  0.00000000000E+00  0.93234578044E-11  0.17124000000E+03  0.17124000000E+03 0. -1.
       11    1    1    2    0    0 -0.88982047929E-02  0.32212620852E-02  0.18562775115E+00  0.18586951821E+00  0.51109989000E-03 0.  1.
     -623    1    1    2    0    0  0.12594671608E-02  0.13855603801E-02  0.14903898698E-02  0.17124000002E+03  0.17124000000E+03 0. -1.
     -611    1    1    2    0    0  0.57891582705E-01 -0.18968359934E-01  0.33444800872E+01  0.33450349100E+01  0.51109989000E-03 0. -1.
      611    1    1    2    0    0 -0.50252845073E-01  0.14361537469E-01  0.19684017480E+01  0.19690955551E+01  0.51109989000E-03 0.  1.
</event>
<event>
 6   3  0.2312675E+03  0.9118800E+02  0.7818608E-02  0.1180000E+00
       11   -1    0    0    0    0  0.00000000000E+00  0.00000000000E+00  0.54999999763E+01  0.55000000000E+01  0.51109989000E-03 0. -1.
     -623   -1    0    0    0    0  0.00000000000E+00  0.00000000000E+00  0.93234578044E-11  0.17124000000E+03  0.17124000000E+03 0. -1.
       11    1    1    2    0    0  0.19523039742E-02  0.42815024010E-03  0.10930883798E+00  0.10932830414E+00  0.51109989000E-03 0. -1.
     -623    1    1    2    0    0 -0.70662222401E-01  0.11943062630E-01  0.48664772381E-03  0.17124001500E+03  0.17124000000E+03 0. -1.
     -611    1    1    2    0    0  0.34988221500E-01 -0.64029407976E-02  0.27417555462E+01  0.27419863073E+01  0.51109989000E-03 0. -1.
      611    1    1    2    0    0  0.33721696852E-01 -0.59682720592E-02  0.26484489385E+01  0.26486703861E+01  0.51109989000E-03 0. -1.
</event>
<event>
 6   3  0.2312675E+03  0.9118800E+02  0.7818608E-02  0.1180000E+00
       11   -1    0    0    0    0  0.00000000000E+00  0.00000000000E+00  0.54999999763E+01  0.55000000000E+01  0.51109989000E-03 0.  1.
     -623   -1    0    0    0    0  0.00000000000E+00  0.00000000000E+00  0.93234578044E-11  0.17124000000E+03  0.17124000000E+03 0. -1.
       11    1    1    2    0    0  0.86477254395E-01 -0.13843995129E-01  0.42210750244E+00  0.43109740961E+00  0.51109989000E-03 0.  1.
     -623    1    1    2    0    0  0.10654932516E-01 -0.12233693780E-02  0.99439602537E-02  0.17124000062E+03  0.17124000000E+03 0. -1.
     -611    1    1    2    0    0 -0.63631495638E-01  0.10544497480E-01  0.33358292757E+01  0.33364528127E+01  0.51109989000E-03 0.  1.
      611    1    1    2    0    0 -0.33500691355E-01  0.45228670392E-02  0.17321192421E+01  0.17324491574E+01  0.51109989000E-03 0.  1.
</event>
<event>
 6   3  0.2312675E+03  0.9118800E+02  0.7818608E-02  0.1180000E+00
       11   -1    0    0    0    0  0.00000000000E+00  0.00000000000E+00  0.54999999763E+01  0.55000000000E+01  0.51109989000E-03 0.  1.
     -623   -1    0    0    0    0  0.00000000000E+00  0.00000000000E+00  0.93234578044E-11  0.17124000000E+03  0.17124000000E+03 0.  1.
       11    1    1    2    0    0 -0.60901298441E-02  0.58143116539E-02  0.63004274173E+00  0.63009920928E+00  0.51109989000E-03 0.  1.
     -623    1    1    2    0    0  0.68034673476E-01  0.34008003761E-02  0.47285234178E-03  0.17124001355E+03  0.17124000000E+03 0.  1.
     -611    1    1    2    0    0 -0.21459375016E-01 -0.29253623627E-02  0.16734540549E+01  0.16735942751E+01  0.51109989000E-03 0.  1.
      611    1    1    2    0    0 -0.40485168728E-01 -0.62897496806E-02  0.31960303362E+01  0.31962929748E+01  0.51109989000E-03 0.  1.
</event>
<event>
 6   3  0.2312675E+03  0.9118800E+02  0.7818608E-02  0.1180000E+00
       11   -1    0    0    0    0  0.00000000000E+00  0.00000000000E+00  0.54999999763E+01  0.55000000000E+01  0.51109989000E-03 0.  1.
     -623   -1    0    0    0    0  0.00000000000E+00  0.00000000000E+00  0.93234578044E-11  0.17124000000E+03  0.17124000000E+03 0.  1.
       11    1    1    2    0    0  0.58203632945E-01 -0.78281576133E-02  0.98503355017E+00  0.98678280241E+00  0.51109989000E-03 0.  1.
     -623    1    1    2    0    0  0.13528391850E-01 -0.96956064169E-02  0.25704819189E-02  0.17124000083E+03  0.17124000000E+03 0.  1.
     -611    1    1    2    0    0 -0.64327377821E-01  0.30227548267E-01  0.38622407980E+01  0.38628947642E+01  0.51109989000E-03 0.  1.
      611    1    1    2    0    0 -0.74046469739E-02 -0.12703784237E-01  0.65015514615E+00  0.65032160522E+00  0.51109989000E-03 0. -1.
</event>
<event>
 6   3  0.2312675E+03  0.9118800E+02  0.7818608E-02  0.1180000E+00
       11   -1    0    0    0    0  0.00000000000E+00  0.00000000000E+00  0.54999999763E+01  0.55000000000E+01  0.51109989000E-03 0. -1.
     -623   -1    0    0    0    0  0.00000000000E+00  0.00000000000E+00  0.93234578044E-11  0.17124000000E+03  0.17124000000E+03 0. -1.
       11    1    1    2    0    0  0.11994150410E-02 -0.55786301885E-01  0.15543917934E+00  0.16515189909E+00  0.51109989000E-03 0. -1.
     -623    1    1    2    0    0 -0.20512510795E-01  0.76732120117E-03  0.14328672023E-01  0.17124000183E+03  0.17124000000E+03 0. -1.
     -611    1    1    2    0    0  0.76839238101E-01  0.11169074875E+00  0.27348635854E+01  0.27382217192E+01  0.51109989000E-03 0.  1.
      611    1    1    2    0    0 -0.57526142347E-01 -0.56671768068E-01  0.25953685395E+01  0.25966245519E+01  0.51109989000E-03 0. -1.
</event>
<event>
 6   3  0.2312675E+03  0.9118800E+02  0.7818608E-02  0.1180000E+00
       11   -1    0    0    0    0  0.00000000000E+00  0.00000000000E+00  0.54999999763E+01  0.55000000000E+01  0.51109989000E-03 0.  1.
     -623   -1    0    0    0    0  0.00000000000E+00  0.00000000000E+00  0.93234578044E-11  0.17124000000E+03  0.17124000000E+03 0. -1.
       11    1    1    2    0    0  0.86083023496E-02  0.13377068900E-01  0.63166366343E+00  0.63186414185E+00  0.51109989000E-03 0.  1.
     -623    1    1    2    0    0  0.79014405535E-02 -0.62270509485E-02  0.90543081035E-03  0.17124000030E+03  0.17124000000E+03 0. -1.
     -611    1    1    2    0    0  0.32663342414E-01 -0.56707066886E-02  0.22201363787E+01  0.22203839425E+01  0.51109989000E-03 0.  1.
      611    1    1    2    0    0 -0.49173085317E-01 -0.14793112628E-02  0.26472945033E+01  0.26477516177E+01  0.51109989000E-03 0. -1.
</event>
<event>
 6   3  0.2312675E+03  0.9118800E+02  0.7818608E-02  0.1180000E+00
       11   -1    0    0    0    0  0.00000000000E+00  0.00000000000E+00  0.54999999763E+01  0.55000000000E+01  0.51109989000E-03 0.  1.
     -623   -1    0    0    0    0  0.00000000000E+00  0.00000000000E+00  0.93234578044E-11  0.17124000000E+03  0.17124000000E+03 0. -1.
       11    1    1    2    0    0 -0.95282273172E-01  0.70937866057E-02  0.67138038847E+00  0.67814520615E+00  0.51109989000E-03 0.  1.
     -623    1    1    2    0    0  0.12804309892E-01 -0.80210623750E-02  0.76879712439E-02  0.17124000084E+03  0.17124000000E+03 0. -1.
     -611    1    1    2    0    0  0.22117065279E-01 -0.16386718383E-01  0.90442064264E+00  0.90483957096E+00  0.51109989000E-03 0. -1.
      611    1    1    2    0    0  0.60360898001E-01  0.17313994152E-01  0.39165109739E+01  0.39170143837E+01  0.51109989000E-03 0.  1.
</event>
<event>
 6   3  0.2312675E+03  0.9118800E+02  0.7818608E-02  0.1180000E+00
       11   -1    0    0    0    0  0.00000000000E+00  0.00000000000E+00  0.54999999763E+01  0.55000000000E+01  0.51109989000E-03 0. -1.
     -623   -1    0    0    0    0  0.00000000000E+00  0.00000000000E+00  0.93234578044E-11  0.17124000000E+03  0.17124000000E+03 0.  1.
       11    1    1    2    0    0  0.66748812247E-01 -0.36595966682E-01  0.17216401515E+00  0.18824286985E+00  0.51109989000E-03 0. -1.
     -623    1    1    2    0    0 -0.11638922210E-02 -0.80586435224E-02  0.16776665944E-01  0.17124000102E+03  0.17124000000E+03 0.  1.
     -611    1    1    2    0    0 -0.37487337306E-01  0.44058187122E-01  0.36780187632E+01  0.36784736927E+01  0.51109989000E-03 0. -1.
      611    1    1    2    0    0 -0.28097582719E-01  0.59642308243E-03  0.16330405319E+01  0.16332824220E+01  0.51109989000E-03 0.  1.
</event>
<event>
 6   3  0.2312675E+03  0.9118800E+02  0.7818608E-02  0.1180000E+00
       11   -1    0    0    0    0  0.00000000000E+00  0.00000000000E+00  0.54999999763E+01  0.55000000000E+01  0.51109989000E-03 0.  1.
     -623   -1    0    0    0    0  0.00000000000E+00  0.00000000000E+00  0.93234578044E-11  0.17124000000E+03  0.17124000000E+03 0. -1.
       11    1    1    2    0    0  0.20586471759E-01  0.36574179700E-01  0.71196052094E+00  0.71319668959E+00  0.51109989000E-03 0.  1.
     -623    1    1    2    0    0 -0.93807684844E-01 -0.14136930656E+00  0.30282727251E-02  0.17124008408E+03  0.17124000000E+03 0. -1.
     -611    1    1    2    0    0  0.44360442955E-01  0.62169796985E-01  0.28311628752E+01  0.28321928642E+01  0.51109989000E-03 0. -1.
      611    1    1    2    0    0  0.28860770111E-01  0.42625329848E-01  0.19538483062E+01  0.19545263691E+01  0.51109989000E-03 0.  1.
</event>
<event>
 6   3  0.2312675E+03  0.9118800E+02  0.7818608E-02  0.1180000E+00
       11   -1    0    0    0    0  0.00000000000E+00  0.00000000000E+00  0.54999999763E+01  0.55000000000E+01  0.51109989000E-03 0. -1.
     -623   -1    0    0    0    0  0.00000000000E+00  0.00000000000E+00  0.93234578044E-11  0.17124000000E+03  0.17124000000E+03 0. -1.
       11    1    1    2    0    0 -0.11441201792E-01  0.46985121511E-01  0.79442263774E+00  0.79589326629E+00  0.51109989000E-03 0. -1.
     -623    1    1    2    0    0 -0.68673540345E-02 -0.42470590217E-02  0.24601949625E-02  0.17124000021E+03  0.17124000000E+03 0. -1.
     -611    1    1    2    0    0 -0.33239172081E-01 -0.22127683282E-01  0.23128119954E+01  0.23131567314E+01  0.51109989000E-03 0.  1.
      611    1    1    2    0    0  0.51547727908E-01 -0.20610379207E-01  0.23903051481E+01  0.23909497942E+01  0.51109989000E-03 0. -1.
</event>
<event>
 6   3  0.2312675E+03  0.9118800E+02  0.7818608E-02  0.1180000E+00
       11   -1    0    0    0    0  0.00000000000E+00  0.00000000000E+00  0.54999999763E+01  0.55000000000E+01  0.51109989000E-03 0.  1.
     -623   -1    0    0    0    0  0.00000000000E+00  0.00000000000E+00  0.93234578044E-11  0.17124000000E+03  0.17124000000E+03 0. -1.
       11    1    1    2    0    0 -0.80062253708E-02 -0.13049941691E-01  0.93749601780E-01  0.94992892786E-01  0.51109989000E-03 0.  1.
     -623    1    1    2    0    0  0.12779729614E-02 -0.12765801363E-02  0.24305701737E-02  0.17124000003E+03  0.17124000000E+03 0. -1.
     -611    1    1    2    0    0 -0.35891495377E-01  0.45177046841E-01  0.34337354381E+01  0.34342202150E+01  0.51109989000E-03 0.  1.
      611    1    1    2    0    0  0.42619747786E-01 -0.30850525014E-01  0.19700843662E+01  0.19707868655E+01  0.51109989000E-03 0. -1.
</event>
<event>
 6   3  0.2312675E+03  0.9118800E+02  0.7818608E-02  0.1180000E+00
       11   -1    0    0    0    0  0.00000000000E+00  0.00000000000E+00  0.54999999763E+01  0.55000000000E+01  0.51109989000E-03 0.  1.
     -623   -1    0    0    0    0  0.00000000000E+00  0.00000000000E+00  0.93234578044E-11  0.17124000000E+03  0.17124000000E+03 0.  1.
       11    1    1    2    0    0 -0.71094349205E-02  0.11946061394E-01  0.48326380571E+00  0.48346397961E+00  0.51109989000E-03 0.  1.
     -623    1    1    2    0    0  0.67228348152E-01 -0.36897923353E-01  0.64044034709E-03  0.17124001717E+03  0.17124000000E+03 0.  1.
     -611    1    1    2    0    0 -0.16572472578E-01  0.73343137241E-02  0.13144483800E+01  0.13145734076E+01  0.51109989000E-03 0.  1.
      611    1    1    2    0    0 -0.43546440682E-01  0.17617548250E-01  0.37016473526E+01  0.37019454419E+01  0.51109989000E-03 0.  1.
</event>
<event>
 6   3  0.2312675E+03  0.9118800E+02  0.7818608E-02  0.1180000E+00
       11   -1    0    0    0    0  0.00000000000E+00  0.00000000000E+00  0.54999999763E+01  0.55000000000E+01  0.51109989000E-03 0. -1.
     -623   -1    0    0    0    0  0.00000000000E+00  0.00000000000E+00  0.93234578044E-11  0.17124000000E+03  0.17124000000E+03 0. -1.
       11    1    1    2    0    0  0.75672211478E-01  0.14699696118E-01  0.71338322155E+00  0.71753623370E+00  0.51109989000E-03 0. -1.
     -623    1    1    2    0    0 -0.13372003074E-01  0.62352380238E-01  0.67278213014E-02  0.17124001201E+03  0.17124000000E+03 0. -1.
     -611    1    1    2    0    0 -0.89292259328E-01 -0.18653158000E-01  0.25335993580E+01  0.25352410173E+01  0.51109989000E-03 0. -1.
      611    1    1    2    0    0  0.26992050924E-01 -0.58398918356E-01  0.22462895755E+01  0.22472107428E+01  0.51109989000E-03 0.  1.
</event>
<event>
 6   3  0.2312675E+03  0.9118800E+02  0.7818608E-02  0.1180000E+00
       11   -1    0    0    0    0  0.00000000000E+00  0.00000000000E+00  0.54999999763E+01  0.55000000000E+01  0.51109989000E-03 0.  1.
     -623   -1    0    0    0    0  0.00000000000E+00  0.00000000000E+00  0.93234578044E-11  0.17124000000E+03  0.17124000000E+03 0.  1.
       11    1    1    2    0    0 -0.11137819126E-02 -0.16318531229E-02  0.29466361201E-01  0.29536945006E-01  0.51109989000E-03 0.  1.
     -623    1    1    2    0    0  0.18872133413E-03  0.36601566538E-03  0.74372800659E-03  0.17124000000E+03  0.17124000000E+03 0.  1.
     -611    1    1    2    0    0  0.42147502834E-01 -0.16764716524E-03  0.21183883308E+01  0.21188076414E+01  0.51109989000E-03 0.  1.
      611    1    1    2    0    0 -0.41222442255E-01  0.14334846228E-02  0.33514015562E+01  0.33516554114E+01  0.51109989000E-03 0. -1.
</event>
<event>
 6   3  0.2312675E+03  0.9118800E+02  0.7818608E-02  0.1180000E+00
       11   -1    0    0    0    0  0.00000000000E+00  0.00000000000E+00  0.54999999763E+01  0.55000000000E+01  0.51109989000E-03 0. -1.
     -623   -1    0    0    0    0  0.00000000000E+00  0.00000000000E+00  0.93234578044E-11  0.17124000000E+03  0.17124000000E+03 0.  1.
       11    1    1    2    0    0  0.70321464001E-02 -0.27278768451E-01  0.28039487077E+00  0.28180689677E+00  0.51109989000E-03 0. -1.
     -623    1    1    2    0    0  0.26137823301E-02  0.59493725922E-02  0.19698876425E-02  0.17124000013E+03  0.17124000000E+03 0.  1.
     -611    1    1    2    0    0 -0.35284091883E-01  0.31499486281E-01  0.27891133295E+01  0.27895144041E+01  0.51109989000E-03 0. -1.
      611    1    1    2    0    0  0.25638163153E-01 -0.10170090422E-01  0.24285218883E+01  0.24286785644E+01  0.51109989000E-03 0.  1.
</event>
<event>
 6   3  0.2312675E+03  0.9118800E+02  0.7818608E-02  0.1180000E+00
       11   -1    0    0    0    0  0.00000000000E+00  0.00000000000E+00  0.54999999763E+01  0.55000000000E+01  0.51109989000E-03 0.  1.
     -623   -1    0    0    0    0  0.00000000000E+00  0.00000000000E+00  0.93234578044E-11  0.17124000000E+03  0.17124000000E+03 0. -1.
       11    1    1    2    0    0 -0.15860206458E-01 -0.11634950264E-01  0.28171888573E+00  0.28240522307E+00  0.51109989000E-03 0.  1.
     -623    1    1    2    0    0 -0.61171525131E-01 -0.54411350905E-02  0.12979677156E-02  0.17124001102E+03  0.17124000000E+03 0. -1.
     -611    1    1    2    0    0  0.61547189937E-01  0.15617032632E-01  0.40787147916E+01  0.40792090607E+01  0.51109989000E-03 0.  1.
      611    1    1    2    0    0  0.15484541654E-01  0.14590527232E-02  0.11382683313E+01  0.11383746989E+01  0.51109989000E-03 0. -1.
</event>
<event>
 6   3  0.2312675E+03  0.9118800E+02  0.7818608E-02  0.1180000E+00
       11   -1    0    0    0    0  0.00000000000E+00  0.00000000000E+00  0.54999999763E+01  0.55000000000E+01  0.51109989000E-03 0.  1.
     -623   -1    0    0    0    0  0.00000000000E+00  0.00000000000E+00  0.93234578044E-11  0.17124000000E+03  0.17124000000E+03 0.  1.
       11    1    1    2    0    0 -0.14557853035E-01  0.10323140440E-01  0.10267374335E+01  0.10268926511E+01  0.51109989000E-03 0.  1.
     -623    1    1    2    0    0 -0.63563969659E-01 -0.43573171452E-01  0.98746260093E-03  0.17124001734E+03  0.17124000000E+03 0.  1.
     -611    1    1    2    0    0  0.33285150468E-01  0.13392097457E-01  0.21220484757E+01  0.21223518191E+01  0.51109989000E-03 0. -1.
      611    1    1    2    0    0  0.44836672225E-01  0.19857933555E-01  0.23502266045E+01  0.23507381858E+01  0.51109989000E-03 0.  1.
</event>
<event>
 6   3  0.2312675E+03  0.9118800E+02  0.7818608E-02  0.1180000E+00
       11   -1    0    0    0    0  0.00000000000E+00  0.00000000000E+00  0.54999999763E+01  0.55000000000E+01  0.51109989000E-03 0. -1.
     -623   -1    0    0    0    0  0.00000000000E+00  0.00000000000E+00  0.93234578044E-11  0.17124000000E+03  0.17124000000E+03 0.  1.
       11    1    1    2    0    0 -0.53518614068E-01  0.15738273564E-01  0.51861168957E+00  0.52160356698E+00  0.51109989000E-03 0. -1.
     -623    1    1    2    0    0 -0.34279398311E-02 -0.93873692178E-03  0.33419473873E-02  0.17124000007E+03  0.17124000000E+03 0.  1.
     -611    1    1    2    0    0  0.45816134875E-01 -0.99868200702E-02  0.39378776347E+01  0.39381568509E+01  0.51109989000E-03 0.  1.
      611    1    1    2    0    0  0.11130419027E-01 -0.48127165722E-02  0.10401687047E+01  0.10402395128E+01  0.51109989000E-03 0. -1.
</event>
<event>
 6   3  0.2312675E+03  0.9118800E+02  0.7818608E-02  0.1180000E+00
       11   -1    0    0    0    0  0.00000000000E+00  0.00000000000E+00  0.54999999763E+01  0.55000000000E+01  0.51109989000E-03 0.  1.
     -623   -1    0    0    0    0  0.00000000000E+00  0.00000000000E+00  0.93234578044E-11  0.17124000000E+03  0.17124000000E+03 0. -1.
       11    1    1    2    0    0  0.48164164816E-01 -0.55834411898E-01  0.94878375760E+00  0.95164496963E+00  0.51109989000E-03 0.  1.
     -623    1    1    2    0    0  0.44172457451E-02  0.98535520167E-02  0.34045728801E-02  0.17124000037E+03  0.17124000000E+03 0. -1.
     -611    1    1    2    0    0 -0.31757119427E-01  0.23018494043E-01  0.26265737236E+01  0.26268666034E+01  0.51109989000E-03 0.  1.
      611    1    1    2    0    0 -0.20824291134E-01  0.22962365838E-01  0.19212379222E+01  0.19214880526E+01  0.51109989000E-03 0.  1.
</event>
<event>
 6   3  0.2312675E+03  0.9118800E+02  0.7818608E-02  0.1180000E+00
       11   -1    0    0    0    0  0.00000000000E+00  0.00000000000E+00  0.54999999763E+01  0.55000000000E+01  0.51109989000E-03 0. -1.
     -623   -1    0    0    0    0  0.00000000000E+00  0.00000000000E+00  0.93234578044E-11  0.17124000000E+03  0.17124000000E+03 0.  1.
       11    1    1    2    0    0 -0.74321872361E-01  0.65288598193E-01  0.92601143159E+00  0.93128071730E+00  0.51109989000E-03 0. -1.
     -623    1    1    2    0    0 -0.22913361143E-01 -0.20901296061E-01  0.66017365141E-02  0.17124000294E+03  0.17124000000E+03 0.  1.
     -611    1    1    2    0    0  0.62979887176E-01 -0.14231080403E-01  0.26892623559E+01  0.26900374105E+01  0.51109989000E-03 0. -1.
      611    1    1    2    0    0  0.34255346329E-01 -0.30156221728E-01  0.18781244522E+01  0.18786789363E+01  0.51109989000E-03 0.  1.
</event>
<event>
 6   3  0.2312675E+03  0.9118800E+02  0.7818608E-02  0.1180000E+00
       11   -1    0    0    0    0  0.00000000000E+00  0.00000000000E+00  0.54999999763E+01  0.55000000000E+01  0.51109989000E-03 0.  1.
     -623   -1    0    0    0    0  0.00000000000E+00  0.00000000000E+00  0.93234578044E-11  0.17124000000E+03  0.17124000000E+03 0. -1.
       11    1    1    2    0    0  0.26102796646E-02 -0.17401635250E-02  0.39121476735E-01  0.39250387183E-01  0.51109989000E-03 0.  1.
     -623    1    1    2    0    0  0.15337464979E-02  0.47837077558E-02  0.21017812893E-02  0.17124000009E+03  0.17124000000E+03 0. -1.
     -611    1    1    2    0    0 -0.64550064280E-01 -0.38878638704E-01  0.24786477374E+01  0.24797929604E+01  0.51109989000E-03 0. -1.
      611    1    1    2    0    0  0.60406038118E-01  0.35835094473E-01  0.29801289809E+01  0.29809565658E+01  0.51109989000E-03 0.  1.
</event>
<event>
 6   3  0.2312675E+03  0.9118800E+02  0.7818608E-02  0.1180000E+00
       11   -1    0    0    0    0  0.00000000000E+00  0.00000000000E+00  0.54999999763E+01  0.55000000000E+01  0.51109989000E-03 0.  1.
     -623   -1    0    0    0    0  0.00000000000E+00  0.00000000000E+00  0.93234578044E-11  0.17124000000E+03  0.17124000000E+03 0.  1.
       11    1    1    2    0    0  0.60400902213E-02  0.21538369651E-01  0.15389238060E+00  0.15551048224E+00  0.51109989000E-03 0.  1.
     -623    1    1    2    0    0 -0.11881683598E-01 -0.79730765155E-02  0.41658255269E-02  0.17124000065E+03  0.17124000000E+03 0.  1.
     -611    1    1    2    0    0 -0.47619733804E-01 -0.13751629252E-02  0.46908699359E+01  0.46911118668E+01  0.51109989000E-03 0.  1.
      611    1    1    2    0    0  0.53461327181E-01 -0.12190130210E-01  0.65107183427E+00  0.65337700249E+00  0.51109989000E-03 0. -1.
</event>
<event>
 6   3  0.2312675E+03  0.9118800E+02  0.7818608E-02  0.1180000E+00
       11   -1    0    0    0    0  0.00000000000E+00  0.00000000000E+00  0.54999999763E+01  0.55000000000E+01  0.51109989000E-03 0. -1.
     -623   -1    0    0    0    0  0.00000000000E+00  0.00000000000E+00  0.93234578044E-11  0.17124000000E+03  0.17124000000E+03 0. -1.
       11    1    1    2    0    0  0.44188294262E-01 -0.23982954629E-01  0.94752787194E+00  0.94886095757E+00  0.51109989000E-03 0. -1.
     -623    1    1    2    0    0  0.64722723899E-02 -0.30002690304E-02  0.18296220079E-02  0.17124000016E+03  0.17124000000E+03 0. -1.
     -611    1    1    2    0    0 -0.11405602348E-01 -0.79967716813E-02  0.71345994877E+00  0.71359610134E+00  0.51109989000E-03 0.  1.
      611    1    1    2    0    0 -0.39254964304E-01  0.34979995340E-01  0.38371825335E+01  0.38375427827E+01  0.51109989000E-03 0. -1.
</event>
<event>
 6   3  0.2312675E+03  0.9118800E+02  0.7818608E-02  0.1180000E+00
       11   -1    0    0    0    0  0.00000000000E+00  0.00000000000E+00  0.54999999763E+01  0.55000000000E+01  0.51109989000E-03 0. -1.
     -623   -1    0    0    0    0  0.00000000000E+00  0.00000000000E+00  0.93234578044E-11  0.17124000000E+03  0.17124000000E+03 0.  1.
       11    1    1    2    0    0 -0.71341658432E-01 -0.63339128158E-01  0.21210138701E+00  0.23256985397E+00  0.51109989000E-03 0. -1.
     -623    1    1    2    0    0 -0.13603688623E-01  0.13787794355E-01  0.21389608781E-01  0.17124000243E+03  0.17124000000E+03 0.  1.
     -611    1    1    2    0    0  0.65415383206E-01  0.39255510786E-01  0.40746305078E+01  0.40753446730E+01  0.51109989000E-03 0. -1.
      611    1    1    2    0    0  0.19529963801E-01  0.10295822990E-01  0.11918784697E+01  0.11920830387E+01  0.51109989000E-03 0.  1.
</event>
<event>
 6   3  0.2312675E+03  0.9118800E+02  0.7818608E-02  0.1180000E+00
       11   -1    0    0    0    0  0.00000000000E+00  0.00000000000E+00  0.54999999763E+01  0.55000000000E+01  0.51109989000E-03 0.  1.
     -623   -1    0    0    0    0  0.00000000000E+00  0.00000000000E+00  0.93234578044E-11  0.17124000000E+03  0.17124000000E+03 0.  1.
       11    1    1    2    0    0  0.46059928699E-02  0.27559499909E-01  0.32327539272E+00  0.32448109647E+00  0.51109989000E-03 0.  1.
     -623    1    1    2    0    0  0.33409612905E-01  0.44910185952E-03  0.23829725843E-02  0.17124000328E+03  0.17124000000E+03 0.  1.
     -611    1    1    2    0    0  0.25653896714E-01  0.32219193512E-02  0.52808824163E+00  0.52872105628E+00  0.51109989000E-03 0. -1.
      611    1    1    2    0    0 -0.63669502489E-01 -0.31230521119E-01  0.46462533693E+01  0.46467945709E+01  0.51109989000E-03 0.  1.
</event>
<event>
 6   3  0.2312675E+03  0.9118800E+02  0.7818608E-02  0.1180000E+00
       11   -1    0    0    0    0  0.00000000000E+00  0.00000000000E+00  0.54999999763E+01  0.55000000000E+01  0.51109989000E-03 0.  1.
     -623   -1    0    0    0    0  0.00000000000E+00  0.00000000000E+00  0.93234578044E-11  0.17124000000E+03  0.17124000000E+03 0. -1.
       11    1    1    2    0    0 -0.58948216415E-02 -0.27093922849E-02  0.11854212105E-01  0.13523065350E-01  0.51109989000E-03 0.  1.
     -623    1    1    2    0    0  0.17251133190E-01  0.98471233065E-02  0.20908879007E-02  0.17124000116E+03  0.17124000000E+03 0. -1.
     -611    1    1    2    0    0 -0.37396571548E-01  0.73652438874E-02  0.29993665974E+01  0.29996088074E+01  0.51109989000E-03 0. -1.
      611    1    1    2    0    0  0.26040259998E-01 -0.14502974909E-01  0.24866882789E+01  0.24868669625E+01  0.51109989000E-03 0.  1.
</event>
<event>
 6   3  0.2312675E+03  0.9118800E+02  0.7818608E-02  0.1180000E+00
       11   -1    0    0    0    0  0.00000000000E+00  0.00000000000E+00  0.54999999763E+01  0.55000000000E+01  0.51109989000E-03 0.  1.
     -623   -1    0    0    0    0  0.00000000000E+00  0.00000000000E+00  0.93234578044E-11  0.17124000000E+03  0.17124000000E+03 0. -1.
       11    1    1    2    0    0 -0.17150652478E-01 -0.11461383241E-01  0.50867945660E+00  0.50909778921E+00  0.51109989000E-03 0.  1.
     -623    1    1    2    0    0  0.11332014109E-03 -0.13918038021E-02  0.17064117081E-02  0.17124000001E+03  0.17124000000E+03 0. -1.
     -611    1    1    2    0    0 -0.45575422209E-01  0.17190819488E-02  0.14511323181E+01  0.14518489385E+01  0.51109989000E-03 0. -1.
      611    1    1    2    0    0  0.62612754546E-01  0.11134105094E-01  0.35384817898E+01  0.35390532580E+01  0.51109989000E-03 0.  1.
</event>
<event>
 6   3  0.2312675E+03  0.9118800E+02  0.7818608E-02  0.1180000E+00
       11   -1    0    0    0    0  0.00000000000E+00  0.00000000000E+00  0.54999999763E+01  0.55000000000E+01  0.51109989000E-03 0. -1.
     -623   -1    0    0    0    0  0.00000000000E+00  0.00000000000E+00  0.93234578044E-11  0.17124000000E+03  0.17124000000E+03 0. -1.
       11    1    1    2    0    0  0.14803981723E-02 -0.76076620447E-02  0.33330800586E-01  0.34223845362E-01  0.51109989000E-03 0. -1.
     -623    1    1    2    0    0  0.68304744831E-01 -0.35469986346E-01  0.15282886194E-02  0.17124001730E+03  0.17124000000E+03 0. -1.
     -611    1    1    2    0    0 -0.12216173696E-01  0.52938445843E-02  0.89977779284E+00  0.89987643452E+00  0.51109989000E-03 0.  1.
      611    1    1    2    0    0 -0.57568969305E-01  0.37783803805E-01  0.45653630940E+01  0.45658824168E+01  0.51109989000E-03 0. -1.
</event>
<event>
 6   3  0.2312675E+03  0.9118800E+02  0.7818608E-02  0.1180000E+00
       11   -1    0    0    0    0  0.00000000000E+00  0.00000000000E+00  0.54999999763E+01  0.55000000000E+01  0.51109989000E-03 0. -1.
     -623   -1    0    0    0    0  0.00000000000E+00  0.00000000000E+00  0.93234578044E-11  0.17124000000E+03  0.17124000000E+03 0. -1.
       11    1    1    2    0    0  0.14903791292E-02  0.47193003661E-03  0.17179049975E-01  0.17257604963E-01  0.51109989000E-03 0. -1.
     -623    1    1    2    0    0 -0.17407727887E-02 -0.14264996811E-02  0.11452653022E-02  0.17124000002E+03  0.17124000000E+03 0. -1.
     -611    1    1    2    0    0 -0.46503503976E-01 -0.26349498727E-01  0.24471679262E+01  0.24477516198E+01  0.51109989000E-03 0. -1.
      611    1    1    2    0    0  0.46753897635E-01  0.27304068372E-01  0.30345077347E+01  0.30349907566E+01  0.51109989000E-03 0.  1.
</event>
<event>
 6   3  0.2312675E+03  0.9118800E+02  0.7818608E-02  0.1180000E+00
       11   -1    0    0    0    0  0.00000000000E+00  0.00000000000E+00  0.54999999763E+01  0.55000000000E+01  0.51109989000E-03 0.  1.
     -623   -1    0    0    0    0  0.00000000000E+00  0.00000000000E+00  0.93234578044E-11  0.17124000000E+03  0.17124000000E+03 0. -1.
       11    1    1    2    0    0 -0.51810634817E-02  0.22660530649E-03  0.40971126286E-01  0.41301200721E-01  0.51109989000E-03 0.  1.
     -623    1    1    2    0    0  0.40373226267E-02 -0.10267323837E-03  0.79978646141E-03  0.17124000005E+03  0.17124000000E+03 0. -1.
     -611    1    1    2    0    0  0.34105878900E-01 -0.10418928642E-01  0.33092720879E+01  0.33094642735E+01  0.51109989000E-03 0. -1.
      611    1    1    2    0    0 -0.32962138045E-01  0.10294996574E-01  0.21489569756E+01  0.21492344762E+01  0.51109989000E-03 0.  1.
</event>
<event>
 6   3  0.2312675E+03  0.9118800E+02  0.7818608E-02  0.1180000E+00
       11   -1    0    0    0    0  0.00000000000E+00  0.00000000000E+00  0.54999999763E+01  0.55000000000E+01  0.51109989000E-03 0.  1.
     -623   -1    0    0    0    0  0.00000000000E+00  0.00000000000E+00  0.93234578044E-11  0.17124000000E+03  0.17124000000E+03 0.  1.
       11    1    1    2    0    0  0.50281314829E-01 -0.13585837388E-01  0.38029447188E+00  0.38384493244E+00  0.51109989000E-03 0.  1.
     -623    1    1    2    0    0  0.22664281709E-01  0.86030191967E-02  0.59129743086E-02  0.17124000182E+03  0.17124000000E+03 0.  1.
     -611    1    1    2    0    0  0.38047876849E-01  0.19445021856E-01  0.12007471285E+01  0.12015072524E+01  0.51109989000E-03 0. -1.
      611    1    1    2    0    0 -0.11099347339E+00 -0.14462203666E-01  0.39130454016E+01  0.39146459971E+01  0.51109989000E-03 0.  1.
</event>
<event>
 6   3  0.2312675E+03  0.9118800E+02  0.7818608E-02  0.1180000E+00
       11   -1    0    0    0    0  0.00000000000E+00  0.00000000000E+00  0.54999999763E+01  0.55000000000E+01  0.51109989000E-03 0.  1.
     -623   -1    0    0    0    0  0.00000000000E+00  0.00000000000E+00  0.93234578044E-11  0.17124000000E+03  0.17124000000E+03 0. -1.
       11    1    1    2    0    0  0.20076472717E-03 -0.17851809268E-02  0.13021829648E+00  0.13023169023E+00  0.51109989000E-03 0. -1.
     -623    1    1    2    0    0 -0.58437818045E-01  0.22692260476E-01  0.38159658766E-03  0.17124001148E+03  0.17124000000E+03 0. -1.
     -611    1    1    2    0    0  0.42785047593E-01 -0.15370371703E-01  0.39862937520E+01  0.39865530157E+01  0.51109989000E-03 0.  1.
      611    1    1    2    0    0  0.15452005704E-01 -0.55367078375E-02  0.13831063292E+01  0.13832038167E+01  0.51109989000E-03 0.  1.
</event>
<event>
 6   3  0.2312675E+03  0.9118800E+02  0.7818608E-02  0.1180000E+00
       11   -1    0    0    0    0  0.00000000000E+00  0.00000000000E+00  0.54999999763E+01  0.55000000000E+01  0.51109989000E-03 0. -1.
     -623   -1    0    0    0    0  0.00000000000E+00  0.00000000000E+00  0.93234578044E-11  0.17124000000E+03  0.17124000000E+03 0.  1.
       11    1    1    2    0    0 -0.16702600876E-01 -0.50025314432E-02  0.95869111475E+00  0.95884978851E+00  0.51109989000E-03 0. -1.
     -623    1    1    2    0    0  0.12577543719E-01 -0.61887573405E-02  0.71548970380E-03  0.17124000058E+03  0.17124000000E+03 0.  1.
     -611    1    1    2    0    0  0.36039288553E-01  0.12541473061E-01  0.20943064612E+01  0.20946541321E+01  0.51109989000E-03 0.  1.
      611    1    1    2    0    0 -0.31914231396E-01 -0.13501842770E-02  0.24462869107E+01  0.24464955041E+01  0.51109989000E-03 0. -1.
</event>
<event>
 6   3  0.2312675E+03  0.9118800E+02  0.7818608E-02  0.1180000E+00
       11   -1    0    0    0    0  0.00000000000E+00  0.00000000000E+00  0.54999999763E+01  0.55000000000E+01  0.51109989000E-03 0.  1.
     -623   -1    0    0    0    0  0.00000000000E+00  0.00000000000E+00  0.93234578044E-11  0.17124000000E+03  0.17124000000E+03 0.  1.
       11    1    1    2    0    0 -0.19762004979E-02  0.34321779029E-02  0.18526147175E+00  0.18530450440E+00  0.51109989000E-03 0.  1.
     -623    1    1    2    0    0  0.81838827652E-03 -0.34673171761E-02  0.68932662601E-03  0.17124000004E+03  0.17124000000E+03 0.  1.
     -611    1    1    2    0    0 -0.37205010081E-01  0.16913290883E-01  0.27497738019E+01  0.27500775435E+01  0.51109989000E-03 0. -1.
      611    1    1    2    0    0  0.38362822302E-01 -0.16878151610E-01  0.25642753761E+01  0.25646179138E+01  0.51109989000E-03 0.  1.
</event>
<event>
 6   3  0.2312675E+03  0.9118800E+02  0.7818608E-02  0.1180000E+00
       11   -1    0    0    0    0  0.00000000000E+00  0.00000000000E+00  0.54999999763E+01  0.55000000000E+01  0.51109989000E-03 0. -1.
     -623   -1    0    0    0    0  0.00000000000E+00  0.00000000000E+00  0.93234578044E-11  0.17124000000E+03  0.17124000000E+03 0. -1.
       11    1    1    2    0    0  0.87254729419E-02 -0.44889654245E-02  0.10367003047E+01  0.10367468677E+01  0.51109989000E-03 0. -1.
     -623    1    1    2    0    0 -0.59300520759E-01  0.85117364549E-02  0.34562315185E-03  0.17124001048E+03  0.17124000000E+03 0. -1.
     -611    1    1    2    0    0  0.15000404593E-01 -0.87322665183E-03  0.12975379722E+01  0.12976250711E+01  0.51109989000E-03 0. -1.
      611    1    1    2    0    0  0.35574643414E-01 -0.31495444048E-02  0.31654160938E+01  0.31656175990E+01  0.51109989000E-03 0. -1.
</event>
<event>
 6   3  0.2312675E+03  0.9118800E+02  0.7818608E-02  0.1180000E+00
       11   -1    0    0    0    0  0.00000000000E+00  0.00000000000E+00  0.54999999763E+01  0.55000000000E+01  0.51109989000E-03 0. -1.
     -623   -1    0    0    0    0  0.00000000000E+00  0.00000000000E+00  0.93234578044E-11  0.17124000000E+03  0.17124000000E+03 0. -1.
       11    1    1    2    0    0  0.87419179721E-03 -0.45982656335E-02  0.85055010460E-01  0.85185235138E-01  0.51109989000E-03 0. -1.
     -623    1    1    2    0    0 -0.43140332316E-04  0.12354856913E-02  0.75256032497E-03  0.17124000001E+03  0.17124000000E+03 0. -1.
     -611    1    1    2    0    0 -0.41399844302E-01  0.26874872912E-02  0.28059593870E+01  0.28062661157E+01  0.51109989000E-03 0. -1.
      611    1    1    2    0    0  0.40568792837E-01  0.67529265104E-03  0.26082330182E+01  0.26085486427E+01  0.51109989000E-03 0.  1.
</event>
<event>
 6   3  0.2312675E+03  0.9118800E+02  0.7818608E-02  0.1180000E+00
       11   -1    0    0    0    0  0.00000000000E+00  0.00000000000E+00  0.54999999763E+01  0.55000000000E+01  0.51109989000E-03 0.  1.
     -623   -1    0    0    0    0  0.00000000000E+00  0.00000000000E+00  0.93234578044E-11  0.17124000000E+03  0.17124000000E+03 0. -1.
       11    1    1    2    0    0  0.68226683042E-02  0.13113385818E-01  0.27546228076E-01  0.31266045396E-01  0.51109989000E-03 0.  1.
     -623    1    1    2    0    0 -0.13250421253E-01  0.30889853297E-02  0.53330205310E-02  0.17124000062E+03  0.17124000000E+03 0. -1.
     -611    1    1    2    0    0  0.67726472055E-01  0.23671125177E-03  0.32434483333E+01  0.32441554036E+01  0.51109989000E-03 0. -1.
      611    1    1    2    0    0 -0.61298719106E-01 -0.16439082399E-01  0.22236723944E+01  0.22245779274E+01  0.51109989000E-03 0.  1.
</event>
<event>
 6   3  0.4316852E+03  0.9118800E+02  0.7818608E-02  0.1180000E+00
       11   -1    0    0    0    0  0.00000000000E+00  0.00000000000E+00  0.54999999763E+01  0.55000000000E+01  0.51109989000E-03 0. -1.
     -623   -1    0    0    0    0  0.00000000000E+00  0.00000000000E+00  0.93234578044E-11  0.17124000000E+03  0.17124000000E+03 0.  1.
       11    1    1    2    0    0 -0.16347635461E-02 -0.14447215837E-02  0.14572732831E-02  0.26729273887E-02  0.51109989000E-03 0. -1.
     -623    1    1    2    0    0  0.20450029358E-02  0.82162496592E-03  0.20034044718E-02  0.17124000003E+03  0.17124000000E+03 0.  1.
     -611    1    1    2    0    0  0.40938145987E-01 -0.17046913810E-01  0.19588946782E+01  0.19593966292E+01  0.51109989000E-03 0.  1.
      611    1    1    2    0    0 -0.41348385377E-01  0.17670010428E-01  0.35376446202E+01  0.35379304174E+01  0.51109989000E-03 0. -1.
</event>
<event>
 6   3  0.2312675E+03  0.9118800E+02  0.7818608E-02  0.1180000E+00
       11   -1    0    0    0    0  0.00000000000E+00  0.00000000000E+00  0.54999999763E+01  0.55000000000E+01  0.51109989000E-03 0. -1.
     -623   -1    0    0    0    0  0.00000000000E+00  0.00000000000E+00  0.93234578044E-11  0.17124000000E+03  0.17124000000E+03 0. -1.
       11    1    1    2    0    0  0.38344060082E-01 -0.57369844379E-02  0.96572823042E+00  0.96650631461E+00  0.51109989000E-03 0. -1.
     -623    1    1    2    0    0 -0.39108767830E-02 -0.11421210794E-01  0.13349076939E-02  0.17124000043E+03  0.17124000000E+03 0. -1.
     -611    1    1    2    0    0  0.13414798936E-01  0.16205428449E-01  0.92704074164E+00  0.92727955366E+00  0.51109989000E-03 0.  1.
      611    1    1    2    0    0 -0.47847982235E-01  0.95276678242E-03  0.36058960965E+01  0.36062137010E+01  0.51109989000E-03 0. -1.
</event>
<event>
 6   3  0.2312675E+03  0.9118800E+02  0.7818608E-02  0.1180000E+00
       11   -1    0    0    0    0  0.00000000000E+00  0.00000000000E+00  0.54999999763E+01  0.55000000000E+01  0.51109989000E-03 0.  1.
     -623   -1    0    0    0    0  0.00000000000E+00  0.00000000000E+00  0.93234578044E-11  0.17124000000E+03  0.17124000000E+03 0. -1.
       11    1    1    2    0    0 -0.51735667379E-01 -0.96808855038E-01  0.73161171843E+00  0.73980031189E+00  0.51109989000E-03 0.  1.
     -623    1    1    2    0    0 -0.78248967520E-01  0.63456775530E-03  0.10972147454E-01  0.17124001823E+03  0.17124000000E+03 0. -1.
     -611    1    1    2    0    0  0.21885611870E-01  0.20903683925E-01  0.99419518636E+00  0.99465585697E+00  0.51109989000E-03 0. -1.
      611    1    1    2    0    0  0.10809902303E+00  0.75270603357E-01  0.37632209240E+01  0.37655256003E+01  0.51109989000E-03 0.  1.
</event>
<event>
 6   3  0.2312675E+03  0.9118800E+02  0.7818608E-02  0.1180000E+00
       11   -1    0    0    0    0  0.00000000000E+00  0.00000000000E+00  0.54999999763E+01  0.55000000000E+01  0.51109989000E-03 0.  1.
     -623   -1    0    0    0    0  0.00000000000E+00  0.00000000000E+00  0.93234578044E-11  0.17124000000E+03  0.17124000000E+03 0.  1.
       11    1    1    2    0    0  0.26957564709E-01 -0.59679193384E-01  0.12619216146E+00  0.14217256857E+00  0.51109989000E-03 0.  1.
     -623    1    1    2    0    0  0.10881890766E-01  0.25078884140E-01  0.16886575133E-01  0.17124000301E+03  0.17124000000E+03 0.  1.
     -611    1    1    2    0    0  0.18664060496E-01  0.27269016996E-01  0.10347923997E+01  0.10353200076E+01  0.51109989000E-03 0. -1.
      611    1    1    2    0    0 -0.56503515971E-01  0.73312922478E-02  0.43221288399E+01  0.43225044090E+01  0.51109989000E-03 0.  1.
</event>
<event>
 6   3  0.2312675E+03  0.9118800E+02  0.7818608E-02  0.1180000E+00
       11   -1    0    0    0    0  0.00000000000E+00  0.00000000000E+00  0.54999999763E+01  0.55000000000E+01  0.51109989000E-03 0.  1.
     -623   -1    0    0    0    0  0.00000000000E+00  0.00000000000E+00  0.93234578044E-11  0.17124000000E+03  0.17124000000E+03 0.  1.
       11    1    1    2    0    0  0.64390041068E-01 -0.10169159108E-01  0.86441745115E+00  0.86687212451E+00  0.51109989000E-03 0.  1.
     -623    1    1    2    0    0  0.58230945024E-02  0.31470135546E-02  0.30916211459E-02  0.17124000016E+03  0.17124000000E+03 0.  1.
     -611    1    1    2    0    0 -0.54629050997E-01 -0.73362234759E-02  0.35685208190E+01  0.35689465182E+01  0.51109989000E-03 0.  1.
      611    1    1    2    0    0 -0.15584084574E-01  0.14358369029E-01  0.10639700850E+01  0.10641812015E+01  0.51109989000E-03 0. -1.
</event>
<event>
 6   3  0.2312675E+03  0.9118800E+02  0.7818608E-02  0.1180000E+00
       11   -1    0    0    0    0  0.00000000000E+00  0.00000000000E+00  0.54999999763E+01  0.55000000000E+01  0.51109989000E-03 0.  1.
     -623   -1    0    0    0    0  0.00000000000E+00  0.00000000000E+00  0.93234578044E-11  0.17124000000E+03  0.17124000000E+03 0.  1.
       11    1    1    2    0    0  0.12982400421E-01  0.88468296838E-03  0.40988334592E+00  0.41009016554E+00  0.51109989000E-03 0.  1.
     -623    1    1    2    0    0  0.32045562619E-02 -0.18480139411E-01  0.61257385934E-03  0.17124000103E+03  0.17124000000E+03 0.  1.
     -611    1    1    2    0    0 -0.38925388425E-01  0.11451520647E-01  0.33163355342E+01  0.33165837785E+01  0.51109989000E-03 0.  1.
      611    1    1    2    0    0  0.22738431742E-01  0.61439357953E-02  0.17731685220E+01  0.17733250274E+01  0.51109989000E-03 0. -1.
</event>
<event>
 6   3  0.2312675E+03  0.9118800E+02  0.7818608E-02  0.1180000E+00
       11   -1    0    0    0    0  0.00000000000E+00  0.00000000000E+00  0.54999999763E+01  0.55000000000E+01  0.51109989000E-03 0.  1.
     -623   -1    0    0    0    0  0.00000000000E+00  0.00000000000E+00  0.93234578044E-11  0.17124000000E+03  0.17124000000E+03 0.  1.
       11    1    1    2    0    0 -0.88710819610E-02 -0.73579064308E-02  0.77784554805E+00  0.77793109767E+00  0.51109989000E-03 0.  1.
     -623    1    1    2    0    0  0.75572615748E-01  0.26021016980E-01  0.61351154336E-03  0.17124001865E+03  0.17124000000E+03 0.  1.
     -611    1    1    2    0    0 -0.29194015958E-01 -0.88590697027E-02  0.19749065384E+01  0.19751422405E+01  0.51109989000E-03 0. -1.
      611    1    1    2    0    0 -0.37507517626E-01 -0.98040407780E-02  0.27466343636E+01  0.27469079929E+01  0.51109989000E-03 0.  1.
</event>
<event>
 6   3  0.2312675E+03  0.9118800E+02  0.7818608E-02  0.1180000E+00
       11   -1    0    0    0    0  0.00000000000E+00  0.00000000000E+00  0.54999999763E+01  0.55000000000E+01  0.51109989000E-03 0.  1.
     -623   -1    0    0    0    0  0.00000000000E+00  0.00000000000E+00  0.93234578044E-11  0.17124000000E+03  0.17124000000E+03 0. -1.
       11    1    1    2    0    0 -0.64111869545E-01  0.27606377012E-01  0.96221096520E+00  0.96473967818E+00  0.51109989000E-03 0.  1.
     -623    1    1    2    0    0  0.15186601699E-01 -0.24799275681E-01  0.28060236333E-02  0.17124000249E+03  0.17124000000E+03 0. -1.
     -611    1    1    2    0    0  0.38044315708E-01 -0.57454457776E-02  0.36540752285E+01  0.36542778242E+01  0.51109989000E-03 0.  1.
      611    1    1    2    0    0  0.10880952137E-01  0.29383444460E-02  0.88090775889E+00  0.88098000538E+00  0.51109989000E-03 0. -1.
</event>
<event>
 6   3  0.2312675E+03  0.9118800E+02  0.7818608E-02  0.1180000E+00
       11   -1    0    0    0    0  0.00000000000E+00  0.00000000000E+00  0.54999999763E+01  0.55000000000E+01  0.51109989000E-03 0.  1.
     -623   -1    0    0    0    0  0.00000000000E+00  0.00000000000E+00  0.93234578044E-11  0.17124000000E+03  0.17124000000E+03 0.  1.
       11    1    1    2    0    0 -0.53922983238E-02 -0.18300391603E-01  0.97119654216E+00  0.97138404658E+00  0.51109989000E-03 0.  1.
     -623    1    1    2    0    0  0.65034856502E-02 -0.85807226614E-02  0.96707039147E-03  0.17124000034E+03  0.17124000000E+03 0.  1.
     -611    1    1    2    0    0  0.36781978149E-01  0.52092486309E-02  0.27123883244E+01  0.27126427582E+01  0.51109989000E-03 0.  1.
      611    1    1    2    0    0 -0.37893165476E-01  0.21671865634E-01  0.18154480393E+01  0.18159728540E+01  0.51109989000E-03 0. -1.
</event>
<event>
 6   3  0.2312675E+03  0.9118800E+02  0.7818608E-02  0.1180000E+00
       11   -1    0    0    0    0  0.00000000000E+00  0.00000000000E+00  0.54999999763E+01  0.55000000000E+01  0.51109989000E-03 0.  1.
     -623   -1    0    0    0    0  0.00000000000E+00  0.00000000000E+00  0.93234578044E-11  0.17124000000E+03  0.17124000000E+03 0. -1.
       11    1    1    2    0    0 -0.59215759144E-01  0.58920261006E-01  0.97716469169E+00  0.98072891219E+00  0.51109989000E-03 0.  1.
     -623    1    1    2    0    0 -0.17434474242E-02 -0.36311012060E-01  0.40367923514E-02  0.17124000391E+03  0.17124000000E+03 0. -1.
     -611    1    1    2    0    0  0.54976858516E-01 -0.20273593152E-01  0.40188152230E+01  0.40192424076E+01  0.51109989000E-03 0.  1.
      611    1    1    2    0    0  0.59823480612E-02 -0.23356557978E-02  0.49998326981E+00  0.50002477447E+00  0.51109989000E-03 0.  1.
</event>
<event>
 6   3  0.2312675E+03  0.9118800E+02  0.7818608E-02  0.1180000E+00
       11   -1    0    0    0    0  0.00000000000E+00  0.00000000000E+00  0.54999999763E+01  0.55000000000E+01  0.51109989000E-03 0.  1.
     -623   -1    0    0    0    0  0.00000000000E+00  0.00000000000E+00  0.93234578044E-11  0.17124000000E+03  0.17124000000E+03 0.  1.
       11    1    1    2    0    0 -0.94234448064E-01  0.20367059617E-01  0.42932137503E+00  0.44001369593E+00  0.51109989000E-03 0.  1.
     -623    1    1    2    0    0 -0.55431800525E-01  0.95939487322E-01  0.14280286658E-01  0.17124003644E+03  0.17124000000E+03 0.  1.
     -611    1    1    2    0    0  0.47649965333E-01 -0.36720488191E-01  0.16054351767E+01  0.16065619444E+01  0.51109989000E-03 0.  1.
      611    1    1    2    0    0  0.10201628332E+00 -0.79586058797E-01  0.34509631400E+01  0.34533879188E+01  0.51109989000E-03 0.  1.
</event>
<event>
 6   3  0.2312675E+03  0.9118800E+02  0.7818608E-02  0.1180000E+00
       11   -1    0    0    0    0  0.00000000000E+00  0.00000000000E+00  0.54999999763E+01  0.55000000000E+01  0.51109989000E-03 0. -1.
     -623   -1    0    0    0    0  0.00000000000E+00  0.00000000000E+00  0.93234578044E-11  0.17124000000E+03  0.17124000000E+03 0.  1.
       11    1    1    2    0    0 -0.43679689262E-01  0.40647148281E-01  0.69792453587E+00  0.70047057391E+00  0.51109989000E-03 0. -1.
     -623    1    1    2    0    0  0.16016906071E+00 -0.22234468398E-01  0.40786452947E-02  0.17124007640E+03  0.17124000000E+03 0.  1.
     -611    1    1    2    0    0 -0.44873721011E-01 -0.10767980057E-01  0.19393707440E+01  0.19399197777E+01  0.51109989000E-03 0.  1.
      611    1    1    2    0    0 -0.71615650439E-01 -0.76446998263E-02  0.28586260512E+01  0.28595332494E+01  0.51109989000E-03 0. -1.
</event>
<event>
 6   3  0.2312675E+03  0.9118800E+02  0.7818608E-02  0.1180000E+00
       11   -1    0    0    0    0  0.00000000000E+00  0.00000000000E+00  0.54999999763E+01  0.55000000000E+01  0.51109989000E-03 0.  1.
     -623   -1    0    0    0    0  0.00000000000E+00  0.00000000000E+00  0.93234578044E-11  0.17124000000E+03  0.17124000000E+03 0. -1.
       11    1    1    2    0    0 -0.10485731014E+00  0.52015030435E-01  0.82237171641E+00  0.83066005084E+00  0.51109989000E-03 0.  1.
     -623    1    1    2    0    0 -0.21867630020E-01  0.37779870320E-01  0.10892342912E-01  0.17124000591E+03  0.17124000000E+03 0. -1.
     -611    1    1    2    0    0  0.47221379975E-01 -0.28461261620E-01  0.17670246492E+01  0.17678846891E+01  0.51109989000E-03 0. -1.
      611    1    1    2    0    0  0.79503560184E-01 -0.61333639134E-01  0.28997112678E+01  0.29014493497E+01  0.51109989000E-03 0.  1.
</event>
<event>
 6   3  0.2312675E+03  0.9118800E+02  0.7818608E-02  0.1180000E+00
       11   -1    0    0    0    0  0.00000000000E+00  0.00000000000E+00  0.54999999763E+01  0.55000000000E+01  0.51109989000E-03 0. -1.
     -623   -1    0    0    0    0  0.00000000000E+00  0.00000000000E+00  0.93234578044E-11  0.17124000000E+03  0.17124000000E+03 0.  1.
       11    1    1    2    0    0  0.35423138897E-02 -0.69528108277E-02  0.76212495224E+00  0.76216506980E+00  0.51109989000E-03 0. -1.
     -623    1    1    2    0    0  0.30694055270E-02  0.25779656099E-02  0.61143030916E-03  0.17124000005E+03  0.17124000000E+03 0.  1.
     -611    1    1    2    0    0  0.28766385656E-01 -0.83501958574E-02  0.12096935421E+01  0.12100644436E+01  0.51109989000E-03 0.  1.
      611    1    1    2    0    0 -0.35378105073E-01  0.12725041075E-01  0.35275700516E+01  0.35277704385E+01  0.51109989000E-03 0. -1.
</event>
<event>
 6   3  0.2312675E+03  0.9118800E+02  0.7818608E-02  0.1180000E+00
       11   -1    0    0    0    0  0.00000000000E+00  0.00000000000E+00  0.54999999763E+01  0.55000000000E+01  0.51109989000E-03 0.  1.
     -623   -1    0    0    0    0  0.00000000000E+00  0.00000000000E+00  0.93234578044E-11  0.17124000000E+03  0.17124000000E+03 0. -1.
       11    1    1    2    0    0 -0.63452592431E-02  0.50447137204E-02  0.55205582003E+00  0.55211556861E+00  0.51109989000E-03 0.  1.
     -623    1    1    2    0    0  0.86178819578E-01 -0.56058496381E-01  0.99813746472E-03  0.17124003086E+03  0.17124000000E+03 0. -1.
     -611    1    1    2    0    0 -0.35596309289E-01  0.22399367004E-01  0.21526988359E+01  0.21531096972E+01  0.51109989000E-03 0.  1.
      611    1    1    2    0    0 -0.44237251023E-01  0.28614415642E-01  0.27942471814E+01  0.27947438686E+01  0.51109989000E-03 0.  1.
</event>
<event>
 6   3  0.2312675E+03  0.9118800E+02  0.7818608E-02  0.1180000E+00
       11   -1    0    0    0    0  0.00000000000E+00  0.00000000000E+00  0.54999999763E+01  0.55000000000E+01  0.51109989000E-03 0.  1.
     -623   -1    0    0    0    0  0.00000000000E+00  0.00000000000E+00  0.93234578044E-11  0.17124000000E+03  0.17124000000E+03 0.  1.
       11    1    1    2    0    0  0.74191252257E-01  0.94451407411E-02  0.78281437954E+00  0.78637914942E+00  0.51109989000E-03 0.  1.
     -623    1    1    2    0    0 -0.84678983305E-02  0.81533243760E-02  0.40607077890E-02  0.17124000045E+03  0.17124000000E+03 0.  1.
     -611    1    1    2    0    0 -0.57718439244E-01 -0.17475379707E-01  0.41905815562E+01  0.41910154912E+01  0.51109989000E-03 0.  1.
      611    1    1    2    0    0 -0.80049146838E-02 -0.12308541003E-03  0.52254333277E+00  0.52260490780E+00  0.51109989000E-03 0. -1.
</event>
<event>
 6   3  0.2312675E+03  0.9118800E+02  0.7818608E-02  0.1180000E+00
       11   -1    0    0    0    0  0.00000000000E+00  0.00000000000E+00  0.54999999763E+01  0.55000000000E+01  0.51109989000E-03 0. -1.
     -623   -1    0    0    0    0  0.00000000000E+00  0.00000000000E+00  0.93234578044E-11  0.17124000000E+03  0.17124000000E+03 0. -1.
       11    1    1    2    0    0 -0.87218811228E-01  0.12966347842E-01  0.60643906913E+00  0.61281632893E+00  0.51109989000E-03 0. -1.
     -623    1    1    2    0    0 -0.10363205465E-01 -0.10269535387E-02  0.74064738760E-02  0.17124000048E+03  0.17124000000E+03 0. -1.
     -611    1    1    2    0    0  0.74899515610E-01 -0.16146042457E-01  0.35192895599E+01  0.35201235631E+01  0.51109989000E-03 0. -1.
      611    1    1    2    0    0  0.22682501083E-01  0.42066481540E-02  0.13668648734E+01  0.13670596311E+01  0.51109989000E-03 0.  1.
</event>
<event>
 6   3  0.2312675E+03  0.9118800E+02  0.7818608E-02  0.1180000E+00
       11   -1    0    0    0    0  0.00000000000E+00  0.00000000000E+00  0.54999999763E+01  0.55000000000E+01  0.51109989000E-03 0. -1.
     -623   -1    0    0    0    0  0.00000000000E+00  0.00000000000E+00  0.93234578044E-11  0.17124000000E+03  0.17124000000E+03 0. -1.
       11    1    1    2    0    0 -0.14366575660E-01  0.10229829827E-01  0.76707791978E+00  0.76728081180E+00  0.51109989000E-03 0. -1.
     -623    1    1    2    0    0  0.82324240759E-01 -0.52178593528E-01  0.90474020930E-03  0.17124002774E+03  0.17124000000E+03 0. -1.
     -611    1    1    2    0    0 -0.35318442823E-01  0.22041445290E-01  0.24330190769E+01  0.24333752911E+01  0.51109989000E-03 0. -1.
      611    1    1    2    0    0 -0.32639222315E-01  0.19907318436E-01  0.22989982419E+01  0.22993161587E+01  0.51109989000E-03 0. -1.
</event>
<event>
 6   3  0.2312675E+03  0.9118800E+02  0.7818608E-02  0.1180000E+00
       11   -1    0    0    0    0  0.00000000000E+00  0.00000000000E+00  0.54999999763E+01  0.55000000000E+01  0.51109989000E-03 0. -1.
     -623   -1    0    0    0    0  0.00000000000E+00  0.00000000000E+00  0.93234578044E-11  0.17124000000E+03  0.17124000000E+03 0. -1.
       11    1    1    2    0    0  0.31781217202E-01 -0.33841619988E-01  0.62821928038E+00  0.62993255709E+00  0.51109989000E-03 0. -1.
     -623    1    1    2    0    0 -0.18664878835E-01  0.42880508188E-01  0.31830148518E-02  0.17124000642E+03  0.17124000000E+03 0. -1.
     -611    1    1    2    0    0  0.34472175676E-01  0.36379317916E-01  0.15462116821E+01  0.15470237919E+01  0.51109989000E-03 0.  1.
      611    1    1    2    0    0 -0.47588514043E-01 -0.45418206116E-01  0.33223859990E+01  0.33230372353E+01  0.51109989000E-03 0. -1.
</event>
<event>
 6   3  0.2312675E+03  0.9118800E+02  0.7818608E-02  0.1180000E+00
       11   -1    0    0    0    0  0.00000000000E+00  0.00000000000E+00  0.54999999763E+01  0.55000000000E+01  0.51109989000E-03 0. -1.
     -623   -1    0    0    0    0  0.00000000000E+00  0.00000000000E+00  0.93234578044E-11  0.17124000000E+03  0.17124000000E+03 0.  1.
       11    1    1    2    0    0  0.61535742625E-01  0.40968456658E-01  0.10876414536E+01  0.10901510239E+01  0.51109989000E-03 0. -1.
     -623    1    1    2    0    0  0.14850423263E-01 -0.35523584720E-01  0.31791379500E-02  0.17124000436E+03  0.17124000000E+03 0.  1.
     -611    1    1    2    0    0 -0.21451357856E-01 -0.10997925099E-02  0.12397120234E+01  0.12398981944E+01  0.51109989000E-03 0. -1.
      611    1    1    2    0    0 -0.54934808054E-01 -0.43450794291E-02  0.31694673626E+01  0.31699464249E+01  0.51109989000E-03 0. -1.
</event>
<event>
 6   3  0.2312675E+03  0.9118800E+02  0.7818608E-02  0.1180000E+00
       11   -1    0    0    0    0  0.00000000000E+00  0.00000000000E+00  0.54999999763E+01  0.55000000000E+01  0.51109989000E-03 0.  1.
     -623   -1    0    0    0    0  0.00000000000E+00  0.00000000000E+00  0.93234578044E-11  0.17124000000E+03  0.17124000000E+03 0.  1.
       11    1    1    2    0    0  0.82816091118E-01 -0.29450591579E-01  0.71150597088E+00  0.71691481371E+00  0.51109989000E-03 0.  1.
     -623    1    1    2    0    0 -0.21122845917E-02  0.69491014800E-02  0.61438643792E-02  0.17124000026E+03  0.17124000000E+03 0.  1.
     -611    1    1    2    0    0 -0.17824962411E-01  0.45931246052E-02  0.99066934620E+00  0.99084047193E+00  0.51109989000E-03 0.  1.
      611    1    1    2    0    0 -0.62878844120E-01  0.17908365495E-01  0.37916807950E+01  0.37922444504E+01  0.51109989000E-03 0.  1.
</event>
<event>
 6   3  0.2312675E+03  0.9118800E+02  0.7818608E-02  0.1180000E+00
       11   -1    0    0    0    0  0.00000000000E+00  0.00000000000E+00  0.54999999763E+01  0.55000000000E+01  0.51109989000E-03 0. -1.
     -623   -1    0    0    0    0  0.00000000000E+00  0.00000000000E+00  0.93234578044E-11  0.17124000000E+03  0.17124000000E+03 0. -1.
       11    1    1    2    0    0 -0.36438390131E-02  0.31781105908E-02  0.30040369913E+00  0.30044304223E+00  0.51109989000E-03 0. -1.
     -623    1    1    2    0    0  0.92301106478E-03 -0.19375166749E-02  0.39490646253E-03  0.17124000001E+03  0.17124000000E+03 0. -1.
     -611    1    1    2    0    0  0.31560856079E-01 -0.21254008098E-02  0.29807854462E+01  0.29809533278E+01  0.51109989000E-03 0.  1.
      611    1    1    2    0    0 -0.28840028130E-01  0.88480689390E-03  0.22184159245E+01  0.22186036161E+01  0.51109989000E-03 0. -1.
</event>
<event>
 6   3  0.2312675E+03  0.9118800E+02  0.7818608E-02  0.1180000E+00
       11   -1    0    0    0    0  0.00000000000E+00  0.00000000000E+00  0.54999999763E+01  0.55000000000E+01  0.51109989000E-03 0. -1.
     -623   -1    0    0    0    0  0.00000000000E+00  0.00000000000E+00  0.93234578044E-11  0.17124000000E+03  0.17124000000E+03 0.  1.
       11    1    1    2    0    0 -0.79712626953E-02 -0.27964344135E-02  0.18380894028E+00  0.18400366524E+00  0.51109989000E-03 0. -1.
     -623    1    1    2    0    0 -0.17249762555E-02 -0.16795535410E-02  0.64823148520E-03  0.17124000002E+03  0.17124000000E+03 0.  1.
     -611    1    1    2    0    0 -0.29641247384E-01  0.13427053352E-02  0.25273141337E+01  0.25274883576E+01  0.51109989000E-03 0.  1.
      611    1    1    2    0    0  0.39337486335E-01  0.31332826192E-02  0.27882286707E+01  0.27885079588E+01  0.51109989000E-03 0. -1.
</event>
<event>
 6   3  0.2312675E+03  0.9118800E+02  0.7818608E-02  0.1180000E+00
       11   -1    0    0    0    0  0.00000000000E+00  0.00000000000E+00  0.54999999763E+01  0.55000000000E+01  0.51109989000E-03 0. -1.
     -623   -1    0    0    0    0  0.00000000000E+00  0.00000000000E+00  0.93234578044E-11  0.17124000000E+03  0.17124000000E+03 0. -1.
       11    1    1    2    0    0  0.86884568203E-02  0.33884518106E-02  0.54065606748E+00  0.54073673393E+00  0.51109989000E-03 0. -1.
     -623    1    1    2    0    0  0.14025330706E-01  0.43517741886E-02  0.10948938724E-02  0.17124000063E+03  0.17124000000E+03 0. -1.
     -611    1    1    2    0    0  0.32002005185E-01 -0.14024068339E-02  0.78954153765E+00  0.79019124013E+00  0.51109989000E-03 0.  1.
      611    1    1    2    0    0 -0.54715792712E-01 -0.63378191652E-02  0.41687074772E+01  0.41690713927E+01  0.51109989000E-03 0. -1.
</event>
<event>
 6   3  0.2312675E+03  0.9118800E+02  0.7818608E-02  0.1180000E+00
       11   -1    0    0    0    0  0.00000000000E+00  0.00000000000E+00  0.54999999763E+01  0.55000000000E+01  0.51109989000E-03 0.  1.
     -623   -1    0    0    0    0  0.00000000000E+00  0.00000000000E+00  0.93234578044E-11  0.17124000000E+03  0.17124000000E+03 0.  1.
       11    1    1    2    0    0 -0.17716078584E-01  0.71701355656E-02  0.32072022944E+00  0.32128958446E+00  0.51109989000E-03 0.  1.
     -623    1    1    2    0    0  0.40481899528E-01  0.17470932101E-01  0.13477198622E-02  0.17124000568E+03  0.17124000000E+03 0.  1.
     -611    1    1    2    0    0  0.26634286781E-01  0.76819549331E-02  0.11191300796E+01  0.11194734449E+01  0.51109989000E-03 0. -1.
      611    1    1    2    0    0 -0.49400107725E-01 -0.32323022599E-01  0.40588019474E+01  0.40592312890E+01  0.51109989000E-03 0.  1.
</event>
<event>
 6   3  0.2312675E+03  0.9118800E+02  0.7818608E-02  0.1180000E+00
       11   -1    0    0    0    0  0.00000000000E+00  0.00000000000E+00  0.54999999763E+01  0.55000000000E+01  0.51109989000E-03 0.  1.
     -623   -1    0    0    0    0  0.00000000000E+00  0.00000000000E+00  0.93234578044E-11  0.17124000000E+03  0.17124000000E+03 0. -1.
       11    1    1    2    0    0  0.29771317449E-01  0.27751826485E-04  0.39116195284E+00  0.39229359756E+00  0.51109989000E-03 0.  1.
     -623    1    1    2    0    0  0.34544671002E-01 -0.29702320606E-01  0.16292619022E-02  0.17124000607E+03  0.17124000000E+03 0. -1.
     -611    1    1    2    0    0 -0.54353388157E-01  0.24770312478E-01  0.42713481331E+01  0.42717657935E+01  0.51109989000E-03 0.  1.
      611    1    1    2    0    0 -0.99626003012E-02  0.49042563061E-02  0.83586062914E+00  0.83593454152E+00  0.51109989000E-03 0. -1.
</event>
<event>
 6   3  0.2312675E+03  0.9118800E+02  0.7818608E-02  0.1180000E+00
       11   -1    0    0    0    0  0.00000000000E+00  0.00000000000E+00  0.54999999763E+01  0.55000000000E+01  0.51109989000E-03 0. -1.
     -623   -1    0    0    0    0  0.00000000000E+00  0.00000000000E+00  0.93234578044E-11  0.17124000000E+03  0.17124000000E+03 0.  1.
       11    1    1    2    0    0  0.12981327125E-01 -0.72281110579E-03  0.82561976904E+00  0.82572229082E+00  0.51109989000E-03 0. -1.
     -623    1    1    2    0    0 -0.63769505213E-01 -0.17931210964E-01  0.42860944016E-03  0.17124001281E+03  0.17124000000E+03 0.  1.
     -611    1    1    2    0    0  0.27311277823E-01  0.10310757594E-01  0.25131311148E+01  0.25133007140E+01  0.51109989000E-03 0. -1.
      611    1    1    2    0    0  0.23476900418E-01  0.83432645187E-02  0.21608204962E+01  0.21609641952E+01  0.51109989000E-03 0. -1.
</event>
<event>
 6   3  0.2312675E+03  0.9118800E+02  0.7818608E-02  0.1180000E+00
       11   -1    0    0    0    0  0.00000000000E+00  0.00000000000E+00  0.54999999763E+01  0.55000000000E+01  0.51109989000E-03 0. -1.
     -623   -1    0    0    0    0  0.00000000000E+00  0.00000000000E+00  0.93234578044E-11  0.17124000000E+03  0.17124000000E+03 0.  1.
       11    1    1    2    0    0  0.58634858339E-02  0.20216998336E-01  0.36007670135E+00  0.36069183463E+00  0.51109989000E-03 0. -1.
     -623    1    1    2    0    0 -0.17400466945E-01 -0.52952149394E-02  0.31366981811E-02  0.17124000099E+03  0.17124000000E+03 0.  1.
     -611    1    1    2    0    0 -0.35296178472E-01 -0.47972326371E-01  0.82803931073E+00  0.83017861069E+00  0.51109989000E-03 0.  1.
      611    1    1    2    0    0  0.46833159583E-01  0.33050542974E-01  0.43087472660E+01  0.43091285600E+01  0.51109989000E-03 0. -1.
</event>
<event>
 6   3  0.2312675E+03  0.9118800E+02  0.7818608E-02  0.1180000E+00
       11   -1    0    0    0    0  0.00000000000E+00  0.00000000000E+00  0.54999999763E+01  0.55000000000E+01  0.51109989000E-03 0.  1.
     -623   -1    0    0    0    0  0.00000000000E+00  0.00000000000E+00  0.93234578044E-11  0.17124000000E+03  0.17124000000E+03 0. -1.
       11    1    1    2    0    0 -0.78454657654E-02 -0.13787281947E-01  0.36548380351E+00  0.36582825523E+00  0.51109989000E-03 0.  1.
     -623    1    1    2    0    0  0.78394972266E-01 -0.21145520833E-01  0.96799740707E-03  0.17124001925E+03  0.17124000000E+03 0. -1.
     -611    1    1    2    0    0 -0.21064338717E-01  0.10936804274E-01  0.16167409132E+01  0.16169151993E+01  0.51109989000E-03 0. -1.
      611    1    1    2    0    0 -0.49485167783E-01  0.23995998507E-01  0.35168072621E+01  0.35172372923E+01  0.51109989000E-03 0.  1.
</event>
<event>
 6   3  0.2312675E+03  0.9118800E+02  0.7818608E-02  0.1180000E+00
       11   -1    0    0    0    0  0.00000000000E+00  0.00000000000E+00  0.54999999763E+01  0.55000000000E+01  0.51109989000E-03 0. -1.
     -623   -1    0    0    0    0  0.00000000000E+00  0.00000000000E+00  0.93234578044E-11  0.17124000000E+03  0.17124000000E+03 0.  1.
       11    1    1    2    0    0  0.47093797629E-01 -0.40228815086E-02  0.10262469632E+01  0.10273349502E+01  0.51109989000E-03 0. -1.
     -623    1    1    2    0    0  0.77445079892E-02  0.91896421649E-02  0.15100144693E-02  0.17124000043E+03  0.17124000000E+03 0.  1.
     -611    1    1    2    0    0 -0.24991501639E-01 -0.15955190677E-01  0.22110467507E+01  0.22112456078E+01  0.51109989000E-03 0. -1.
      611    1    1    2    0    0 -0.29846803980E-01  0.10788430021E-01  0.22611962481E+01  0.22614190137E+01  0.51109989000E-03 0.  1.
</event>
<event>
 6   3  0.2312675E+03  0.9118800E+02  0.7818608E-02  0.1180000E+00
       11   -1    0    0    0    0  0.00000000000E+00  0.00000000000E+00  0.54999999763E+01  0.55000000000E+01  0.51109989000E-03 0. -1.
     -623   -1    0    0    0    0  0.00000000000E+00  0.00000000000E+00  0.93234578044E-11  0.17124000000E+03  0.17124000000E+03 0. -1.
       11    1    1    2    0    0 -0.13868266216E-02 -0.31592155060E-02  0.53481823362E-02  0.63849986759E-02  0.51109989000E-03 0. -1.
     -623    1    1    2    0    0 -0.19388069538E-02  0.55798269533E-03  0.31455558228E-02  0.17124000004E+03  0.17124000000E+03 0. -1.
     -611    1    1    2    0    0 -0.73586243454E-01 -0.95953761438E-02  0.27857559809E+01  0.27867442747E+01  0.51109989000E-03 0.  1.
      611    1    1    2    0    0  0.76911877030E-01  0.12196608954E-01  0.27057502572E+01  0.27068706858E+01  0.51109989000E-03 0. -1.
</event>
<event>
 6   3  0.2312675E+03  0.9118800E+02  0.7818608E-02  0.1180000E+00
       11   -1    0    0    0    0  0.00000000000E+00  0.00000000000E+00  0.54999999763E+01  0.55000000000E+01  0.51109989000E-03 0. -1.
     -623   -1    0    0    0    0  0.00000000000E+00  0.00000000000E+00  0.93234578044E-11  0.17124000000E+03  0.17124000000E+03 0.  1.
       11    1    1    2    0    0 -0.47337034605E-02 -0.15682818824E-02  0.23927995943E-01  0.24447447095E-01  0.51109989000E-03 0. -1.
     -623    1    1    2    0    0  0.20823148596E-02 -0.14541100382E-02  0.11800629107E-02  0.17124000002E+03  0.17124000000E+03 0.  1.
     -611    1    1    2    0    0  0.34470378339E-01  0.26757765522E-01  0.23155711851E+01  0.23159823746E+01  0.51109989000E-03 0.  1.
      611    1    1    2    0    0 -0.31818989738E-01 -0.23735373601E-01  0.31593207324E+01  0.31595701555E+01  0.51109989000E-03 0. -1.
</event>
<event>
 6   3  0.2312675E+03  0.9118800E+02  0.7818608E-02  0.1180000E+00
       11   -1    0    0    0    0  0.00000000000E+00  0.00000000000E+00  0.54999999763E+01  0.55000000000E+01  0.51109989000E-03 0.  1.
     -623   -1    0    0    0    0  0.00000000000E+00  0.00000000000E+00  0.93234578044E-11  0.17124000000E+03  0.17124000000E+03 0. -1.
       11    1    1    2    0    0 -0.14767704064E-01  0.18163028890E-02  0.12822514266E+00  0.12908653095E+00  0.51109989000E-03 0.  1.
     -623    1    1    2    0    0 -0.68056941238E-01  0.80615735229E-01  0.22131910369E-02  0.17124003251E+03  0.17124000000E+03 0. -1.
     -611    1    1    2    0    0  0.64038874822E-01 -0.74686784628E-01  0.45908157245E+01  0.45918698120E+01  0.51109989000E-03 0.  1.
      611    1    1    2    0    0  0.18785770481E-01 -0.77452534901E-02  0.77874591814E+00  0.77901114264E+00  0.51109989000E-03 0. -1.
</event>
<event>
 6   3  0.2312675E+03  0.9118800E+02  0.7818608E-02  0.1180000E+00
       11   -1    0    0    0    0  0.00000000000E+00  0.00000000000E+00  0.54999999763E+01  0.55000000000E+01  0.51109989000E-03 0.  1.
     -623   -1    0    0    0    0  0.00000000000E+00  0.00000000000E+00  0.93234578044E-11  0.17124000000E+03  0.17124000000E+03 0. -1.
       11    1    1    2    0    0  0.86746049375E-01 -0.67953916776E-01  0.59611279614E+00  0.60621228859E+00  0.51109989000E-03 0.  1.
     -623    1    1    2    0    0  0.25300180040E-02  0.36585278338E-01  0.11213988497E-01  0.17124000429E+03  0.17124000000E+03 0. -1.
     -611    1    1    2    0    0 -0.67651439912E-01  0.41245412742E-01  0.34162104357E+01  0.34171291904E+01  0.51109989000E-03 0.  1.
      611    1    1    2    0    0 -0.21624627467E-01 -0.98767743047E-02  0.14764627559E+01  0.14766542270E+01  0.51109989000E-03 0. -1.
</event>
<event>
 6   3  0.2312675E+03  0.9118800E+02  0.7818608E-02  0.1180000E+00
       11   -1    0    0    0    0  0.00000000000E+00  0.00000000000E+00  0.54999999763E+01  0.55000000000E+01  0.51109989000E-03 0. -1.
     -623   -1    0    0    0    0  0.00000000000E+00  0.00000000000E+00  0.93234578044E-11  0.17124000000E+03  0.17124000000E+03 0. -1.
       11    1    1    2    0    0 -0.66751784448E-01 -0.20347109006E-01  0.60395078320E+00  0.60796925525E+00  0.51109989000E-03 0. -1.
     -623    1    1    2    0    0 -0.32246405371E-02 -0.45929698249E-02  0.45829566304E-02  0.17124000015E+03  0.17124000000E+03 0. -1.
     -611    1    1    2    0    0  0.53250491444E-01  0.18477348251E-01  0.37074194501E+01  0.37078479294E+01  0.51109989000E-03 0. -1.
      611    1    1    2    0    0  0.16725933559E-01  0.64627305857E-02  0.11840467876E+01  0.11841826634E+01  0.51109989000E-03 0. -1.
</event>
<event>
 6   3  0.2312675E+03  0.9118800E+02  0.7818608E-02  0.1180000E+00
       11   -1    0    0    0    0  0.00000000000E+00  0.00000000000E+00  0.54999999763E+01  0.55000000000E+01  0.51109989000E-03 0.  1.
     -623   -1    0    0    0    0  0.00000000000E+00  0.00000000000E+00  0.93234578044E-11  0.17124000000E+03  0.17124000000E+03 0.  1.
       11    1    1    2    0    0 -0.18822286525E-01  0.17828188016E-01  0.21932625988E+00  0.22085378026E+00  0.51109989000E-03 0.  1.
     -623    1    1    2    0    0 -0.38547062228E-03 -0.74074998509E-02  0.28987236803E-02  0.17124000019E+03  0.17124000000E+03 0.  1.
     -611    1    1    2    0    0  0.50728425176E-01  0.10869488257E-01  0.46077196224E+01  0.46080117078E+01  0.51109989000E-03 0.  1.
      611    1    1    2    0    0 -0.31520668028E-01 -0.21290176423E-01  0.67005537028E+00  0.67113432679E+00  0.51109989000E-03 0. -1.
</event>
<event>
 6   3  0.2312675E+03  0.9118800E+02  0.7818608E-02  0.1180000E+00
       11   -1    0    0    0    0  0.00000000000E+00  0.00000000000E+00  0.54999999763E+01  0.55000000000E+01  0.51109989000E-03 0.  1.
     -623   -1    0    0    0    0  0.00000000000E+00  0.00000000000E+00  0.93234578044E-11  0.17124000000E+03  0.17124000000E+03 0. -1.
       11    1    1    2    0    0 -0.25524529381E-01 -0.13586120160E-01  0.25661156198E+00  0.25823601458E+00  0.51109989000E-03 0.  1.
     -623    1    1    2    0    0  0.24678452216E-02  0.11544070263E-02  0.25560383584E-02  0.17124000004E+03  0.17124000000E+03 0. -1.
     -611    1    1    2    0    0  0.59465474834E-01 -0.23242693990E-02  0.31082396846E+01  0.31088093771E+01  0.51109989000E-03 0.  1.
      611    1    1    2    0    0 -0.36408790674E-01  0.14755982532E-01  0.21325926914E+01  0.21329545676E+01  0.51109989000E-03 0. -1.
</event>
<event>
 6   3  0.2312675E+03  0.9118800E+02  0.7818608E-02  0.1180000E+00
       11   -1    0    0    0    0  0.00000000000E+00  0.00000000000E+00  0.54999999763E+01  0.55000000000E+01  0.51109989000E-03 0. -1.
     -623   -1    0    0    0    0  0.00000000000E+00  0.00000000000E+00  0.93234578044E-11  0.17124000000E+03  0.17124000000E+03 0.  1.
       11    1    1    2    0    0  0.33621486742E-03  0.33399595039E-02  0.17261755231E-02  0.38091042200E-02  0.51109989000E-03 0. -1.
     -623    1    1    2    0    0  0.74875749758E-02 -0.17437517001E-02  0.61781899010E-02  0.17124000028E+03  0.17124000000E+03 0.  1.
     -611    1    1    2    0    0 -0.56847783299E-01  0.90828877860E-01  0.29362291704E+01  0.29381837175E+01  0.51109989000E-03 0. -1.
      611    1    1    2    0    0  0.49023993456E-01 -0.92425085663E-01  0.25558664405E+01  0.25580068943E+01  0.51109989000E-03 0.  1.
</event>
<event>
 6   3  0.2312675E+03  0.9118800E+02  0.7818608E-02  0.1180000E+00
       11   -1    0    0    0    0  0.00000000000E+00  0.00000000000E+00  0.54999999763E+01  0.55000000000E+01  0.51109989000E-03 0. -1.
     -623   -1    0    0    0    0  0.00000000000E+00  0.00000000000E+00  0.93234578044E-11  0.17124000000E+03  0.17124000000E+03 0. -1.
       11    1    1    2    0    0  0.17352216474E-01 -0.49641443408E-02  0.24000913907E+00  0.24068732872E+00  0.51109989000E-03 0. -1.
     -623    1    1    2    0    0  0.28516818868E-01  0.36827565316E-01  0.22258184706E-02  0.17124000635E+03  0.17124000000E+03 0. -1.
     -611    1    1    2    0    0 -0.81821696961E-01 -0.37000080876E-01  0.33962591145E+01  0.33974461041E+01  0.51109989000E-03 0. -1.
      611    1    1    2    0    0  0.35952661618E-01  0.51366598999E-02  0.18615059042E+01  0.18618602181E+01  0.51109989000E-03 0.  1.
</event>
<event>
 6   3  0.2312675E+03  0.9118800E+02  0.7818608E-02  0.1180000E+00
       11   -1    0    0    0    0  0.00000000000E+00  0.00000000000E+00  0.54999999763E+01  0.55000000000E+01  0.51109989000E-03 0. -1.
     -623   -1    0    0    0    0  0.00000000000E+00  0.00000000000E+00  0.93234578044E-11  0.17124000000E+03  0.17124000000E+03 0. -1.
       11    1    1    2    0    0 -0.17830160663E-02 -0.15588377877E-01  0.89963485324E+00  0.89977180833E+00  0.51109989000E-03 0. -1.
     -623    1    1    2    0    0  0.44830452104E-03 -0.17132768712E-02  0.99070311962E-03  0.17124000001E+03  0.17124000000E+03 0. -1.
     -611    1    1    2    0    0 -0.40984498658E-01  0.11738978394E-01  0.29204536446E+01  0.29207648458E+01  0.51109989000E-03 0.  1.
      611    1    1    2    0    0  0.42319210203E-01  0.55626763545E-02  0.16789207754E+01  0.16794633340E+01  0.51109989000E-03 0. -1.
</event>
<event>
 6   3  0.2312675E+03  0.9118800E+02  0.7818608E-02  0.1180000E+00
       11   -1    0    0    0    0  0.00000000000E+00  0.00000000000E+00  0.54999999763E+01  0.55000000000E+01  0.51109989000E-03 0. -1.
     -623   -1    0    0    0    0  0.00000000000E+00  0.00000000000E+00  0.93234578044E-11  0.17124000000E+03  0.17124000000E+03 0.  1.
       11    1    1    2    0    0  0.30504053821E-01  0.18659579813E-01  0.29407098801E+00  0.29623754730E+00  0.51109989000E-03 0. -1.
     -623    1    1    2    0    0  0.32887685696E-01 -0.25948789528E-01  0.25664305146E-02  0.17124000514E+03  0.17124000000E+03 0.  1.
     -611    1    1    2    0    0 -0.41283481329E-01  0.60418746857E-02  0.35985842362E+01  0.35988261414E+01  0.51109989000E-03 0. -1.
      611    1    1    2    0    0 -0.22108258186E-01  0.12473350288E-02  0.16047783213E+01  0.16049311676E+01  0.51109989000E-03 0.  1.
</event>
<event>
 6   3  0.2312675E+03  0.9118800E+02  0.7818608E-02  0.1180000E+00
       11   -1    0    0    0    0  0.00000000000E+00  0.00000000000E+00  0.54999999763E+01  0.55000000000E+01  0.51109989000E-03 0.  1.
     -623   -1    0    0    0    0  0.00000000000E+00  0.00000000000E+00  0.93234578044E-11  0.17124000000E+03  0.17124000000E+03 0.  1.
       11    1    1    2    0    0 -0.44630298749E-01  0.34195043881E-01  0.38778609051E+00  0.39184113848E+00  0.51109989000E-03 0.  1.
     -623    1    1    2    0    0 -0.21549886380E-01  0.53570778061E-02  0.48836420565E-02  0.17124000151E+03  0.17124000000E+03 0.  1.
     -611    1    1    2    0    0  0.42426287720E-01 -0.50325602371E-01  0.36867349793E+01  0.36873225686E+01  0.51109989000E-03 0.  1.
      611    1    1    2    0    0  0.23753897409E-01  0.10773480684E-01  0.14205952644E+01  0.14208347835E+01  0.51109989000E-03 0. -1.
</event>
<event>
 6   3  0.2312675E+03  0.9118800E+02  0.7818608E-02  0.1180000E+00
       11   -1    0    0    0    0  0.00000000000E+00  0.00000000000E+00  0.54999999763E+01  0.55000000000E+01  0.51109989000E-03 0. -1.
     -623   -1    0    0    0    0  0.00000000000E+00  0.00000000000E+00  0.93234578044E-11  0.17124000000E+03  0.17124000000E+03 0. -1.
       11    1    1    2    0    0 -0.37825179223E-02 -0.35828063813E-03  0.12373838607E-01  0.12954107913E-01  0.51109989000E-03 0. -1.
     -623    1    1    2    0    0  0.47358160682E-02 -0.26885350926E-02  0.11996962412E-02  0.17124000009E+03  0.17124000000E+03 0. -1.
     -611    1    1    2    0    0  0.39891150378E-01 -0.52131922442E-02  0.30070093145E+01  0.30072784640E+01  0.51109989000E-03 0.  1.
      611    1    1    2    0    0 -0.40844448524E-01  0.82600079750E-02  0.24794171270E+01  0.24797673373E+01  0.51109989000E-03 0. -1.
</event>
<event>
 6   3  0.2312675E+03  0.9118800E+02  0.7818608E-02  0.1180000E+00
       11   -1    0    0    0    0  0.00000000000E+00  0.00000000000E+00  0.54999999763E+01  0.55000000000E+01  0.51109989000E-03 0.  1.
     -623   -1    0    0    0    0  0.00000000000E+00  0.00000000000E+00  0.93234578044E-11  0.17124000000E+03  0.17124000000E+03 0. -1.
       11    1    1    2    0    0  0.21427704164E-01 -0.47462272125E-02  0.84535283359E+00  0.84563783481E+00  0.51109989000E-03 0.  1.
     -623    1    1    2    0    0  0.69450435795E-02 -0.25404141018E-03  0.77157797590E-03  0.17124000014E+03  0.17124000000E+03 0. -1.
     -611    1    1    2    0    0 -0.44029768576E-01 -0.17586349495E-02  0.40663741160E+01  0.40666128936E+01  0.51109989000E-03 0. -1.
      611    1    1    2    0    0  0.15657020832E-01  0.67589035722E-02  0.58750144856E+00  0.58774912877E+00  0.51109989000E-03 0.  1.
</event>
<event>
 6   3  0.2312675E+03  0.9118800E+02  0.7818608E-02  0.1180000E+00
       11   -1    0    0    0    0  0.00000000000E+00  0.00000000000E+00  0.54999999763E+01  0.55000000000E+01  0.51109989000E-03 0. -1.
     -623   -1    0    0    0    0  0.00000000000E+00  0.00000000000E+00  0.93234578044E-11  0.17124000000E+03  0.17124000000E+03 0. -1.
       11    1    1    2    0    0 -0.53418960342E-01  0.23518027785E-03  0.34502868007E+00  0.34913993173E+00  0.51109989000E-03 0. -1.
     -623    1    1    2    0    0 -0.76731463905E-02  0.31961076375E-02  0.44750455541E-02  0.17124000026E+03  0.17124000000E+03 0. -1.
     -611    1    1    2    0    0  0.26538124357E-01 -0.13975088225E-02  0.22316016676E+01  0.22317599533E+01  0.51109989000E-03 0. -1.
      611    1    1    2    0    0  0.34553982470E-01 -0.20337790982E-02  0.29188945910E+01  0.29190998627E+01  0.51109989000E-03 0. -1.
</event>
<event>
 6   3  0.2312675E+03  0.9118800E+02  0.7818608E-02  0.1180000E+00
       11   -1    0    0    0    0  0.00000000000E+00  0.00000000000E+00  0.54999999763E+01  0.55000000000E+01  0.51109989000E-03 0. -1.
     -623   -1    0    0    0    0  0.00000000000E+00  0.00000000000E+00  0.93234578044E-11  0.17124000000E+03  0.17124000000E+03 0. -1.
       11    1    1    2    0    0 -0.94637183536E-02 -0.68143084422E-02  0.11859135625E+00  0.11916445680E+00  0.51109989000E-03 0. -1.
     -623    1    1    2    0    0  0.13643701708E-01  0.11642826780E-02  0.31506030430E-02  0.17124000058E+03  0.17124000000E+03 0. -1.
     -611    1    1    2    0    0 -0.57119246085E-01  0.28422166499E-01  0.46013473339E+01  0.46017896493E+01  0.51109989000E-03 0. -1.
      611    1    1    2    0    0  0.52939262731E-01 -0.22772140735E-01  0.77691068306E+00  0.77904531743E+00  0.51109989000E-03 0.  1.
</event>
<event>
 6   3  0.2312675E+03  0.9118800E+02  0.7818608E-02  0.1180000E+00
       11   -1    0    0    0    0  0.00000000000E+00  0.00000000000E+00  0.54999999763E+01  0.55000000000E+01  0.51109989000E-03 0.  1.
     -623   -1    0    0    0    0  0.00000000000E+00  0.00000000000E+00  0.93234578044E-11  0.17124000000E+03  0.17124000000E+03 0.  1.
       11    1    1    2    0    0 -0.47423996201E-02  0.16535860742E-02  0.78048056252E+00  0.78049688942E+00  0.51109989000E-03 0.  1.
     -623    1    1    2    0    0  0.56051142145E-01 -0.21563026230E-01  0.34796353329E-03  0.17124001053E+03  0.17124000000E+03 0.  1.
     -611    1    1    2    0    0 -0.82345165821E-02  0.31909173258E-02  0.74756887327E+00  0.74762120805E+00  0.51109989000E-03 0.  1.
      611    1    1    2    0    0 -0.43074225966E-01  0.16718522839E-01  0.39716025794E+01  0.39718713735E+01  0.51109989000E-03 0.  1.
</event>
<event>
 6   3  0.2312675E+03  0.9118800E+02  0.7818608E-02  0.1180000E+00
       11   -1    0    0    0    0  0.00000000000E+00  0.00000000000E+00  0.54999999763E+01  0.55000000000E+01  0.51109989000E-03 0. -1.
     -623   -1    0    0    0    0  0.00000000000E+00  0.00000000000E+00  0.93234578044E-11  0.17124000000E+03  0.17124000000E+03 0.  1.
       11    1    1    2    0    0  0.26176106919E-01 -0.22092082480E-01  0.11527740255E+00  0.12025967505E+00  0.51109989000E-03 0. -1.
     -623    1    1    2    0    0  0.51801813142E-01  0.50997724028E-01  0.14210841542E-01  0.17124001602E+03  0.17124000000E+03 0.  1.
     -611    1    1    2    0    0  0.59006936888E-01 -0.34987245321E-01  0.42897828044E+01  0.42903313038E+01  0.51109989000E-03 0. -1.
      611    1    1    2    0    0 -0.13698485695E+00  0.60816037721E-02  0.10807289278E+01  0.10893930023E+01  0.51109989000E-03 0.  1.
</event>
<event>
 6   3  0.2312675E+03  0.9118800E+02  0.7818608E-02  0.1180000E+00
       11   -1    0    0    0    0  0.00000000000E+00  0.00000000000E+00  0.54999999763E+01  0.55000000000E+01  0.51109989000E-03 0. -1.
     -623   -1    0    0    0    0  0.00000000000E+00  0.00000000000E+00  0.93234578044E-11  0.17124000000E+03  0.17124000000E+03 0.  1.
       11    1    1    2    0    0  0.16809927410E-01 -0.30016519511E-02  0.73085175079E+00  0.73105138426E+00  0.51109989000E-03 0. -1.
     -623    1    1    2    0    0 -0.15469214477E-01  0.54343625993E-02  0.51295900293E-03  0.17124000079E+03  0.17124000000E+03 0.  1.
     -611    1    1    2    0    0  0.25229836595E-01 -0.96290814048E-02  0.24705784112E+01  0.24707260493E+01  0.51109989000E-03 0. -1.
      611    1    1    2    0    0 -0.26570549528E-01  0.71963707568E-02  0.22980568551E+01  0.22982217805E+01  0.51109989000E-03 0.  1.
</event>
<event>
 6   3  0.2312675E+03  0.9118800E+02  0.7818608E-02  0.1180000E+00
       11   -1    0    0    0    0  0.00000000000E+00  0.00000000000E+00  0.54999999763E+01  0.55000000000E+01  0.51109989000E-03 0.  1.
     -623   -1    0    0    0    0  0.00000000000E+00  0.00000000000E+00  0.93234578044E-11  0.17124000000E+03  0.17124000000E+03 0.  1.
       11    1    1    2    0    0  0.99178282380E-02  0.17122811997E-01  0.70127364297E+00  0.70155294708E+00  0.51109989000E-03 0.  1.
     -623    1    1    2    0    0 -0.73011751052E-01 -0.52346764163E-01  0.84709313791E-03  0.17124002357E+03  0.17124000000E+03 0.  1.
     -611    1    1    2    0    0  0.39328770543E-01  0.22015703351E-01  0.29859038708E+01  0.29862440674E+01  0.51109989000E-03 0.  1.
      611    1    1    2    0    0  0.23765152219E-01  0.13208248784E-01  0.18119753654E+01  0.18121794134E+01  0.51109989000E-03 0.  1.
</event>
<event>
 6   3  0.2312675E+03  0.9118800E+02  0.7818608E-02  0.1180000E+00
       11   -1    0    0    0    0  0.00000000000E+00  0.00000000000E+00  0.54999999763E+01  0.55000000000E+01  0.51109989000E-03 0. -1.
     -623   -1    0    0    0    0  0.00000000000E+00  0.00000000000E+00  0.93234578044E-11  0.17124000000E+03  0.17124000000E+03 0. -1.
       11    1    1    2    0    0 -0.80593995624E-01 -0.18499960490E-02  0.18295992585E+00  0.19993351471E+00  0.51109989000E-03 0. -1.
     -623    1    1    2    0    0 -0.14923776497E-01  0.44146209247E-01  0.18029403754E-01  0.17124000729E+03  0.17124000000E+03 0. -1.
     -611    1    1    2    0    0  0.27450059306E-01 -0.17569102823E-01  0.18671211400E+01  0.18674056313E+01  0.51109989000E-03 0. -1.
      611    1    1    2    0    0  0.68067712814E-01 -0.24727110374E-01  0.34318895066E+01  0.34326535639E+01  0.51109989000E-03 0.  1.
</event>
<event>
 6   3  0.2312675E+03  0.9118800E+02  0.7818608E-02  0.1180000E+00
       11   -1    0    0    0    0  0.00000000000E+00  0.00000000000E+00  0.54999999763E+01  0.55000000000E+01  0.51109989000E-03 0.  1.
     -623   -1    0    0    0    0  0.00000000000E+00  0.00000000000E+00  0.93234578044E-11  0.17124000000E+03  0.17124000000E+03 0. -1.
       11    1    1    2    0    0 -0.53803755006E-02  0.16216453219E-01  0.15270066332E+00  0.15365440311E+00  0.51109989000E-03 0.  1.
     -623    1    1    2    0    0  0.68229583301E-02 -0.24167050905E-01  0.23987160661E-02  0.17124000186E+03  0.17124000000E+03 0. -1.
     -611    1    1    2    0    0  0.46636927503E-01 -0.28216340111E-02  0.93407602726E+00  0.93524395243E+00  0.51109989000E-03 0. -1.
      611    1    1    2    0    0 -0.48079510332E-01  0.10772231698E-01  0.44108245696E+01  0.44110997864E+01  0.51109989000E-03 0.  1.
</event>
<event>
 6   3  0.2312675E+03  0.9118800E+02  0.7818608E-02  0.1180000E+00
       11   -1    0    0    0    0  0.00000000000E+00  0.00000000000E+00  0.54999999763E+01  0.55000000000E+01  0.51109989000E-03 0.  1.
     -623   -1    0    0    0    0  0.00000000000E+00  0.00000000000E+00  0.93234578044E-11  0.17124000000E+03  0.17124000000E+03 0. -1.
       11    1    1    2    0    0 -0.10510537464E-01 -0.61628823295E-02  0.26828883887E+00  0.26856584817E+00  0.51109989000E-03 0.  1.
     -623    1    1    2    0    0  0.24063938203E-02  0.44349210481E-01  0.79922901912E-03  0.17124000576E+03  0.17124000000E+03 0. -1.
     -611    1    1    2    0    0 -0.25612453801E-01 -0.23892260342E-01  0.19764747569E+01  0.19767851587E+01  0.51109989000E-03 0.  1.
      611    1    1    2    0    0  0.33716597444E-01 -0.14294067810E-01  0.32544371517E+01  0.32546432316E+01  0.51109989000E-03 0. -1.
</event>
<event>
 6   3  0.2312675E+03  0.9118800E+02  0.7818608E-02  0.1180000E+00
       11   -1    0    0    0    0  0.00000000000E+00  0.00000000000E+00  0.54999999763E+01  0.55000000000E+01  0.51109989000E-03 0. -1.
     -623   -1    0    0    0    0  0.00000000000E+00  0.00000000000E+00  0.93234578044E-11  0.17124000000E+03  0.17124000000E+03 0.  1.
       11    1    1    2    0    0 -0.71016218666E-01  0.63220234090E-02  0.64106997190E+00  0.64502266734E+00  0.51109989000E-03 0. -1.
     -623    1    1    2    0    0 -0.63749580618E-02  0.14381238373E-01  0.46232292814E-02  0.17124000078E+03  0.17124000000E+03 0.  1.
     -611    1    1    2    0    0  0.27322816004E-01 -0.44656837890E-02  0.14759390468E+01  0.14761987704E+01  0.51109989000E-03 0.  1.
      611    1    1    2    0    0  0.50068360725E-01 -0.16237577993E-01  0.33783677284E+01  0.33787777774E+01  0.51109989000E-03 0. -1.
</event>
<event>
 6   3  0.2312675E+03  0.9118800E+02  0.7818608E-02  0.1180000E+00
       11   -1    0    0    0    0  0.00000000000E+00  0.00000000000E+00  0.54999999763E+01  0.55000000000E+01  0.51109989000E-03 0.  1.
     -623   -1    0    0    0    0  0.00000000000E+00  0.00000000000E+00  0.93234578044E-11  0.17124000000E+03  0.17124000000E+03 0. -1.
       11    1    1    2    0    0 -0.16589087106E-01  0.19516552059E-01  0.56405628150E+00  0.56463779854E+00  0.51109989000E-03 0.  1.
     -623    1    1    2    0    0  0.21146163578E-02 -0.18044126170E-01  0.30954054193E-02  0.17124000099E+03  0.17124000000E+03 0. -1.
     -611    1    1    2    0    0  0.60155800815E-01 -0.66365504587E-02  0.81051274983E+00  0.81276930493E+00  0.51109989000E-03 0. -1.
      611    1    1    2    0    0 -0.45681330067E-01  0.51641245695E-02  0.41223355395E+01  0.41225919048E+01  0.51109989000E-03 0.  1.
</event>
<event>
 6   3  0.2312675E+03  0.9118800E+02  0.7818608E-02  0.1180000E+00
       11   -1    0    0    0    0  0.00000000000E+00  0.00000000000E+00  0.54999999763E+01  0.55000000000E+01  0.51109989000E-03 0. -1.
     -623   -1    0    0    0    0  0.00000000000E+00  0.00000000000E+00  0.93234578044E-11  0.17124000000E+03  0.17124000000E+03 0. -1.
       11    1    1    2    0    0  0.55990301439E-01  0.14370779124E-01  0.10737719487E+01  0.10753268769E+01  0.51109989000E-03 0. -1.
     -623    1    1    2    0    0  0.49205907205E-01 -0.50237071135E-01  0.29670755132E-02  0.17124001446E+03  0.17124000000E+03 0. -1.
     -611    1    1    2    0    0 -0.16434345252E-01  0.60504458964E-02  0.65074313360E+00  0.65097894186E+00  0.51109989000E-03 0.  1.
      611    1    1    2    0    0 -0.88761863382E-01  0.29815846111E-01  0.37725178181E+01  0.37736797164E+01  0.51109989000E-03 0. -1.
</event>
<event>
 6   3  0.2312675E+03  0.9118800E+02  0.7818608E-02  0.1180000E+00
       11   -1    0    0    0    0  0.00000000000E+00  0.00000000000E+00  0.54999999763E+01  0.55000000000E+01  0.51109989000E-03 0.  1.
     -623   -1    0    0    0    0  0.00000000000E+00  0.00000000000E+00  0.93234578044E-11  0.17124000000E+03  0.17124000000E+03 0.  1.
       11    1    1    2    0    0  0.18354304283E-02  0.43230036577E-03  0.81712162328E-01  0.81735514826E-01  0.51109989000E-03 0.  1.
     -623    1    1    2    0    0 -0.62947447953E-01 -0.28805474629E-02  0.38059489777E-03  0.17124001159E+03  0.17124000000E+03 0.  1.
     -611    1    1    2    0    0  0.24182856151E-01  0.14876887580E-02  0.22198558108E+01  0.22199880868E+01  0.51109989000E-03 0.  1.
      611    1    1    2    0    0  0.36929161226E-01  0.96055833255E-03  0.31980513953E+01  0.31982647911E+01  0.51109989000E-03 0.  1.
</event>
<event>
 6   3  0.2312675E+03  0.9118800E+02  0.7818608E-02  0.1180000E+00
       11   -1    0    0    0    0  0.00000000000E+00  0.00000000000E+00  0.54999999763E+01  0.55000000000E+01  0.51109989000E-03 0. -1.
     -623   -1    0    0    0    0  0.00000000000E+00  0.00000000000E+00  0.93234578044E-11  0.17124000000E+03  0.17124000000E+03 0. -1.
       11    1    1    2    0    0  0.59468365077E-01  0.18235419951E-01  0.88431944362E+00  0.88650445942E+00  0.51109989000E-03 0. -1.
     -623    1    1    2    0    0  0.32190336267E-02  0.28245139009E-02  0.26629773150E-02  0.17124000007E+03  0.17124000000E+03 0. -1.
     -611    1    1    2    0    0 -0.23952943428E-01 -0.88303960866E-02  0.19780904624E+01  0.19782552561E+01  0.51109989000E-03 0.  1.
      611    1    1    2    0    0 -0.38734455278E-01 -0.12229537767E-01  0.26349270931E+01  0.26352402105E+01  0.51109989000E-03 0. -1.
</event>
<event>
 6   3  0.2312675E+03  0.9118800E+02  0.7818608E-02  0.1180000E+00
       11   -1    0    0    0    0  0.00000000000E+00  0.00000000000E+00  0.54999999763E+01  0.55000000000E+01  0.51109989000E-03 0.  1.
     -623   -1    0    0    0    0  0.00000000000E+00  0.00000000000E+00  0.93234578044E-11  0.17124000000E+03  0.17124000000E+03 0.  1.
       11    1    1    2    0    0 -0.46920434607E-01  0.90247990164E-02  0.96830478106E+00  0.96948305010E+00  0.51109989000E-03 0.  1.
     -623    1    1    2    0    0 -0.45647716356E-03  0.17954860942E-02  0.14391985741E-02  0.17124000002E+03  0.17124000000E+03 0.  1.
     -611    1    1    2    0    0  0.34837196899E-01 -0.74504981408E-02  0.33089414722E+01  0.33091332805E+01  0.51109989000E-03 0. -1.
      611    1    1    2    0    0  0.12539714930E-01 -0.33697869831E-02  0.12213145301E+01  0.12213836590E+01  0.51109989000E-03 0.  1.
</event>
<event>
 6   3  0.2312675E+03  0.9118800E+02  0.7818608E-02  0.1180000E+00
       11   -1    0    0    0    0  0.00000000000E+00  0.00000000000E+00  0.54999999763E+01  0.55000000000E+01  0.51109989000E-03 0.  1.
     -623   -1    0    0    0    0  0.00000000000E+00  0.00000000000E+00  0.93234578044E-11  0.17124000000E+03  0.17124000000E+03 0. -1.
       11    1    1    2    0    0 -0.60716599805E-01 -0.19885216258E-01  0.92555285702E+00  0.92775550641E+00  0.51109989000E-03 0.  1.
     -623    1    1    2    0    0 -0.15516078855E-02 -0.56620101470E-03  0.27060354342E-02  0.17124000003E+03  0.17124000000E+03 0. -1.
     -611    1    1    2    0    0  0.49819308597E-01  0.10401419789E-01  0.37705014708E+01  0.37708449658E+01  0.51109989000E-03 0. -1.
      611    1    1    2    0    0  0.12448899093E-01  0.10049997483E-01  0.80123961303E+00  0.80139949853E+00  0.51109989000E-03 0.  1.
</event>
<event>
 6   3  0.2312675E+03  0.9118800E+02  0.7818608E-02  0.1180000E+00
       11   -1    0    0    0    0  0.00000000000E+00  0.00000000000E+00  0.54999999763E+01  0.55000000000E+01  0.51109989000E-03 0. -1.
     -623   -1    0    0    0    0  0.00000000000E+00  0.00000000000E+00  0.93234578044E-11  0.17124000000E+03  0.17124000000E+03 0. -1.
       11    1    1    2    0    0 -0.86722627515E-02  0.10324416624E-01  0.24493420428E+00  0.24530557957E+00  0.51109989000E-03 0. -1.
     -623    1    1    2    0    0 -0.44535244065E-02 -0.32037372879E-02  0.14212635377E-02  0.17124000009E+03  0.17124000000E+03 0. -1.
     -611    1    1    2    0    0 -0.42619868503E-01  0.14792919699E-01  0.23015279867E+01  0.23019701602E+01  0.51109989000E-03 0.  1.
      611    1    1    2    0    0  0.55745655661E-01 -0.21913599036E-01  0.29521165217E+01  0.29527241664E+01  0.51109989000E-03 0. -1.
</event>
<event>
 6   3  0.2312675E+03  0.9118800E+02  0.7818608E-02  0.1180000E+00
       11   -1    0    0    0    0  0.00000000000E+00  0.00000000000E+00  0.54999999763E+01  0.55000000000E+01  0.51109989000E-03 0. -1.
     -623   -1    0    0    0    0  0.00000000000E+00  0.00000000000E+00  0.93234578044E-11  0.17124000000E+03  0.17124000000E+03 0.  1.
       11    1    1    2    0    0  0.21513130354E-02 -0.62867060049E-05  0.42431757929E-01  0.42489333854E-01  0.51109989000E-03 0. -1.
     -623    1    1    2    0    0 -0.20952706318E-02  0.59517114729E-03  0.68584556107E-03  0.17124000002E+03  0.17124000000E+03 0.  1.
     -611    1    1    2    0    0  0.36599400558E-01  0.18069560572E-01  0.23272483169E+01  0.23276062843E+01  0.51109989000E-03 0.  1.
      611    1    1    2    0    0 -0.36655442961E-01 -0.18658445013E-01  0.31296340558E+01  0.31299043665E+01  0.51109989000E-03 0. -1.
</event>
<event>
 6   3  0.2312675E+03  0.9118800E+02  0.7818608E-02  0.1180000E+00
       11   -1    0    0    0    0  0.00000000000E+00  0.00000000000E+00  0.54999999763E+01  0.55000000000E+01  0.51109989000E-03 0.  1.
     -623   -1    0    0    0    0  0.00000000000E+00  0.00000000000E+00  0.93234578044E-11  0.17124000000E+03  0.17124000000E+03 0.  1.
       11    1    1    2    0    0  0.11557469303E+00 -0.13591549684E-01  0.31082642774E+00  0.33189692571E+00  0.51109989000E-03 0.  1.
     -623    1    1    2    0    0  0.96503421394E-02 -0.41921542496E-01  0.34170152782E-01  0.17124000881E+03  0.17124000000E+03 0.  1.
     -611    1    1    2    0    0  0.93317635018E-01 -0.26782780000E-01  0.27662824128E+01  0.27679855756E+01  0.51109989000E-03 0. -1.
      611    1    1    2    0    0 -0.21854267018E+00  0.82295872181E-01  0.23887209829E+01  0.24001086860E+01  0.51109989000E-03 0.  1.
</event>
<event>
 6   3  0.2312675E+03  0.9118800E+02  0.7818608E-02  0.1180000E+00
       11   -1    0    0    0    0  0.00000000000E+00  0.00000000000E+00  0.54999999763E+01  0.55000000000E+01  0.51109989000E-03 0.  1.
     -623   -1    0    0    0    0  0.00000000000E+00  0.00000000000E+00  0.93234578044E-11  0.17124000000E+03  0.17124000000E+03 0. -1.
       11    1    1    2    0    0  0.96216645284E-01 -0.88394549568E-02  0.72472458489E+00  0.73113730855E+00  0.51109989000E-03 0.  1.
     -623    1    1    2    0    0  0.65798425733E-02  0.11425512177E-02  0.75301545502E-02  0.17124000030E+03  0.17124000000E+03 0. -1.
     -611    1    1    2    0    0 -0.80799717424E-01  0.72182832230E-02  0.38281379700E+01  0.38289974245E+01  0.51109989000E-03 0. -1.
      611    1    1    2    0    0 -0.21996770438E-01  0.47862051645E-03  0.93960726707E+00  0.93986497144E+00  0.51109989000E-03 0.  1.
</event>
<event>
 6   3  0.2312675E+03  0.9118800E+02  0.7818608E-02  0.1180000E+00
       11   -1    0    0    0    0  0.00000000000E+00  0.00000000000E+00  0.54999999763E+01  0.55000000000E+01  0.51109989000E-03 0.  1.
     -623   -1    0    0    0    0  0.00000000000E+00  0.00000000000E+00  0.93234578044E-11  0.17124000000E+03  0.17124000000E+03 0. -1.
       11    1    1    2    0    0  0.54857840627E-02 -0.52025260381E-02  0.40929648666E-01  0.41625202306E-01  0.51109989000E-03 0.  1.
     -623    1    1    2    0    0 -0.33539880991E-03  0.18734064050E-01  0.16545287138E-02  0.17124000103E+03  0.17124000000E+03 0. -1.
     -611    1    1    2    0    0  0.44910020838E-01  0.19814654872E-02  0.33710425491E+01  0.33713423091E+01  0.51109989000E-03 0.  1.
      611    1    1    2    0    0 -0.50060406091E-01 -0.15513003499E-01  0.20863732499E+01  0.20870314556E+01  0.51109989000E-03 0. -1.
</event>
<event>
 6   3  0.2312675E+03  0.9118800E+02  0.7818608E-02  0.1180000E+00
       11   -1    0    0    0    0  0.00000000000E+00  0.00000000000E+00  0.54999999763E+01  0.55000000000E+01  0.51109989000E-03 0.  1.
     -623   -1    0    0    0    0  0.00000000000E+00  0.00000000000E+00  0.93234578044E-11  0.17124000000E+03  0.17124000000E+03 0.  1.
       11    1    1    2    0    0 -0.23293175081E-01 -0.41940692179E-04  0.28855982755E+00  0.28949889302E+00  0.51109989000E-03 0.  1.
     -623    1    1    2    0    0 -0.24694324084E-01  0.55965519593E-02  0.17356517534E-02  0.17124000188E+03  0.17124000000E+03 0.  1.
     -611    1    1    2    0    0 -0.10953524398E-01  0.17012187501E-01  0.55868873365E+00  0.55905523569E+00  0.51109989000E-03 0. -1.
      611    1    1    2    0    0  0.58941023563E-01 -0.22566798768E-01  0.46510157634E+01  0.46514439905E+01  0.51109989000E-03 0.  1.
</event>
<event>
 6   3  0.2312675E+03  0.9118800E+02  0.7818608E-02  0.1180000E+00
       11   -1    0    0    0    0  0.00000000000E+00  0.00000000000E+00  0.54999999763E+01  0.55000000000E+01  0.51109989000E-03 0. -1.
     -623   -1    0    0    0    0  0.00000000000E+00  0.00000000000E+00  0.93234578044E-11  0.17124000000E+03  0.17124000000E+03 0.  1.
       11    1    1    2    0    0 -0.14037260326E-01  0.53942276178E-02  0.21313759175E-01  0.26089843279E-01  0.51109989000E-03 0. -1.
     -623    1    1    2    0    0  0.22988400883E-01  0.36080695847E-02  0.58831477554E-02  0.17124000168E+03  0.17124000000E+03 0.  1.
     -611    1    1    2    0    0 -0.57390558188E-01  0.60425552798E-02  0.33672121639E+01  0.33677066687E+01  0.51109989000E-03 0. -1.
      611    1    1    2    0    0  0.48439417631E-01 -0.15044852482E-01  0.21055909054E+01  0.21062018058E+01  0.51109989000E-03 0.  1.
</event>
<event>
 6   3  0.2312675E+03  0.9118800E+02  0.7818608E-02  0.1180000E+00
       11   -1    0    0    0    0  0.00000000000E+00  0.00000000000E+00  0.54999999763E+01  0.55000000000E+01  0.51109989000E-03 0. -1.
     -623   -1    0    0    0    0  0.00000000000E+00  0.00000000000E+00  0.93234578044E-11  0.17124000000E+03  0.17124000000E+03 0. -1.
       11    1    1    2    0    0 -0.13060292495E-01  0.13941243284E-02  0.48732982910E+00  0.48750706495E+00  0.51109989000E-03 0. -1.
     -623    1    1    2    0    0  0.52838038199E-03 -0.19349273973E-02  0.74015563615E-03  0.17124000001E+03  0.17124000000E+03 0. -1.
     -611    1    1    2    0    0 -0.28651712234E-01  0.10700480741E-01  0.27047959268E+01  0.27049688885E+01  0.51109989000E-03 0.  1.
      611    1    1    2    0    0  0.41183624347E-01 -0.10159677672E-01  0.23071340649E+01  0.23075240334E+01  0.51109989000E-03 0. -1.
</event>
<event>
 6   3  0.2312675E+03  0.9118800E+02  0.7818608E-02  0.1180000E+00
       11   -1    0    0    0    0  0.00000000000E+00  0.00000000000E+00  0.54999999763E+01  0.55000000000E+01  0.51109989000E-03 0. -1.
     -623   -1    0    0    0    0  0.00000000000E+00  0.00000000000E+00  0.93234578044E-11  0.17124000000E+03  0.17124000000E+03 0. -1.
       11    1    1    2    0    0 -0.34535800468E-01 -0.16910608300E-01  0.66633950276E+00  0.66744833834E+00  0.51109989000E-03 0. -1.
     -623    1    1    2    0    0 -0.23348234595E-01 -0.69490489561E-02  0.15165256591E-02  0.17124000174E+03  0.17124000000E+03 0. -1.
     -611    1    1    2    0    0  0.11876778934E-01  0.53285211253E-02  0.97105574364E+00  0.97114312514E+00  0.51109989000E-03 0. -1.
      611    1    1    2    0    0  0.46007256136E-01  0.18531136133E-01  0.38610882048E+01  0.38614067977E+01  0.51109989000E-03 0. -1.
</event>
<event>
 6   3  0.2312675E+03  0.9118800E+02  0.7818608E-02  0.1180000E+00
       11   -1    0    0    0    0  0.00000000000E+00  0.00000000000E+00  0.54999999763E+01  0.55000000000E+01  0.51109989000E-03 0. -1.
     -623   -1    0    0    0    0  0.00000000000E+00  0.00000000000E+00  0.93234578044E-11  0.17124000000E+03  0.17124000000E+03 0.  1.
       11    1    1    2    0    0  0.46149239462E-01 -0.14071445186E-01  0.38459046985E+00  0.38760527421E+00  0.51109989000E-03 0. -1.
     -623    1    1    2    0    0  0.64238614974E-02 -0.13023744246E-01  0.33622265328E-02  0.17124000065E+03  0.17124000000E+03 0.  1.
     -611    1    1    2    0    0 -0.23881346074E-01  0.15659314143E-01  0.23131168874E+01  0.23132932215E+01  0.51109989000E-03 0.  1.
      611    1    1    2    0    0 -0.28691754889E-01  0.11435875291E-01  0.27989303929E+01  0.27991008559E+01  0.51109989000E-03 0. -1.
</event>
<event>
 6   3  0.2312675E+03  0.9118800E+02  0.7818608E-02  0.1180000E+00
       11   -1    0    0    0    0  0.00000000000E+00  0.00000000000E+00  0.54999999763E+01  0.55000000000E+01  0.51109989000E-03 0.  1.
     -623   -1    0    0    0    0  0.00000000000E+00  0.00000000000E+00  0.93234578044E-11  0.17124000000E+03  0.17124000000E+03 0.  1.
       11    1    1    2    0    0  0.68225633918E-03  0.76318621176E-01  0.33045036357E+00  0.33914996892E+00  0.51109989000E-03 0.  1.
     -623    1    1    2    0    0 -0.83290037719E-01 -0.13881408418E+00  0.98230362389E-02  0.17124007680E+03  0.17124000000E+03 0.  1.
     -611    1    1    2    0    0  0.28847158119E-01  0.23741276400E-01  0.20504718101E+01  0.20508122079E+01  0.51109989000E-03 0. -1.
      611    1    1    2    0    0  0.53760623262E-01  0.38754186605E-01  0.31092547664E+01  0.31099610214E+01  0.51109989000E-03 0.  1.
</event>
<event>
 6   3  0.2312675E+03  0.9118800E+02  0.7818608E-02  0.1180000E+00
       11   -1    0    0    0    0  0.00000000000E+00  0.00000000000E+00  0.54999999763E+01  0.55000000000E+01  0.51109989000E-03 0.  1.
     -623   -1    0    0    0    0  0.00000000000E+00  0.00000000000E+00  0.93234578044E-11  0.17124000000E+03  0.17124000000E+03 0.  1.
       11    1    1    2    0    0  0.22963259383E-02  0.57071668408E-03  0.36653766066E-02  0.43926118784E-02  0.51109989000E-03 0.  1.
     -623    1    1    2    0    0 -0.60018328192E-01 -0.33301392122E-01  0.11419609217E-02  0.17124001376E+03  0.17124000000E+03 0.  1.
     -611    1    1    2    0    0  0.10960458879E-01  0.59931749790E-02  0.10829950703E+01  0.10830672340E+01  0.51109989000E-03 0.  1.
      611    1    1    2    0    0  0.46761543375E-01  0.26737500458E-01  0.44121975684E+01  0.44125263942E+01  0.51109989000E-03 0.  1.
</event>
<event>
 6   3  0.2312675E+03  0.9118800E+02  0.7818608E-02  0.1180000E+00
       11   -1    0    0    0    0  0.00000000000E+00  0.00000000000E+00  0.54999999763E+01  0.55000000000E+01  0.51109989000E-03 0. -1.
     -623   -1    0    0    0    0  0.00000000000E+00  0.00000000000E+00  0.93234578044E-11  0.17124000000E+03  0.17124000000E+03 0. -1.
       11    1    1    2    0    0  0.74927507253E-02 -0.25990353751E-02  0.38270117846E+00  0.38278368502E+00  0.51109989000E-03 0.  1.
     -623    1    1    2    0    0 -0.10970653795E+00  0.79903732096E-02  0.11426872080E-02  0.17124003533E+03  0.17124000000E+03 0. -1.
     -611    1    1    2    0    0  0.25195421444E-01 -0.21784106355E-02  0.12125493184E+01  0.12128131206E+01  0.51109989000E-03 0. -1.
      611    1    1    2    0    0  0.77018365814E-01 -0.32129272012E-02  0.39036067939E+01  0.39043678636E+01  0.51109989000E-03 0. -1.
</event>
<event>
 6   3  0.2312675E+03  0.9118800E+02  0.7818608E-02  0.1180000E+00
       11   -1    0    0    0    0  0.00000000000E+00  0.00000000000E+00  0.54999999763E+01  0.55000000000E+01  0.51109989000E-03 0. -1.
     -623   -1    0    0    0    0  0.00000000000E+00  0.00000000000E+00  0.93234578044E-11  0.17124000000E+03  0.17124000000E+03 0. -1.
       11    1    1    2    0    0  0.56642386866E-01 -0.71061150928E-01  0.42276010785E+00  0.43241694830E+00  0.51109989000E-03 0. -1.
     -623    1    1    2    0    0  0.97151685183E-01  0.18497224745E-01  0.12293576514E-01  0.17124002900E+03  0.17124000000E+03 0. -1.
     -611    1    1    2    0    0 -0.11129884298E+00  0.39086609700E-01  0.36597520073E+01  0.36616526613E+01  0.51109989000E-03 0. -1.
      611    1    1    2    0    0 -0.42495229068E-01  0.13477316482E-01  0.14051942845E+01  0.14059013909E+01  0.51109989000E-03 0.  1.
</event>
<event>
 6   3  0.2312675E+03  0.9118800E+02  0.7818608E-02  0.1180000E+00
       11   -1    0    0    0    0  0.00000000000E+00  0.00000000000E+00  0.54999999763E+01  0.55000000000E+01  0.51109989000E-03 0. -1.
     -623   -1    0    0    0    0  0.00000000000E+00  0.00000000000E+00  0.93234578044E-11  0.17124000000E+03  0.17124000000E+03 0.  1.
       11    1    1    2    0    0 -0.51802248471E-01  0.10817531208E+00  0.49973169836E+00  0.51392353776E+00  0.51109989000E-03 0. -1.
     -623    1    1    2    0    0 -0.14948870728E-02  0.46393240100E-01  0.16881872732E-01  0.17124000712E+03  0.17124000000E+03 0.  1.
     -611    1    1    2    0    0  0.95685629874E-02 -0.23832738361E-01  0.79427138333E+00  0.79468663536E+00  0.51109989000E-03 0.  1.
      611    1    1    2    0    0  0.43728572550E-01 -0.13073581380E+00  0.41891150213E+01  0.41913827031E+01  0.51109989000E-03 0. -1.
</event>
<event>
 6   3  0.2312675E+03  0.9118800E+02  0.7818608E-02  0.1180000E+00
       11   -1    0    0    0    0  0.00000000000E+00  0.00000000000E+00  0.54999999763E+01  0.55000000000E+01  0.51109989000E-03 0. -1.
     -623   -1    0    0    0    0  0.00000000000E+00  0.00000000000E+00  0.93234578044E-11  0.17124000000E+03  0.17124000000E+03 0. -1.
       11    1    1    2    0    0  0.34523874849E-01  0.23542643135E-01  0.48708785822E+00  0.48887728197E+00  0.51109989000E-03 0. -1.
     -623    1    1    2    0    0  0.20336805744E-01  0.32037627271E-02  0.21624916642E-02  0.17124000125E+03  0.17124000000E+03 0. -1.
     -611    1    1    2    0    0 -0.35427831564E-01 -0.17575192366E-01  0.32447151643E+01  0.32449562058E+01  0.51109989000E-03 0. -1.
      611    1    1    2    0    0 -0.19432849040E-01 -0.91712135014E-02  0.17660344631E+01  0.17661652620E+01  0.51109989000E-03 0. -1.
</event>
<event>
 6   3  0.2312675E+03  0.9118800E+02  0.7818608E-02  0.1180000E+00
       11   -1    0    0    0    0  0.00000000000E+00  0.00000000000E+00  0.54999999763E+01  0.55000000000E+01  0.51109989000E-03 0.  1.
     -623   -1    0    0    0    0  0.00000000000E+00  0.00000000000E+00  0.93234578044E-11  0.17124000000E+03  0.17124000000E+03 0.  1.
       11    1    1    2    0    0 -0.16884120306E-02  0.29848833901E-02  0.14792903997E-01  0.15193797938E-01  0.51109989000E-03 0.  1.
     -623    1    1    2    0    0 -0.12903582490E-02 -0.15175636574E-03  0.15064736712E-02  0.17124000001E+03  0.17124000000E+03 0.  1.
     -611    1    1    2    0    0 -0.41911857286E-01  0.32078358887E-01  0.28932368986E+01  0.28937183065E+01  0.51109989000E-03 0.  1.
      611    1    1    2    0    0  0.44890627566E-01 -0.34911485911E-01  0.25904637001E+01  0.25910878841E+01  0.51109989000E-03 0. -1.
</event>
<event>
 6   3  0.2312675E+03  0.9118800E+02  0.7818608E-02  0.1180000E+00
       11   -1    0    0    0    0  0.00000000000E+00  0.00000000000E+00  0.54999999763E+01  0.55000000000E+01  0.51109989000E-03 0.  1.
     -623   -1    0    0    0    0  0.00000000000E+00  0.00000000000E+00  0.93234578044E-11  0.17124000000E+03  0.17124000000E+03 0.  1.
       11    1    1    2    0    0 -0.14699471209E+00  0.49620612273E-01  0.93715133056E+00  0.94990658916E+00  0.51109989000E-03 0.  1.
     -623    1    1    2    0    0 -0.41987364786E-01 -0.75299634838E-01  0.17283506398E-01  0.17124002258E+03  0.17124000000E+03 0.  1.
     -611    1    1    2    0    0  0.13509854391E+00  0.28160368718E-01  0.38253047624E+01  0.38277932820E+01  0.51109989000E-03 0. -1.
      611    1    1    2    0    0  0.53883532962E-01 -0.24813461533E-02  0.72026037691E+00  0.72227755328E+00  0.51109989000E-03 0.  1.
</event>
<event>
 6   3  0.2312675E+03  0.9118800E+02  0.7818608E-02  0.1180000E+00
       11   -1    0    0    0    0  0.00000000000E+00  0.00000000000E+00  0.54999999763E+01  0.55000000000E+01  0.51109989000E-03 0. -1.
     -623   -1    0    0    0    0  0.00000000000E+00  0.00000000000E+00  0.93234578044E-11  0.17124000000E+03  0.17124000000E+03 0.  1.
       11    1    1    2    0    0 -0.10352564170E-01 -0.19075190904E-01 -0.17580807089E-02  0.21780508804E-01  0.51109989000E-03 0. -1.
     -623    1    1    2    0    0  0.15028010061E-01  0.92584470629E-02  0.28221886001E-01  0.17124000324E+03  0.17124000000E+03 0.  1.
     -611    1    1    2    0    0 -0.92418117015E-01  0.64917948796E-01  0.36428969676E+01  0.36446473116E+01  0.51109989000E-03 0. -1.
      611    1    1    2    0    0  0.87742671124E-01 -0.55101204955E-01  0.18306392034E+01  0.18335689442E+01  0.51109989000E-03 0.  1.
</event>
<event>
 6   3  0.6210901E+03  0.9118800E+02  0.7818608E-02  0.1180000E+00
       11   -1    0    0    0    0  0.00000000000E+00  0.00000000000E+00  0.54999999763E+01  0.55000000000E+01  0.51109989000E-03 0. -1.
     -623   -1    0    0    0    0  0.00000000000E+00  0.00000000000E+00  0.93234578044E-11  0.17124000000E+03  0.17124000000E+03 0. -1.
       11    1    1    2    0    0  0.10723330421E-03  0.45884483092E-03 -0.52899643320E-03  0.87355474029E-03  0.51109989000E-03 0. -1.
     -623    1    1    2    0    0  0.45821266319E-03 -0.35791656683E-03  0.21020859135E-02  0.17124000001E+03  0.17124000000E+03 0. -1.
     -611    1    1    2    0    0  0.34982213082E-01 -0.23510162925E-01  0.34488593999E+01  0.34491169746E+01  0.51109989000E-03 0. -1.
      611    1    1    2    0    0 -0.35547659049E-01  0.23409234661E-01  0.20495674869E+01  0.20500094568E+01  0.51109989000E-03 0.  1.
</event>
<event>
 6   3  0.2312675E+03  0.9118800E+02  0.7818608E-02  0.1180000E+00
       11   -1    0    0    0    0  0.00000000000E+00  0.00000000000E+00  0.54999999763E+01  0.55000000000E+01  0.51109989000E-03 0. -1.
     -623   -1    0    0    0    0  0.00000000000E+00  0.00000000000E+00  0.93234578044E-11  0.17124000000E+03  0.17124000000E+03 0.  1.
       11    1    1    2    0    0 -0.32952925677E-02  0.93837823626E-04  0.29240662141E+00  0.29242565077E+00  0.51109989000E-03 0. -1.
     -623    1    1    2    0    0  0.74327170127E-01 -0.14148118777E-01  0.53931709298E-03  0.17124001672E+03  0.17124000000E+03 0.  1.
     -611    1    1    2    0    0 -0.51014690476E-01  0.10365097852E-01  0.37506563667E+01  0.37510176455E+01  0.51109989000E-03 0. -1.
      611    1    1    2    0    0 -0.20017186872E-01  0.36891830618E-02  0.14563976553E+01  0.14565399718E+01  0.51109989000E-03 0. -1.
</event>
<event>
 6   3  0.2312675E+03  0.9118800E+02  0.7818608E-02  0.1180000E+00
       11   -1    0    0    0    0  0.00000000000E+00  0.00000000000E+00  0.54999999763E+01  0.55000000000E+01  0.51109989000E-03 0. -1.
     -623   -1    0    0    0    0  0.00000000000E+00  0.00000000000E+00  0.93234578044E-11  0.17124000000E+03  0.17124000000E+03 0.  1.
       11    1    1    2    0    0 -0.11173700968E-01 -0.16101195239E-01  0.40376474549E+00  0.40424043713E+00  0.51109989000E-03 0. -1.
     -623    1    1    2    0    0  0.57721684572E-02  0.14000026351E-01  0.24125027892E-02  0.17124000069E+03  0.17124000000E+03 0.  1.
     -611    1    1    2    0    0  0.53850486876E-01  0.45714133666E-01  0.19942068732E+01  0.19954575845E+01  0.51109989000E-03 0.  1.
      611    1    1    2    0    0 -0.48448954365E-01 -0.43612964777E-01  0.30996158547E+01  0.31003012918E+01  0.51109989000E-03 0. -1.
</event>
<event>
 6   3  0.2312675E+03  0.9118800E+02  0.7818608E-02  0.1180000E+00
       11   -1    0    0    0    0  0.00000000000E+00  0.00000000000E+00  0.54999999763E+01  0.55000000000E+01  0.51109989000E-03 0.  1.
     -623   -1    0    0    0    0  0.00000000000E+00  0.00000000000E+00  0.93234578044E-11  0.17124000000E+03  0.17124000000E+03 0. -1.
       11    1    1    2    0    0  0.23037854507E-01  0.22479559612E-02  0.90152363555E+00  0.90182089281E+00  0.51109989000E-03 0.  1.
     -623    1    1    2    0    0 -0.11753341279E+00  0.92718336328E-02  0.13235344766E-02  0.17124004059E+03  0.17124000000E+03 0. -1.
     -611    1    1    2    0    0  0.50817434291E-01 -0.62011756194E-02  0.24926327831E+01  0.24931585026E+01  0.51109989000E-03 0.  1.
      611    1    1    2    0    0  0.43678124101E-01 -0.53186139845E-02  0.21045200284E+01  0.21049800182E+01  0.51109989000E-03 0.  1.
</event>
<event>
 6   3  0.2312675E+03  0.9118800E+02  0.7818608E-02  0.1180000E+00
       11   -1    0    0    0    0  0.00000000000E+00  0.00000000000E+00  0.54999999763E+01  0.55000000000E+01  0.51109989000E-03 0.  1.
     -623   -1    0    0    0    0  0.00000000000E+00  0.00000000000E+00  0.93234578044E-11  0.17124000000E+03  0.17124000000E+03 0. -1.
       11    1    1    2    0    0 -0.91952871955E-01  0.14555454658E-01  0.82939230459E+00  0.83460113112E+00  0.51109989000E-03 0.  1.
     -623    1    1    2    0    0 -0.16861019476E-01  0.14518808859E-01  0.65748897446E-02  0.17124000157E+03  0.17124000000E+03 0. -1.
     -611    1    1    2    0    0  0.69168280674E-01 -0.21588234838E-01  0.29559432906E+01  0.29568312940E+01  0.51109989000E-03 0.  1.
      611    1    1    2    0    0  0.39645610747E-01 -0.74860286762E-02  0.17080894910E+01  0.17085660027E+01  0.51109989000E-03 0. -1.
</event>
<event>
 6   3  0.2312675E+03  0.9118800E+02  0.7818608E-02  0.1180000E+00
       11   -1    0    0    0    0  0.00000000000E+00  0.00000000000E+00  0.54999999763E+01  0.55000000000E+01  0.51109989000E-03 0. -1.
     -623   -1    0    0    0    0  0.00000000000E+00  0.00000000000E+00  0.93234578044E-11  0.17124000000E+03  0.17124000000E+03 0. -1.
       11    1    1    2    0    0 -0.72099096282E-02  0.53846027272E-02  0.15064949902E-01  0.17555360492E-01  0.51109989000E-03 0. -1.
     -623    1    1    2    0    0  0.24034449783E-01 -0.32187003566E-02  0.73916307073E-02  0.17124000188E+03  0.17124000000E+03 0. -1.
     -611    1    1    2    0    0  0.10063425988E+00  0.33801233804E-01  0.29617850946E+01  0.29636870593E+01  0.51109989000E-03 0. -1.
      611    1    1    2    0    0 -0.11745880003E+00 -0.35967136174E-01  0.25157583011E+01  0.25187557038E+01  0.51109989000E-03 0.  1.
</event>
<event>
 6   3  0.2312675E+03  0.9118800E+02  0.7818608E-02  0.1180000E+00
       11   -1    0    0    0    0  0.00000000000E+00  0.00000000000E+00  0.54999999763E+01  0.55000000000E+01  0.51109989000E-03 0. -1.
     -623   -1    0    0    0    0  0.00000000000E+00  0.00000000000E+00  0.93234578044E-11  0.17124000000E+03  0.17124000000E+03 0. -1.
       11    1    1    2    0    0  0.41447699534E-01 -0.17870041183E-02  0.56126487265E-01  0.69796482549E-01  0.51109989000E-03 0. -1.
     -623    1    1    2    0    0 -0.27795608847E-01  0.36525619896E-02  0.21309626351E-01  0.17124000362E+03  0.17124000000E+03 0. -1.
     -611    1    1    2    0    0 -0.73783566173E-01 -0.62912736774E-01  0.68169934127E+00  0.68856102140E+00  0.51109989000E-03 0.  1.
      611    1    1    2    0    0  0.60131475486E-01  0.61047178902E-01  0.47408645214E+01  0.47416388753E+01  0.51109989000E-03 0. -1.
</event>
<event>
 6   3  0.2312675E+03  0.9118800E+02  0.7818608E-02  0.1180000E+00
       11   -1    0    0    0    0  0.00000000000E+00  0.00000000000E+00  0.54999999763E+01  0.55000000000E+01  0.51109989000E-03 0. -1.
     -623   -1    0    0    0    0  0.00000000000E+00  0.00000000000E+00  0.93234578044E-11  0.17124000000E+03  0.17124000000E+03 0.  1.
       11    1    1    2    0    0  0.46142652003E-01 -0.38921024441E-02  0.77885480111E+00  0.78023032192E+00  0.51109989000E-03 0. -1.
     -623    1    1    2    0    0  0.47261945109E-02 -0.32195184974E-02  0.16552470162E-02  0.17124000010E+03  0.17124000000E+03 0.  1.
     -611    1    1    2    0    0 -0.17249188756E-01  0.23061180212E-02  0.15787313678E+01  0.15788273641E+01  0.51109989000E-03 0. -1.
      611    1    1    2    0    0 -0.33619657761E-01  0.48055029208E-02  0.31407585607E+01  0.31409422109E+01  0.51109989000E-03 0. -1.
</event>
<event>
 6   3  0.2312675E+03  0.9118800E+02  0.7818608E-02  0.1180000E+00
       11   -1    0    0    0    0  0.00000000000E+00  0.00000000000E+00  0.54999999763E+01  0.55000000000E+01  0.51109989000E-03 0.  1.
     -623   -1    0    0    0    0  0.00000000000E+00  0.00000000000E+00  0.93234578044E-11  0.17124000000E+03  0.17124000000E+03 0.  1.
       11    1    1    2    0    0 -0.35416330347E-01 -0.17315148487E-01  0.83377786800E+00  0.83470948551E+00  0.51109989000E-03 0.  1.
     -623    1    1    2    0    0  0.32916424543E-02 -0.58230896388E-02  0.23355132032E-02  0.17124000015E+03  0.17124000000E+03 0.  1.
     -611    1    1    2    0    0  0.63478425221E-01  0.42414447590E-01  0.34554241277E+01  0.34562674461E+01  0.51109989000E-03 0.  1.
      611    1    1    2    0    0 -0.31353737328E-01 -0.19276209465E-01  0.12084624673E+01  0.12090229217E+01  0.51109989000E-03 0. -1.
</event>
<event>
 6   3  0.2312675E+03  0.9118800E+02  0.7818608E-02  0.1180000E+00
       11   -1    0    0    0    0  0.00000000000E+00  0.00000000000E+00  0.54999999763E+01  0.55000000000E+01  0.51109989000E-03 0.  1.
     -623   -1    0    0    0    0  0.00000000000E+00  0.00000000000E+00  0.93234578044E-11  0.17124000000E+03  0.17124000000E+03 0.  1.
       11    1    1    2    0    0 -0.54678656484E-01  0.10018700378E-01  0.40609223018E+00  0.40987960484E+00  0.51109989000E-03 0.  1.
     -623    1    1    2    0    0 -0.51638964293E-02 -0.26534152818E-01  0.41770096375E-02  0.17124000218E+03  0.17124000000E+03 0.  1.
     -611    1    1    2    0    0  0.32633570531E-01  0.72391496520E-02  0.23761279546E+01  0.23763631190E+01  0.51109989000E-03 0. -1.
      611    1    1    2    0    0  0.27208982381E-01  0.92763027875E-02  0.27136027817E+01  0.27137550915E+01  0.51109989000E-03 0.  1.
</event>
<event>
 6   3  0.2312675E+03  0.9118800E+02  0.7818608E-02  0.1180000E+00
       11   -1    0    0    0    0  0.00000000000E+00  0.00000000000E+00  0.54999999763E+01  0.55000000000E+01  0.51109989000E-03 0. -1.
     -623   -1    0    0    0    0  0.00000000000E+00  0.00000000000E+00  0.93234578044E-11  0.17124000000E+03  0.17124000000E+03 0.  1.
       11    1    1    2    0    0 -0.15800070739E-01  0.40861590667E-01  0.13069891241E+00  0.13784693960E+00  0.51109989000E-03 0. -1.
     -623    1    1    2    0    0 -0.75744156576E-02  0.60640613753E-02  0.99809885167E-02  0.17124000057E+03  0.17124000000E+03 0.  1.
     -611    1    1    2    0    0  0.77492937143E-01 -0.56668596556E-01  0.45269652462E+01  0.45279831146E+01  0.51109989000E-03 0. -1.
      611    1    1    2    0    0 -0.54118450746E-01  0.97429445138E-02  0.83235482918E+00  0.83416938002E+00  0.51109989000E-03 0.  1.
</event>
<event>
 6   3  0.2312675E+03  0.9118800E+02  0.7818608E-02  0.1180000E+00
       11   -1    0    0    0    0  0.00000000000E+00  0.00000000000E+00  0.54999999763E+01  0.55000000000E+01  0.51109989000E-03 0.  1.
     -623   -1    0    0    0    0  0.00000000000E+00  0.00000000000E+00  0.93234578044E-11  0.17124000000E+03  0.17124000000E+03 0.  1.
       11    1    1    2    0    0  0.84255545859E-02 -0.29078339231E-02  0.76541881682E+00  0.76547088242E+00  0.51109989000E-03 0.  1.
     -623    1    1    2    0    0 -0.56750893572E-01  0.17632020089E-01  0.33202573104E-03  0.17124001031E+03  0.17124000000E+03 0.  1.
     -611    1    1    2    0    0  0.29638962702E-01 -0.92230626177E-02  0.29210361295E+01  0.29212010996E+01  0.51109989000E-03 0.  1.
      611    1    1    2    0    0  0.18686377060E-01 -0.55011237896E-02  0.18132130794E+01  0.18133177812E+01  0.51109989000E-03 0.  1.
</event>
<event>
 6   3  0.2312675E+03  0.9118800E+02  0.7818608E-02  0.1180000E+00
       11   -1    0    0    0    0  0.00000000000E+00  0.00000000000E+00  0.54999999763E+01  0.55000000000E+01  0.51109989000E-03 0. -1.
     -623   -1    0    0    0    0  0.00000000000E+00  0.00000000000E+00  0.93234578044E-11  0.17124000000E+03  0.17124000000E+03 0. -1.
       11    1    1    2    0    0 -0.14008275744E-01 -0.21865358318E-02  0.70463216477E+00  0.70477497230E+00  0.51109989000E-03 0. -1.
     -623    1    1    2    0    0 -0.43048408781E-01 -0.73424643187E-01  0.10997295684E-02  0.17124002116E+03  0.17124000000E+03 0. -1.
     -611    1    1    2    0    0  0.19001160646E-01  0.25068373658E-01  0.15950822923E+01  0.15953925059E+01  0.51109989000E-03 0. -1.
      611    1    1    2    0    0  0.38055523945E-01  0.50542805449E-01  0.31991857953E+01  0.31998113713E+01  0.51109989000E-03 0. -1.
</event>
<event>
 6   3  0.2312675E+03  0.9118800E+02  0.7818608E-02  0.1180000E+00
       11   -1    0    0    0    0  0.00000000000E+00  0.00000000000E+00  0.54999999763E+01  0.55000000000E+01  0.51109989000E-03 0. -1.
     -623   -1    0    0    0    0  0.00000000000E+00  0.00000000000E+00  0.93234578044E-11  0.17124000000E+03  0.17124000000E+03 0. -1.
       11    1    1    2    0    0 -0.10893543460E-01 -0.90934904057E-02  0.21641011850E+00  0.21687545151E+00  0.51109989000E-03 0. -1.
     -623    1    1    2    0    0  0.31800425459E-02  0.13165758308E-01  0.18891113593E-02  0.17124000055E+03  0.17124000000E+03 0. -1.
     -611    1    1    2    0    0 -0.40791617347E-01 -0.20939271680E-01  0.93843831152E+00  0.93955794653E+00  0.51109989000E-03 0.  1.
      611    1    1    2    0    0  0.48505118261E-01  0.16867003777E-01  0.43432624349E+01  0.43435660559E+01  0.51109989000E-03 0. -1.
</event>
<event>
 6   3  0.3362442E+03  0.9118800E+02  0.7818608E-02  0.1180000E+00
       11   -1    0    0    0    0  0.00000000000E+00  0.00000000000E+00  0.54999999763E+01  0.55000000000E+01  0.51109989000E-03 0. -1.
     -623   -1    0    0    0    0  0.00000000000E+00  0.00000000000E+00  0.93234578044E-11  0.17124000000E+03  0.17124000000E+03 0. -1.
       11    1    1    2    0    0 -0.25509592436E-02 -0.29791073577E-03  0.23938273511E-02  0.35479256409E-02  0.51109989000E-03 0. -1.
     -623    1    1    2    0    0  0.29958367676E-02 -0.11169513908E-02  0.14764616466E-02  0.17124000004E+03  0.17124000000E+03 0. -1.
     -611    1    1    2    0    0  0.29426158196E-01  0.21098378567E-02  0.25440538735E+01  0.25442249749E+01  0.51109989000E-03 0.  1.
      611    1    1    2    0    0 -0.29871035720E-01 -0.69497573009E-03  0.29520758136E+01  0.29522270631E+01  0.51109989000E-03 0. -1.
</event>
<event>
 6   3  0.2312675E+03  0.9118800E+02  0.7818608E-02  0.1180000E+00
       11   -1    0    0    0    0  0.00000000000E+00  0.00000000000E+00  0.54999999763E+01  0.55000000000E+01  0.51109989000E-03 0. -1.
     -623   -1    0    0    0    0  0.00000000000E+00  0.00000000000E+00  0.93234578044E-11  0.17124000000E+03  0.17124000000E+03 0.  1.
       11    1    1    2    0    0 -0.20672572688E-01 -0.23424658040E-01  0.99367661273E+00  0.99416776340E+00  0.51109989000E-03 0. -1.
     -623    1    1    2    0    0  0.67873422265E-01  0.43285168570E-01  0.80145597580E-03  0.17124001892E+03  0.17124000000E+03 0.  1.
     -611    1    1    2    0    0 -0.87617791818E-02 -0.42300831319E-02  0.87443851064E+00  0.87449278584E+00  0.51109989000E-03 0.  1.
      611    1    1    2    0    0 -0.38439070398E-01 -0.15630427400E-01  0.36310833971E+01  0.36313205271E+01  0.51109989000E-03 0. -1.
</event>
<event>
 6   3  0.2312675E+03  0.9118800E+02  0.7818608E-02  0.1180000E+00
       11   -1    0    0    0    0  0.00000000000E+00  0.00000000000E+00  0.54999999763E+01  0.55000000000E+01  0.51109989000E-03 0. -1.
     -623   -1    0    0    0    0  0.00000000000E+00  0.00000000000E+00  0.93234578044E-11  0.17124000000E+03  0.17124000000E+03 0. -1.
       11    1    1    2    0    0  0.32028680477E-01  0.23285255463E-01  0.92455923427E+00  0.92540697987E+00  0.51109989000E-03 0. -1.
     -623    1    1    2    0    0 -0.53906073219E-02  0.29860930064E-02  0.19020971772E-02  0.17124000012E+03  0.17124000000E+03 0. -1.
     -611    1    1    2    0    0 -0.59683361279E-01 -0.25576051395E-01  0.28843431335E+01  0.28850739698E+01  0.51109989000E-03 0. -1.
      611    1    1    2    0    0  0.33045288124E-01 -0.69529707368E-03  0.16891955113E+01  0.16895189289E+01  0.51109989000E-03 0.  1.
</event>
<event>
 6   3  0.2312675E+03  0.9118800E+02  0.7818608E-02  0.1180000E+00
       11   -1    0    0    0    0  0.00000000000E+00  0.00000000000E+00  0.54999999763E+01  0.55000000000E+01  0.51109989000E-03 0.  1.
     -623   -1    0    0    0    0  0.00000000000E+00  0.00000000000E+00  0.93234578044E-11  0.17124000000E+03  0.17124000000E+03 0.  1.
       11    1    1    2    0    0  0.30011892458E-01 -0.11638119967E-01  0.13905218884E+00  0.14273027699E+00  0.51109989000E-03 0.  1.
     -623    1    1    2    0    0  0.39246063621E-02 -0.26827285753E-01  0.53898044587E-02  0.17124000223E+03  0.17124000000E+03 0.  1.
     -611    1    1    2    0    0 -0.55514515143E-01  0.25435234917E-02  0.47210349579E+01  0.47213620563E+01  0.51109989000E-03 0.  1.
      611    1    1    2    0    0  0.21578016323E-01  0.35921882228E-01  0.63452302501E+00  0.63590543551E+00  0.51109989000E-03 0. -1.
</event>
<event>
 6   3  0.2312675E+03  0.9118800E+02  0.7818608E-02  0.1180000E+00
       11   -1    0    0    0    0  0.00000000000E+00  0.00000000000E+00  0.54999999763E+01  0.55000000000E+01  0.51109989000E-03 0. -1.
     -623   -1    0    0    0    0  0.00000000000E+00  0.00000000000E+00  0.93234578044E-11  0.17124000000E+03  0.17124000000E+03 0. -1.
       11    1    1    2    0    0 -0.23851573080E-02 -0.21211383694E-02  0.16326909292E-02  0.36214784458E-02  0.51109989000E-03 0. -1.
     -623    1    1    2    0    0  0.67509263737E-02  0.19072435979E-02  0.42538904395E-02  0.17124000020E+03  0.17124000000E+03 0. -1.
     -611    1    1    2    0    0  0.38774368904E-01 -0.63955165853E-01  0.34337961036E+01  0.34346105539E+01  0.51109989000E-03 0. -1.
      611    1    1    2    0    0 -0.43140137970E-01  0.64169060624E-01  0.20603172913E+01  0.20617677711E+01  0.51109989000E-03 0.  1.
</event>
<event>
 6   3  0.2312675E+03  0.9118800E+02  0.7818608E-02  0.1180000E+00
       11   -1    0    0    0    0  0.00000000000E+00  0.00000000000E+00  0.54999999763E+01  0.55000000000E+01  0.51109989000E-03 0.  1.
     -623   -1    0    0    0    0  0.00000000000E+00  0.00000000000E+00  0.93234578044E-11  0.17124000000E+03  0.17124000000E+03 0. -1.
       11    1    1    2    0    0 -0.65360368528E-01 -0.23328054623E-01  0.74416352084E+00  0.74739265643E+00  0.51109989000E-03 0.  1.
     -623    1    1    2    0    0  0.40892633575E-02  0.45128980565E-01  0.36804344140E-02  0.17124000604E+03  0.17124000000E+03 0. -1.
     -611    1    1    2    0    0  0.20805619747E-01 -0.67899090923E-02  0.15816962066E+01  0.15818476942E+01  0.51109989000E-03 0.  1.
      611    1    1    2    0    0  0.40465485382E-01 -0.15011016835E-01  0.31704598112E+01  0.31707536110E+01  0.51109989000E-03 0.  1.
</event>
<event>
 6   3  0.2312675E+03  0.9118800E+02  0.7818608E-02  0.1180000E+00
       11   -1    0    0    0    0  0.00000000000E+00  0.00000000000E+00  0.54999999763E+01  0.55000000000E+01  0.51109989000E-03 0. -1.
     -623   -1    0    0    0    0  0.00000000000E+00  0.00000000000E+00  0.93234578044E-11  0.17124000000E+03  0.17124000000E+03 0. -1.
       11    1    1    2    0    0 -0.38229522166E-01  0.22076740495E-01  0.90459221219E+00  0.90566892981E+00  0.51109989000E-03 0. -1.
     -623    1    1    2    0    0 -0.10758734156E-01 -0.25077965504E-01  0.13419389976E-02  0.17124000218E+03  0.17124000000E+03 0. -1.
     -611    1    1    2    0    0  0.21465329446E-01  0.10257365424E-02  0.18905922504E+01  0.18907144499E+01  0.51109989000E-03 0. -1.
      611    1    1    2    0    0  0.27522926893E-01  0.19754884680E-02  0.27034735764E+01  0.27036144424E+01  0.51109989000E-03 0.  1.
</event>
<event>
 6   3  0.2312675E+03  0.9118800E+02  0.7818608E-02  0.1180000E+00
       11   -1    0    0    0    0  0.00000000000E+00  0.00000000000E+00  0.54999999763E+01  0.55000000000E+01  0.51109989000E-03 0.  1.
     -623   -1    0    0    0    0  0.00000000000E+00  0.00000000000E+00  0.93234578044E-11  0.17124000000E+03  0.17124000000E+03 0. -1.
       11    1    1    2    0    0  0.90321177261E-02  0.15907074696E-02  0.60967066645E-01  0.61655120949E-01  0.51109989000E-03 0.  1.
     -623    1    1    2    0    0 -0.38817430798E-02 -0.15044183810E-02  0.11491199485E-02  0.17124000005E+03  0.17124000000E+03 0. -1.
     -611    1    1    2    0    0 -0.37938702344E-01 -0.12756492788E-02  0.30011204407E+01  0.30013605470E+01  0.51109989000E-03 0.  1.
      611    1    1    2    0    0  0.32788327698E-01  0.11893601902E-02  0.24367633491E+01  0.24369842777E+01  0.51109989000E-03 0. -1.
</event>
<event>
 6   3  0.2312675E+03  0.9118800E+02  0.7818608E-02  0.1180000E+00
       11   -1    0    0    0    0  0.00000000000E+00  0.00000000000E+00  0.54999999763E+01  0.55000000000E+01  0.51109989000E-03 0. -1.
     -623   -1    0    0    0    0  0.00000000000E+00  0.00000000000E+00  0.93234578044E-11  0.17124000000E+03  0.17124000000E+03 0. -1.
       11    1    1    2    0    0 -0.26258523119E-01  0.96082417766E-02  0.64481419044E+00  0.64542035121E+00  0.51109989000E-03 0. -1.
     -623    1    1    2    0    0 -0.33947370441E-01  0.60134161958E-01  0.15051194213E-02  0.17124001393E+03  0.17124000000E+03 0. -1.
     -611    1    1    2    0    0  0.46580346400E-01 -0.48335554318E-01  0.36545605419E+01  0.36551770231E+01  0.51109989000E-03 0.  1.
      611    1    1    2    0    0  0.13625547161E-01 -0.21406849417E-01  0.11991201245E+01  0.11993886956E+01  0.51109989000E-03 0. -1.
</event>
<event>
 6   3  0.2312675E+03  0.9118800E+02  0.7818608E-02  0.1180000E+00
       11   -1    0    0    0    0  0.00000000000E+00  0.00000000000E+00  0.54999999763E+01  0.55000000000E+01  0.51109989000E-03 0.  1.
     -623   -1    0    0    0    0  0.00000000000E+00  0.00000000000E+00  0.93234578044E-11  0.17124000000E+03  0.17124000000E+03 0. -1.
       11    1    1    2    0    0  0.38311919703E-01  0.82836015310E-02  0.35147449126E+00  0.35365378617E+00  0.51109989000E-03 0.  1.
     -623    1    1    2    0    0  0.15711164946E-01 -0.23384514607E-02  0.24676510472E-02  0.17124000075E+03  0.17124000000E+03 0. -1.
     -611    1    1    2    0    0 -0.20400737014E-01 -0.11571463303E-02  0.19038473391E+01  0.19039570586E+01  0.51109989000E-03 0. -1.
      611    1    1    2    0    0 -0.33622347655E-01 -0.47880037423E-02  0.32422104968E+01  0.32423884027E+01  0.51109989000E-03 0.  1.
</event>
<event>
 6   3  0.2312675E+03  0.9118800E+02  0.7818608E-02  0.1180000E+00
       11   -1    0    0    0    0  0.00000000000E+00  0.00000000000E+00  0.54999999763E+01  0.55000000000E+01  0.51109989000E-03 0. -1.
     -623   -1    0    0    0    0  0.00000000000E+00  0.00000000000E+00  0.93234578044E-11  0.17124000000E+03  0.17124000000E+03 0. -1.
       11    1    1    2    0    0  0.48567750739E-01 -0.49044320897E-01  0.69504434703E+00  0.69846336868E+00  0.51109989000E-03 0. -1.
     -623    1    1    2    0    0 -0.13507913506E-01  0.16127526520E-01  0.39144927027E-02  0.17124000134E+03  0.17124000000E+03 0. -1.
     -611    1    1    2    0    0 -0.46734996323E-01  0.20083228674E-01  0.38464755811E+01  0.38468119467E+01  0.51109989000E-03 0. -1.
      611    1    1    2    0    0  0.11675159090E-01  0.12833565702E-01  0.95456555548E+00  0.95472334771E+00  0.51109989000E-03 0.  1.
</event>
<event>
 6   3  0.2312675E+03  0.9118800E+02  0.7818608E-02  0.1180000E+00
       11   -1    0    0    0    0  0.00000000000E+00  0.00000000000E+00  0.54999999763E+01  0.55000000000E+01  0.51109989000E-03 0. -1.
     -623   -1    0    0    0    0  0.00000000000E+00  0.00000000000E+00  0.93234578044E-11  0.17124000000E+03  0.17124000000E+03 0.  1.
       11    1    1    2    0    0 -0.45243565191E-01 -0.46438643701E-01  0.64826924986E+00  0.65150349911E+00  0.51109989000E-03 0. -1.
     -623    1    1    2    0    0 -0.61742942195E-01  0.87520772656E-01  0.46348314812E-02  0.17124003356E+03  0.17124000000E+03 0.  1.
     -611    1    1    2    0    0  0.78570766217E-01 -0.26842576723E-01  0.33406545747E+01  0.33416862716E+01  0.51109989000E-03 0. -1.
      611    1    1    2    0    0  0.28415741169E-01 -0.14239552232E-01  0.15064413202E+01  0.15067766695E+01  0.51109989000E-03 0.  1.
</event>
<event>
 6   3  0.2312675E+03  0.9118800E+02  0.7818608E-02  0.1180000E+00
       11   -1    0    0    0    0  0.00000000000E+00  0.00000000000E+00  0.54999999763E+01  0.55000000000E+01  0.51109989000E-03 0.  1.
     -623   -1    0    0    0    0  0.00000000000E+00  0.00000000000E+00  0.93234578044E-11  0.17124000000E+03  0.17124000000E+03 0.  1.
       11    1    1    2    0    0  0.85515687799E-02  0.49398710571E-02  0.27347023701E-02  0.10260188829E-01  0.51109989000E-03 0.  1.
     -623    1    1    2    0    0  0.83515175067E-02  0.84104581228E-03  0.85116443849E-02  0.17124000042E+03  0.17124000000E+03 0.  1.
     -611    1    1    2    0    0 -0.42600761459E-01  0.33907637737E-01  0.35013009062E+01  0.35017242681E+01  0.51109989000E-03 0.  1.
      611    1    1    2    0    0  0.25697675173E-01 -0.39688554606E-01  0.19874527233E+01  0.19880151258E+01  0.51109989000E-03 0. -1.
</event>
<event>
 6   3  0.2312675E+03  0.9118800E+02  0.7818608E-02  0.1180000E+00
       11   -1    0    0    0    0  0.00000000000E+00  0.00000000000E+00  0.54999999763E+01  0.55000000000E+01  0.51109989000E-03 0.  1.
     -623   -1    0    0    0    0  0.00000000000E+00  0.00000000000E+00  0.93234578044E-11  0.17124000000E+03  0.17124000000E+03 0.  1.
       11    1    1    2    0    0  0.24234241229E-02 -0.47872698272E-02 -0.39306668082E-03  0.54043187722E-02  0.51109989000E-03 0.  1.
     -623    1    1    2    0    0  0.18317043661E-01 -0.10809490800E-01  0.91004108073E-02  0.17124000156E+03  0.17124000000E+03 0.  1.
     -611    1    1    2    0    0  0.38711122060E-01 -0.69060709921E-01  0.16369477234E+01  0.16388612031E+01  0.51109989000E-03 0. -1.
      611    1    1    2    0    0 -0.59451589844E-01  0.84657470548E-01  0.38543449087E+01  0.38557329155E+01  0.51109989000E-03 0.  1.
</event>
<event>
 6   3  0.2312675E+03  0.9118800E+02  0.7818608E-02  0.1180000E+00
       11   -1    0    0    0    0  0.00000000000E+00  0.00000000000E+00  0.54999999763E+01  0.55000000000E+01  0.51109989000E-03 0. -1.
     -623   -1    0    0    0    0  0.00000000000E+00  0.00000000000E+00  0.93234578044E-11  0.17124000000E+03  0.17124000000E+03 0.  1.
       11    1    1    2    0    0  0.57938159236E-01  0.12053849912E+00  0.91368351681E+00  0.92341983419E+00  0.51109989000E-03 0. -1.
     -623    1    1    2    0    0 -0.62853025516E-01 -0.12272181231E+00  0.10845996462E-01  0.17124005585E+03  0.17124000000E+03 0.  1.
     -611    1    1    2    0    0 -0.29734683530E-01  0.37918332494E-01  0.20907094267E+01  0.20912647177E+01  0.51109989000E-03 0. -1.
      611    1    1    2    0    0  0.34649549811E-01 -0.35735019299E-01  0.24847610363E+01  0.24852595944E+01  0.51109989000E-03 0.  1.
</event>
<event>
 6   3  0.2312675E+03  0.9118800E+02  0.7818608E-02  0.1180000E+00
       11   -1    0    0    0    0  0.00000000000E+00  0.00000000000E+00  0.54999999763E+01  0.55000000000E+01  0.51109989000E-03 0. -1.
     -623   -1    0    0    0    0  0.00000000000E+00  0.00000000000E+00  0.93234578044E-11  0.17124000000E+03  0.17124000000E+03 0. -1.
       11    1    1    2    0    0 -0.78127267258E-02  0.48698302502E-03  0.69277620965E-02  0.10465704091E-01  0.51109989000E-03 0. -1.
     -623    1    1    2    0    0  0.73279545414E-02  0.54864676185E-02  0.52403291585E-02  0.17124000032E+03  0.17124000000E+03 0. -1.
     -611    1    1    2    0    0 -0.61723969680E-01  0.37593520508E-02  0.16039541495E+01  0.16051458364E+01  0.51109989000E-03 0.  1.
      611    1    1    2    0    0  0.62208741864E-01 -0.97328026943E-02  0.38838777355E+01  0.38843881347E+01  0.51109989000E-03 0. -1.
</event>
<event>
 6   3  0.2312675E+03  0.9118800E+02  0.7818608E-02  0.1180000E+00
       11   -1    0    0    0    0  0.00000000000E+00  0.00000000000E+00  0.54999999763E+01  0.55000000000E+01  0.51109989000E-03 0.  1.
     -623   -1    0    0    0    0  0.00000000000E+00  0.00000000000E+00  0.93234578044E-11  0.17124000000E+03  0.17124000000E+03 0.  1.
       11    1    1    2    0    0  0.29045303069E-02 -0.98236289113E-03  0.17633358786E-01  0.17905247787E-01  0.51109989000E-03 0.  1.
     -623    1    1    2    0    0 -0.23132449411E-02 -0.13811311488E-02  0.14611383956E-02  0.17124000003E+03  0.17124000000E+03 0.  1.
     -611    1    1    2    0    0 -0.52632611326E-01 -0.76229283847E-02  0.37529655815E+01  0.37533424062E+01  0.51109989000E-03 0.  1.
      611    1    1    2    0    0  0.52041325960E-01  0.99864224246E-02  0.17279398974E+01  0.17287523185E+01  0.51109989000E-03 0. -1.
</event>
<event>
 6   3  0.2312675E+03  0.9118800E+02  0.7818608E-02  0.1180000E+00
       11   -1    0    0    0    0  0.00000000000E+00  0.00000000000E+00  0.54999999763E+01  0.55000000000E+01  0.51109989000E-03 0. -1.
     -623   -1    0    0    0    0  0.00000000000E+00  0.00000000000E+00  0.93234578044E-11  0.17124000000E+03  0.17124000000E+03 0.  1.
       11    1    1    2    0    0  0.73799726927E-02  0.15757992172E-01  0.52391465935E+00  0.52420378654E+00  0.51109989000E-03 0. -1.
     -623    1    1    2    0    0 -0.71407865934E-02 -0.46279845720E-02  0.16760312292E-02  0.17124000022E+03  0.17124000000E+03 0.  1.
     -611    1    1    2    0    0  0.41611868683E-01  0.23193198308E-01  0.36087181106E+01  0.36090325760E+01  0.51109989000E-03 0. -1.
      611    1    1    2    0    0 -0.41851054782E-01 -0.34323205909E-01  0.13656911752E+01  0.13667634179E+01  0.51109989000E-03 0.  1.
</event>
<event>
 6   3  0.2312675E+03  0.9118800E+02  0.7818608E-02  0.1180000E+00
       11   -1    0    0    0    0  0.00000000000E+00  0.00000000000E+00  0.54999999763E+01  0.55000000000E+01  0.51109989000E-03 0.  1.
     -623   -1    0    0    0    0  0.00000000000E+00  0.00000000000E+00  0.93234578044E-11  0.17124000000E+03  0.17124000000E+03 0. -1.
       11    1    1    2    0    0 -0.34466882687E-02  0.41985110198E-03  0.24983110805E-02  0.43079828600E-02  0.51109989000E-03 0.  1.
     -623    1    1    2    0    0  0.40195799170E-03 -0.25158902294E-02  0.59142462084E-02  0.17124000012E+03  0.17124000000E+03 0. -1.
     -611    1    1    2    0    0 -0.81229785434E-01  0.65162713746E-01  0.22741594473E+01  0.22765425343E+01  0.51109989000E-03 0.  1.
      611    1    1    2    0    0  0.84274515711E-01 -0.63066674619E-01  0.32174279717E+01  0.32191493618E+01  0.51109989000E-03 0. -1.
</event>
<event>
 6   3  0.2312675E+03  0.9118800E+02  0.7818608E-02  0.1180000E+00
       11   -1    0    0    0    0  0.00000000000E+00  0.00000000000E+00  0.54999999763E+01  0.55000000000E+01  0.51109989000E-03 0. -1.
     -623   -1    0    0    0    0  0.00000000000E+00  0.00000000000E+00  0.93234578044E-11  0.17124000000E+03  0.17124000000E+03 0. -1.
       11    1    1    2    0    0  0.72342291729E-01 -0.95894773519E-02  0.10644795828E+01  0.10669781669E+01  0.51109989000E-03 0. -1.
     -623    1    1    2    0    0  0.71084077951E-03  0.60470373686E-02  0.31250302479E-02  0.17124000014E+03  0.17124000000E+03 0. -1.
     -611    1    1    2    0    0 -0.13574512219E-01 -0.41422814351E-02  0.69425074010E+00  0.69439598014E+00  0.51109989000E-03 0.  1.
      611    1    1    2    0    0 -0.59478620290E-01  0.76847214184E-02  0.37381446232E+01  0.37386257163E+01  0.51109989000E-03 0. -1.
</event>
<event>
 6   3  0.2312675E+03  0.9118800E+02  0.7818608E-02  0.1180000E+00
       11   -1    0    0    0    0  0.00000000000E+00  0.00000000000E+00  0.54999999763E+01  0.55000000000E+01  0.51109989000E-03 0. -1.
     -623   -1    0    0    0    0  0.00000000000E+00  0.00000000000E+00  0.93234578044E-11  0.17124000000E+03  0.17124000000E+03 0.  1.
       11    1    1    2    0    0  0.53082575827E-02 -0.62188289085E-02  0.18645465652E+00  0.18663454019E+00  0.51109989000E-03 0. -1.
     -623    1    1    2    0    0  0.52455567719E-02  0.71814962538E-02  0.42615111390E-02  0.17124000028E+03  0.17124000000E+03 0.  1.
     -611    1    1    2    0    0  0.96083159766E-01 -0.16098565982E-01  0.20702190169E+01  0.20725101149E+01  0.51109989000E-03 0.  1.
      611    1    1    2    0    0 -0.10663697412E+00  0.15135898637E-01  0.32390647917E+01  0.32408550609E+01  0.51109989000E-03 0. -1.
</event>
<event>
 6   3  0.2312675E+03  0.9118800E+02  0.7818608E-02  0.1180000E+00
       11   -1    0    0    0    0  0.00000000000E+00  0.00000000000E+00  0.54999999763E+01  0.55000000000E+01  0.51109989000E-03 0.  1.
     -623   -1    0    0    0    0  0.00000000000E+00  0.00000000000E+00  0.93234578044E-11  0.17124000000E+03  0.17124000000E+03 0. -1.
       11    1    1    2    0    0  0.57982404328E-01 -0.13571266352E-01  0.59505489785E+00  0.59802736657E+00  0.51109989000E-03 0.  1.
     -623    1    1    2    0    0 -0.17136803198E-01  0.14914245046E-01  0.49732697124E-02  0.17124000158E+03  0.17124000000E+03 0. -1.
     -611    1    1    2    0    0  0.35041524506E-01 -0.41341632547E-01  0.19191579558E+01  0.19199230608E+01  0.51109989000E-03 0.  1.
      611    1    1    2    0    0 -0.75887125636E-01  0.39998653854E-01  0.29808138529E+01  0.29820479935E+01  0.51109989000E-03 0. -1.
</event>
<event>
 6   3  0.2312675E+03  0.9118800E+02  0.7818608E-02  0.1180000E+00
       11   -1    0    0    0    0  0.00000000000E+00  0.00000000000E+00  0.54999999763E+01  0.55000000000E+01  0.51109989000E-03 0. -1.
     -623   -1    0    0    0    0  0.00000000000E+00  0.00000000000E+00  0.93234578044E-11  0.17124000000E+03  0.17124000000E+03 0. -1.
       11    1    1    2    0    0 -0.66597979587E-01  0.69135758479E-01  0.55211178611E+00  0.56039515485E+00  0.51109989000E-03 0. -1.
     -623    1    1    2    0    0 -0.82286535881E-02  0.36271864132E-02  0.93899480950E-02  0.17124000049E+03  0.17124000000E+03 0. -1.
     -611    1    1    2    0    0  0.64571842630E-01 -0.65295178717E-01  0.43374833401E+01  0.43384553668E+01  0.51109989000E-03 0. -1.
      611    1    1    2    0    0  0.10254790538E-01 -0.74677661691E-02  0.60101490153E+00  0.60114898432E+00  0.51109989000E-03 0.  1.
</event>
<event>
 6   3  0.2312675E+03  0.9118800E+02  0.7818608E-02  0.1180000E+00
       11   -1    0    0    0    0  0.00000000000E+00  0.00000000000E+00  0.54999999763E+01  0.55000000000E+01  0.51109989000E-03 0. -1.
     -623   -1    0    0    0    0  0.00000000000E+00  0.00000000000E+00  0.93234578044E-11  0.17124000000E+03  0.17124000000E+03 0. -1.
       11    1    1    2    0    0  0.10229326908E-01 -0.21797297766E-01  0.24896222163E-01  0.34638770474E-01  0.51109989000E-03 0. -1.
     -623    1    1    2    0    0 -0.15253079227E-01  0.19384504674E-01  0.10676426166E-01  0.17124000211E+03  0.17124000000E+03 0. -1.
     -611    1    1    2    0    0  0.49099610186E-01  0.12359766502E-01  0.20160756589E+01  0.20167113971E+01  0.51109989000E-03 0.  1.
      611    1    1    2    0    0 -0.44075857868E-01 -0.99469734097E-02  0.34483516690E+01  0.34486477231E+01  0.51109989000E-03 0. -1.
</event>
<event>
 6   3  0.2312675E+03  0.9118800E+02  0.7818608E-02  0.1180000E+00
       11   -1    0    0    0    0  0.00000000000E+00  0.00000000000E+00  0.54999999763E+01  0.55000000000E+01  0.51109989000E-03 0.  1.
     -623   -1    0    0    0    0  0.00000000000E+00  0.00000000000E+00  0.93234578044E-11  0.17124000000E+03  0.17124000000E+03 0. -1.
       11    1    1    2    0    0  0.39009030978E-02 -0.32461712570E-02  0.60601634364E-02  0.79209517598E-02  0.51109989000E-03 0.  1.
     -623    1    1    2    0    0 -0.11252673672E-01  0.18162597988E-01  0.54565846521E-02  0.17124000142E+03  0.17124000000E+03 0. -1.
     -611    1    1    2    0    0  0.88533561510E-01  0.34472632873E-01  0.19434142043E+01  0.19457352299E+01  0.51109989000E-03 0. -1.
      611    1    1    2    0    0 -0.81181790937E-01 -0.49389059603E-01  0.35450690239E+01  0.35463423985E+01  0.51109989000E-03 0.  1.
</event>
<event>
 6   3  0.2312675E+03  0.9118800E+02  0.7818608E-02  0.1180000E+00
       11   -1    0    0    0    0  0.00000000000E+00  0.00000000000E+00  0.54999999763E+01  0.55000000000E+01  0.51109989000E-03 0. -1.
     -623   -1    0    0    0    0  0.00000000000E+00  0.00000000000E+00  0.93234578044E-11  0.17124000000E+03  0.17124000000E+03 0. -1.
       11    1    1    2    0    0 -0.51997349588E-02  0.57090123859E-02  0.30185043696E+00  0.30194962756E+00  0.51109989000E-03 0. -1.
     -623    1    1    2    0    0  0.75131181658E-01 -0.95760399005E-01  0.13931897212E-02  0.17124004326E+03  0.17124000000E+03 0. -1.
     -611    1    1    2    0    0 -0.39311392480E-01  0.50133597173E-01  0.28919167369E+01  0.28926184397E+01  0.51109989000E-03 0. -1.
      611    1    1    2    0    0 -0.30620053766E-01  0.39917788870E-01  0.23048395797E+01  0.23053886368E+01  0.51109989000E-03 0.  1.
</event>
<event>
 6   3  0.2312675E+03  0.9118800E+02  0.7818608E-02  0.1180000E+00
       11   -1    0    0    0    0  0.00000000000E+00  0.00000000000E+00  0.54999999763E+01  0.55000000000E+01  0.51109989000E-03 0.  1.
     -623   -1    0    0    0    0  0.00000000000E+00  0.00000000000E+00  0.93234578044E-11  0.17124000000E+03  0.17124000000E+03 0. -1.
       11    1    1    2    0    0 -0.39434424840E-01 -0.31535778640E-01  0.30814374614E+00  0.31225375691E+00  0.51109989000E-03 0.  1.
     -623    1    1    2    0    0 -0.25940198086E-01  0.22515816111E-01  0.47311244565E-02  0.17124000351E+03  0.17124000000E+03 0. -1.
     -611    1    1    2    0    0  0.35500907832E-01 -0.13062327955E-01  0.35221191750E+01  0.35223223423E+01  0.51109989000E-03 0.  1.
      611    1    1    2    0    0  0.29873715094E-01  0.22082290484E-01  0.16650059307E+01  0.16654203904E+01  0.51109989000E-03 0. -1.
</event>
<event>
 6   3  0.2312675E+03  0.9118800E+02  0.7818608E-02  0.1180000E+00
       11   -1    0    0    0    0  0.00000000000E+00  0.00000000000E+00  0.54999999763E+01  0.55000000000E+01  0.51109989000E-03 0. -1.
     -623   -1    0    0    0    0  0.00000000000E+00  0.00000000000E+00  0.93234578044E-11  0.17124000000E+03  0.17124000000E+03 0. -1.
       11    1    1    2    0    0 -0.92806623510E-02  0.17520112257E-02  0.93718420685E+00  0.93723193450E+00  0.51109989000E-03 0. -1.
     -623    1    1    2    0    0  0.62727383756E-01 -0.10347665503E-01  0.38108601345E-03  0.17124001180E+03  0.17124000000E+03 0. -1.
     -611    1    1    2    0    0 -0.42029007180E-01  0.71665322934E-02  0.36338641265E+01  0.36341142728E+01  0.51109989000E-03 0. -1.
      611    1    1    2    0    0 -0.11417714575E-01  0.14291220416E-02  0.92857058755E+00  0.92864202138E+00  0.51109989000E-03 0. -1.
</event>
<event>
 6   3  0.2312675E+03  0.9118800E+02  0.7818608E-02  0.1180000E+00
       11   -1    0    0    0    0  0.00000000000E+00  0.00000000000E+00  0.54999999763E+01  0.55000000000E+01  0.51109989000E-03 0. -1.
     -623   -1    0    0    0    0  0.00000000000E+00  0.00000000000E+00  0.93234578044E-11  0.17124000000E+03  0.17124000000E+03 0.  1.
       11    1    1    2    0    0  0.34494482020E-01  0.13758109455E-01  0.63443165554E+00  0.63551785313E+00  0.51109989000E-03 0. -1.
     -623    1    1    2    0    0  0.20641387658E-01 -0.48718203561E-02  0.14481436223E-02  0.17124000132E+03  0.17124000000E+03 0.  1.
     -611    1    1    2    0    0 -0.31855037479E-01  0.48037694865E-02  0.26649823628E+01  0.26651771189E+01  0.51109989000E-03 0.  1.
      611    1    1    2    0    0 -0.23280832199E-01 -0.13690058586E-01  0.21991378142E+01  0.21993037085E+01  0.51109989000E-03 0. -1.
</event>
<event>
 6   3  0.2312675E+03  0.9118800E+02  0.7818608E-02  0.1180000E+00
       11   -1    0    0    0    0  0.00000000000E+00  0.00000000000E+00  0.54999999763E+01  0.55000000000E+01  0.51109989000E-03 0.  1.
     -623   -1    0    0    0    0  0.00000000000E+00  0.00000000000E+00  0.93234578044E-11  0.17124000000E+03  0.17124000000E+03 0.  1.
       11    1    1    2    0    0  0.36465581305E-02 -0.41577825806E-02  0.72518934836E-01  0.72731297768E-01  0.51109989000E-03 0.  1.
     -623    1    1    2    0    0 -0.40298551121E-02  0.36781483123E-03  0.21498279358E-02  0.17124000006E+03  0.17124000000E+03 0.  1.
     -611    1    1    2    0    0 -0.54163878602E-01 -0.75647014158E-02  0.93898755993E+00  0.94057899689E+00  0.51109989000E-03 0. -1.
      611    1    1    2    0    0  0.54547175583E-01  0.11354669165E-01  0.44863436536E+01  0.44866896441E+01  0.51109989000E-03 0.  1.
</event>
<event>
 6   3  0.2312675E+03  0.9118800E+02  0.7818608E-02  0.1180000E+00
       11   -1    0    0    0    0  0.00000000000E+00  0.00000000000E+00  0.54999999763E+01  0.55000000000E+01  0.51109989000E-03 0.  1.
     -623   -1    0    0    0    0  0.00000000000E+00  0.00000000000E+00  0.93234578044E-11  0.17124000000E+03  0.17124000000E+03 0. -1.
       11    1    1    2    0    0  0.85145141424E-02 -0.68426428553E-02  0.68008210070E+00  0.68017001083E+00  0.51109989000E-03 0.  1.
     -623    1    1    2    0    0 -0.76458744104E-01  0.38857702322E-01  0.69627201171E-03  0.17124002148E+03  0.17124000000E+03 0. -1.
     -611    1    1    2    0    0  0.97846376178E-02 -0.60875178728E-02  0.74235499535E+00  0.74244460894E+00  0.51109989000E-03 0.  1.
      611    1    1    2    0    0  0.58159592348E-01 -0.25927541597E-01  0.40768666085E+01  0.40773639009E+01  0.51109989000E-03 0.  1.
</event>
<event>
 6   3  0.2312675E+03  0.9118800E+02  0.7818608E-02  0.1180000E+00
       11   -1    0    0    0    0  0.00000000000E+00  0.00000000000E+00  0.54999999763E+01  0.55000000000E+01  0.51109989000E-03 0. -1.
     -623   -1    0    0    0    0  0.00000000000E+00  0.00000000000E+00  0.93234578044E-11  0.17124000000E+03  0.17124000000E+03 0.  1.
       11    1    1    2    0    0 -0.62905844868E-01 -0.31952453665E-01  0.75900971127E+00  0.76228217062E+00  0.51109989000E-03 0. -1.
     -623    1    1    2    0    0 -0.98811626924E-02  0.25878540586E-02  0.39256743656E-02  0.17124000035E+03  0.17124000000E+03 0.  1.
     -611    1    1    2    0    0  0.43914219968E-01  0.15262498687E-01  0.27474627336E+01  0.27478560982E+01  0.51109989000E-03 0. -1.
      611    1    1    2    0    0  0.28872787585E-01  0.14102100916E-01  0.19896018565E+01  0.19898613811E+01  0.51109989000E-03 0.  1.
</event>
<event>
 6   3  0.2312675E+03  0.9118800E+02  0.7818608E-02  0.1180000E+00
       11   -1    0    0    0    0  0.00000000000E+00  0.00000000000E+00  0.54999999763E+01  0.55000000000E+01  0.51109989000E-03 0.  1.
     -623   -1    0    0    0    0  0.00000000000E+00  0.00000000000E+00  0.93234578044E-11  0.17124000000E+03  0.17124000000E+03 0. -1.
       11    1    1    2    0    0  0.34023704254E-02 -0.14750199099E-02  0.27626350759E-01  0.27878814315E-01  0.51109989000E-03 0.  1.
     -623    1    1    2    0    0  0.10249757035E-02 -0.18441196881E-02  0.64480398864E-03  0.17124000001E+03  0.17124000000E+03 0. -1.
     -611    1    1    2    0    0 -0.34878387011E-01  0.20957275114E-02  0.27695168140E+01  0.27697372688E+01  0.51109989000E-03 0. -1.
      611    1    1    2    0    0  0.30451040883E-01  0.12234120866E-02  0.27022120075E+01  0.27023839026E+01  0.51109989000E-03 0.  1.
</event>
<event>
 6   3  0.2312675E+03  0.9118800E+02  0.7818608E-02  0.1180000E+00
       11   -1    0    0    0    0  0.00000000000E+00  0.00000000000E+00  0.54999999763E+01  0.55000000000E+01  0.51109989000E-03 0. -1.
     -623   -1    0    0    0    0  0.00000000000E+00  0.00000000000E+00  0.93234578044E-11  0.17124000000E+03  0.17124000000E+03 0.  1.
       11    1    1    2    0    0  0.36920793765E-03 -0.16826613721E-01  0.59376756780E-01  0.61718163555E-01  0.51109989000E-03 0. -1.
     -623    1    1    2    0    0 -0.73717503646E-03  0.28977823418E-02  0.27769761586E-02  0.17124000005E+03  0.17124000000E+03 0.  1.
     -611    1    1    2    0    0 -0.32204305075E-01 -0.24149355443E-02  0.26869720696E+01  0.26871661864E+01  0.51109989000E-03 0.  1.
      611    1    1    2    0    0  0.32572272174E-01  0.16343766924E-01  0.27508741738E+01  0.27511156015E+01  0.51109989000E-03 0. -1.
</event>
<event>
 6   3  0.2312675E+03  0.9118800E+02  0.7818608E-02  0.1180000E+00
       11   -1    0    0    0    0  0.00000000000E+00  0.00000000000E+00  0.54999999763E+01  0.55000000000E+01  0.51109989000E-03 0.  1.
     -623   -1    0    0    0    0  0.00000000000E+00  0.00000000000E+00  0.93234578044E-11  0.17124000000E+03  0.17124000000E+03 0. -1.
       11    1    1    2    0    0  0.98052662912E-02  0.58834269093E-02  0.87765692387E+00  0.87773156215E+00  0.51109989000E-03 0.  1.
     -623    1    1    2    0    0 -0.64121213111E-01 -0.98447128193E-02  0.42532923943E-03  0.17124001229E+03  0.17124000000E+03 0. -1.
     -611    1    1    2    0    0  0.17332383363E-01 -0.18701868139E-03  0.10341466124E+01  0.10342919914E+01  0.51109989000E-03 0.  1.
      611    1    1    2    0    0  0.36983563446E-01  0.41483045897E-02  0.35877711098E+01  0.35879641567E+01  0.51109989000E-03 0. -1.
</event>
<event>
 6   3  0.2312675E+03  0.9118800E+02  0.7818608E-02  0.1180000E+00
       11   -1    0    0    0    0  0.00000000000E+00  0.00000000000E+00  0.54999999763E+01  0.55000000000E+01  0.51109989000E-03 0.  1.
     -623   -1    0    0    0    0  0.00000000000E+00  0.00000000000E+00  0.93234578044E-11  0.17124000000E+03  0.17124000000E+03 0.  1.
       11    1    1    2    0    0  0.22636743401E-01 -0.72770633898E-02  0.70391006995E+00  0.70431173893E+00  0.51109989000E-03 0.  1.
     -623    1    1    2    0    0 -0.19647170378E-01  0.17988774551E-01  0.30303802822E-02  0.17124000210E+03  0.17124000000E+03 0.  1.
     -611    1    1    2    0    0  0.45796822073E-01 -0.31824272083E-01  0.68003821457E+00  0.68232130826E+00  0.51109989000E-03 0. -1.
      611    1    1    2    0    0 -0.48786395096E-01  0.21112560922E-01  0.41130213115E+01  0.41133648541E+01  0.51109989000E-03 0.  1.
</event>
<event>
 6   3  0.2312675E+03  0.9118800E+02  0.7818608E-02  0.1180000E+00
       11   -1    0    0    0    0  0.00000000000E+00  0.00000000000E+00  0.54999999763E+01  0.55000000000E+01  0.51109989000E-03 0.  1.
     -623   -1    0    0    0    0  0.00000000000E+00  0.00000000000E+00  0.93234578044E-11  0.17124000000E+03  0.17124000000E+03 0.  1.
       11    1    1    2    0    0 -0.18937874380E-02  0.46776148156E-02  0.16297382208E-01  0.17068462179E-01  0.51109989000E-03 0.  1.
     -623    1    1    2    0    0 -0.87465796071E-02 -0.57054066655E-02  0.62841355351E-02  0.17124000043E+03  0.17124000000E+03 0.  1.
     -611    1    1    2    0    0  0.91028588904E-01 -0.57941695857E-01  0.13489377799E+01  0.13532467770E+01  0.51109989000E-03 0. -1.
      611    1    1    2    0    0 -0.80388221859E-01  0.58969487707E-01  0.41284806786E+01  0.41296843271E+01  0.51109989000E-03 0.  1.
</event>
<event>
 6   3  0.2312675E+03  0.9118800E+02  0.7818608E-02  0.1180000E+00
       11   -1    0    0    0    0  0.00000000000E+00  0.00000000000E+00  0.54999999763E+01  0.55000000000E+01  0.51109989000E-03 0. -1.
     -623   -1    0    0    0    0  0.00000000000E+00  0.00000000000E+00  0.93234578044E-11  0.17124000000E+03  0.17124000000E+03 0. -1.
       11    1    1    2    0    0  0.19856089739E-02 -0.54910258103E-03  0.34401251020E-02  0.40422568519E-02  0.51109989000E-03 0. -1.
     -623    1    1    2    0    0  0.31528802790E-02  0.18378846705E-02  0.11171487255E-02  0.17124000004E+03  0.17124000000E+03 0. -1.
     -611    1    1    2    0    0 -0.36450819976E-01  0.15489454707E-01  0.30380206888E+01  0.30382788800E+01  0.51109989000E-03 0.  1.
      611    1    1    2    0    0  0.31312330723E-01 -0.16778236797E-01  0.24574220136E+01  0.24576788206E+01  0.51109989000E-03 0. -1.
</event>
<event>
 6   3  0.2312675E+03  0.9118800E+02  0.7818608E-02  0.1180000E+00
       11   -1    0    0    0    0  0.00000000000E+00  0.00000000000E+00  0.54999999763E+01  0.55000000000E+01  0.51109989000E-03 0.  1.
     -623   -1    0    0    0    0  0.00000000000E+00  0.00000000000E+00  0.93234578044E-11  0.17124000000E+03  0.17124000000E+03 0.  1.
       11    1    1    2    0    0 -0.20521776636E-01 -0.64878060447E-01  0.43866806806E+00  0.44391467784E+00  0.51109989000E-03 0.  1.
     -623    1    1    2    0    0  0.22970220770E-02  0.47335552333E-01  0.57923572439E-02  0.17124000666E+03  0.17124000000E+03 0.  1.
     -611    1    1    2    0    0 -0.22857155937E-01  0.22850929538E-01  0.20983130124E+01  0.20985619776E+01  0.51109989000E-03 0. -1.
      611    1    1    2    0    0  0.41081910497E-01 -0.53084214248E-02  0.29572265386E+01  0.29575166888E+01  0.51109989000E-03 0.  1.
</event>
<event>
 6   3  0.2312675E+03  0.9118800E+02  0.7818608E-02  0.1180000E+00
       11   -1    0    0    0    0  0.00000000000E+00  0.00000000000E+00  0.54999999763E+01  0.55000000000E+01  0.51109989000E-03 0. -1.
     -623   -1    0    0    0    0  0.00000000000E+00  0.00000000000E+00  0.93234578044E-11  0.17124000000E+03  0.17124000000E+03 0. -1.
       11    1    1    2    0    0 -0.13457209025E-01  0.64564531965E-02  0.10907661803E+01  0.10908684172E+01  0.51109989000E-03 0. -1.
     -623    1    1    2    0    0  0.69422703849E-01  0.53350098682E-02  0.48792870207E-03  0.17124001416E+03  0.17124000000E+03 0. -1.
     -611    1    1    2    0    0 -0.40607158274E-01 -0.85238141239E-02  0.32644271551E+01  0.32646908749E+01  0.51109989000E-03 0.  1.
      611    1    1    2    0    0 -0.15358336532E-01 -0.32676489426E-02  0.11443187106E+01  0.11444265502E+01  0.51109989000E-03 0. -1.
</event>
<event>
 6   3  0.2312675E+03  0.9118800E+02  0.7818608E-02  0.1180000E+00
       11   -1    0    0    0    0  0.00000000000E+00  0.00000000000E+00  0.54999999763E+01  0.55000000000E+01  0.51109989000E-03 0.  1.
     -623   -1    0    0    0    0  0.00000000000E+00  0.00000000000E+00  0.93234578044E-11  0.17124000000E+03  0.17124000000E+03 0. -1.
       11    1    1    2    0    0 -0.77548495013E-02 -0.41528289831E-02  0.84422760605E-02  0.12203152360E-01  0.51109989000E-03 0.  1.
     -623    1    1    2    0    0  0.19269640818E-01  0.62416422878E-02  0.71938156154E-02  0.17124000135E+03  0.17124000000E+03 0. -1.
     -611    1    1    2    0    0  0.68921243810E-01 -0.16217282947E-01  0.92709394653E+00  0.92979384007E+00  0.51109989000E-03 0. -1.
      611    1    1    2    0    0 -0.80436035126E-01  0.14128469642E-01  0.45572699381E+01  0.45580016585E+01  0.51109989000E-03 0.  1.
</event>
<event>
 6   3  0.2312675E+03  0.9118800E+02  0.7818608E-02  0.1180000E+00
       11   -1    0    0    0    0  0.00000000000E+00  0.00000000000E+00  0.54999999763E+01  0.55000000000E+01  0.51109989000E-03 0.  1.
     -623   -1    0    0    0    0  0.00000000000E+00  0.00000000000E+00  0.93234578044E-11  0.17124000000E+03  0.17124000000E+03 0. -1.
       11    1    1    2    0    0  0.13223830655E-01 -0.32261254983E-01  0.62246293622E-01  0.71347884083E-01  0.51109989000E-03 0.  1.
     -623    1    1    2    0    0 -0.18784348120E-01 -0.15384311403E-01  0.10588434211E-01  0.17124000205E+03  0.17124000000E+03 0. -1.
     -611    1    1    2    0    0  0.40449970240E-01 -0.22148745478E-01  0.25963039656E+01  0.25967135595E+01  0.51109989000E-03 0. -1.
      611    1    1    2    0    0 -0.34889452776E-01  0.69794311865E-01  0.28308612829E+01  0.28319365078E+01  0.51109989000E-03 0.  1.
</event>
<event>
 6   3  0.2312675E+03  0.9118800E+02  0.7818608E-02  0.1180000E+00
       11   -1    0    0    0    0  0.00000000000E+00  0.00000000000E+00  0.54999999763E+01  0.55000000000E+01  0.51109989000E-03 0.  1.
     -623   -1    0    0    0    0  0.00000000000E+00  0.00000000000E+00  0.93234578044E-11  0.17124000000E+03  0.17124000000E+03 0.  1.
       11    1    1    2    0    0  0.54592838679E-02 -0.20292291805E-01  0.73420960395E+00  0.73451043876E+00  0.51109989000E-03 0.  1.
     -623    1    1    2    0    0  0.51473895099E-01  0.18737884438E-01  0.65239158298E-03  0.17124000876E+03  0.17124000000E+03 0.  1.
     -611    1    1    2    0    0 -0.10511492094E-01  0.25998822292E-04  0.74043326696E+00  0.74050805275E+00  0.51109989000E-03 0.  1.
      611    1    1    2    0    0 -0.46421686875E-01  0.15284085451E-02  0.40247047140E+01  0.40249727459E+01  0.51109989000E-03 0.  1.
</event>
<event>
 6   3  0.2312675E+03  0.9118800E+02  0.7818608E-02  0.1180000E+00
       11   -1    0    0    0    0  0.00000000000E+00  0.00000000000E+00  0.54999999763E+01  0.55000000000E+01  0.51109989000E-03 0.  1.
     -623   -1    0    0    0    0  0.00000000000E+00  0.00000000000E+00  0.93234578044E-11  0.17124000000E+03  0.17124000000E+03 0.  1.
       11    1    1    2    0    0 -0.80992160146E-01 -0.13296596774E-01  0.43454956267E+00  0.44223309818E+00  0.51109989000E-03 0.  1.
     -623    1    1    2    0    0 -0.42891083755E-02  0.22131343512E-01  0.84124416336E-02  0.17124000169E+03  0.17124000000E+03 0.  1.
     -611    1    1    2    0    0  0.55802760511E-01 -0.65759698641E-02  0.33414928397E+01  0.33419652677E+01  0.51109989000E-03 0.  1.
      611    1    1    2    0    0  0.29478507980E-01 -0.22587768702E-02  0.17155451305E+01  0.17157999418E+01  0.51109989000E-03 0.  1.
</event>
<event>
 6   3  0.2312675E+03  0.9118800E+02  0.7818608E-02  0.1180000E+00
       11   -1    0    0    0    0  0.00000000000E+00  0.00000000000E+00  0.54999999763E+01  0.55000000000E+01  0.51109989000E-03 0. -1.
     -623   -1    0    0    0    0  0.00000000000E+00  0.00000000000E+00  0.93234578044E-11  0.17124000000E+03  0.17124000000E+03 0.  1.
       11    1    1    2    0    0 -0.33710265425E-01 -0.12958568198E-01  0.82160846918E-01  0.89749498462E-01  0.51109989000E-03 0. -1.
     -623    1    1    2    0    0  0.85260273257E-02 -0.73047941538E-03  0.80880380377E-02  0.17124000040E+03  0.17124000000E+03 0.  1.
     -611    1    1    2    0    0  0.44671966110E-01  0.24586905455E-01  0.39178530618E+01  0.39181849082E+01  0.51109989000E-03 0. -1.
      611    1    1    2    0    0 -0.19487728011E-01 -0.10897857842E-01  0.14918980295E+01  0.14920651885E+01  0.51109989000E-03 0.  1.
</event>
<event>
 6   3  0.2312675E+03  0.9118800E+02  0.7818608E-02  0.1180000E+00
       11   -1    0    0    0    0  0.00000000000E+00  0.00000000000E+00  0.54999999763E+01  0.55000000000E+01  0.51109989000E-03 0.  1.
     -623   -1    0    0    0    0  0.00000000000E+00  0.00000000000E+00  0.93234578044E-11  0.17124000000E+03  0.17124000000E+03 0. -1.
       11    1    1    2    0    0  0.52319289413E-03  0.81005940879E-03  0.14012605979E-03  0.11003569695E-02  0.51109989000E-03 0.  1.
     -623    1    1    2    0    0  0.23630047881E-02 -0.47936635667E-02  0.14022718823E-02  0.17124000009E+03  0.17124000000E+03 0. -1.
     -611    1    1    2    0    0 -0.35400790665E-01 -0.44529278428E-02  0.25230769749E+01  0.25233292942E+01  0.51109989000E-03 0.  1.
      611    1    1    2    0    0  0.32514592983E-01  0.84365320008E-02  0.29753806035E+01  0.29755702598E+01  0.51109989000E-03 0. -1.
</event>
<event>
 6   3  0.2312675E+03  0.9118800E+02  0.7818608E-02  0.1180000E+00
       11   -1    0    0    0    0  0.00000000000E+00  0.00000000000E+00  0.54999999763E+01  0.55000000000E+01  0.51109989000E-03 0. -1.
     -623   -1    0    0    0    0  0.00000000000E+00  0.00000000000E+00  0.93234578044E-11  0.17124000000E+03  0.17124000000E+03 0. -1.
       11    1    1    2    0    0 -0.49392356707E-02  0.23123009240E-01  0.46095232708E+00  0.46155864055E+00  0.51109989000E-03 0. -1.
     -623    1    1    2    0    0  0.60519539840E-01  0.28250990343E-02  0.10015268644E-02  0.17124001072E+03  0.17124000000E+03 0. -1.
     -611    1    1    2    0    0 -0.41929832488E-01 -0.14579864054E-01  0.37097923355E+01  0.37100579668E+01  0.51109989000E-03 0. -1.
      611    1    1    2    0    0 -0.13650471681E-01 -0.11368244220E-01  0.13282537868E+01  0.13283726720E+01  0.51109989000E-03 0.  1.
</event>
<event>
 6   3  0.2312675E+03  0.9118800E+02  0.7818608E-02  0.1180000E+00
       11   -1    0    0    0    0  0.00000000000E+00  0.00000000000E+00  0.54999999763E+01  0.55000000000E+01  0.51109989000E-03 0. -1.
     -623   -1    0    0    0    0  0.00000000000E+00  0.00000000000E+00  0.93234578044E-11  0.17124000000E+03  0.17124000000E+03 0. -1.
       11    1    1    2    0    0 -0.21707358905E-01 -0.10273377410E+00  0.69818346499E+00  0.70603530350E+00  0.51109989000E-03 0. -1.
     -623    1    1    2    0    0 -0.48851919506E-01  0.26947888341E-01  0.89800800325E-02  0.17124000932E+03  0.17124000000E+03 0. -1.
     -611    1    1    2    0    0  0.50753646398E-01  0.55146460171E-01  0.34344289760E+01  0.34352466748E+01  0.51109989000E-03 0.  1.
      611    1    1    2    0    0  0.19805632013E-01  0.20639425587E-01  0.13584074553E+01  0.13587086975E+01  0.51109989000E-03 0. -1.
</event>
<event>
 6   3  0.2312675E+03  0.9118800E+02  0.7818608E-02  0.1180000E+00
       11   -1    0    0    0    0  0.00000000000E+00  0.00000000000E+00  0.54999999763E+01  0.55000000000E+01  0.51109989000E-03 0. -1.
     -623   -1    0    0    0    0  0.00000000000E+00  0.00000000000E+00  0.93234578044E-11  0.17124000000E+03  0.17124000000E+03 0. -1.
       11    1    1    2    0    0 -0.65462537376E-03 -0.48085925230E-02  0.94370968884E-02  0.10624081947E-01  0.51109989000E-03 0. -1.
     -623    1    1    2    0    0 -0.56475693289E-03  0.64787204255E-02  0.22264639391E-02  0.17124000014E+03  0.17124000000E+03 0. -1.
     -611    1    1    2    0    0 -0.45814383181E-01 -0.10217637173E-01  0.14572531922E+01  0.14580090827E+01  0.51109989000E-03 0. -1.
      611    1    1    2    0    0  0.47033765487E-01  0.85475092703E-02  0.40310832232E+01  0.40313666973E+01  0.51109989000E-03 0.  1.
</event>
<event>
 6   3  0.2312675E+03  0.9118800E+02  0.7818608E-02  0.1180000E+00
       11   -1    0    0    0    0  0.00000000000E+00  0.00000000000E+00  0.54999999763E+01  0.55000000000E+01  0.51109989000E-03 0.  1.
     -623   -1    0    0    0    0  0.00000000000E+00  0.00000000000E+00  0.93234578044E-11  0.17124000000E+03  0.17124000000E+03 0.  1.
       11    1    1    2    0    0  0.51763990322E-02 -0.59666100537E-01  0.21073128054E+00  0.21907709256E+00  0.51109989000E-03 0.  1.
     -623    1    1    2    0    0  0.33159724374E-01  0.25646597646E-01  0.13055421181E-01  0.17124000563E+03  0.17124000000E+03 0.  1.
     -611    1    1    2    0    0 -0.10751066116E+00  0.88559415260E-02  0.44824970763E+01  0.44837949630E+01  0.51109989000E-03 0.  1.
      611    1    1    2    0    0  0.69174537749E-01  0.25163561365E-01  0.79371619819E+00  0.79712231557E+00  0.51109989000E-03 0. -1.
</event>
<event>
 6   3  0.2312675E+03  0.9118800E+02  0.7818608E-02  0.1180000E+00
       11   -1    0    0    0    0  0.00000000000E+00  0.00000000000E+00  0.54999999763E+01  0.55000000000E+01  0.51109989000E-03 0.  1.
     -623   -1    0    0    0    0  0.00000000000E+00  0.00000000000E+00  0.93234578044E-11  0.17124000000E+03  0.17124000000E+03 0.  1.
       11    1    1    2    0    0 -0.25390854350E-02  0.27585161862E-02  0.12078673763E-01  0.12657485902E-01  0.51109989000E-03 0.  1.
     -623    1    1    2    0    0  0.23776861974E-02 -0.39371763128E-02  0.50628919150E-02  0.17124000014E+03  0.17124000000E+03 0.  1.
     -611    1    1    2    0    0 -0.79084934122E-01 -0.70976932897E-01  0.19850075041E+01  0.19878498948E+01  0.51109989000E-03 0. -1.
      611    1    1    2    0    0  0.79246333359E-01  0.72155593024E-01  0.34978509065E+01  0.34994924827E+01  0.51109989000E-03 0.  1.
</event>
<event>
 6   3  0.2312675E+03  0.9118800E+02  0.7818608E-02  0.1180000E+00
       11   -1    0    0    0    0  0.00000000000E+00  0.00000000000E+00  0.54999999763E+01  0.55000000000E+01  0.51109989000E-03 0. -1.
     -623   -1    0    0    0    0  0.00000000000E+00  0.00000000000E+00  0.93234578044E-11  0.17124000000E+03  0.17124000000E+03 0. -1.
       11    1    1    2    0    0  0.28412723688E-02  0.41970855886E-02  0.71627204647E-02  0.87894336373E-02  0.51109989000E-03 0. -1.
     -623    1    1    2    0    0  0.36366819372E-02 -0.38556661644E-02  0.20672349474E-02  0.17124000009E+03  0.17124000000E+03 0. -1.
     -611    1    1    2    0    0 -0.32652828677E-01  0.18135412004E-01  0.31347598641E+01  0.31349824190E+01  0.51109989000E-03 0. -1.
      611    1    1    2    0    0  0.26174874371E-01 -0.18476831428E-01  0.23560101568E+01  0.23562280529E+01  0.51109989000E-03 0.  1.
</event>
<event>
 6   3  0.2312675E+03  0.9118800E+02  0.7818608E-02  0.1180000E+00
       11   -1    0    0    0    0  0.00000000000E+00  0.00000000000E+00  0.54999999763E+01  0.55000000000E+01  0.51109989000E-03 0.  1.
     -623   -1    0    0    0    0  0.00000000000E+00  0.00000000000E+00  0.93234578044E-11  0.17124000000E+03  0.17124000000E+03 0.  1.
       11    1    1    2    0    0 -0.78966003974E-01 -0.51094977185E-01  0.94232985630E+00  0.94701222050E+00  0.51109989000E-03 0.  1.
     -623    1    1    2    0    0  0.17059070716E-01  0.20592936931E-01  0.52080908711E-02  0.17124000217E+03  0.17124000000E+03 0.  1.
     -611    1    1    2    0    0  0.15368423827E-01  0.77158534121E-02  0.11859344121E+01  0.11860591950E+01  0.51109989000E-03 0. -1.
      611    1    1    2    0    0  0.46538509396E-01  0.22786186825E-01  0.33665276144E+01  0.33669264148E+01  0.51109989000E-03 0.  1.
</event>
<event>
 6   3  0.2312675E+03  0.9118800E+02  0.7818608E-02  0.1180000E+00
       11   -1    0    0    0    0  0.00000000000E+00  0.00000000000E+00  0.54999999763E+01  0.55000000000E+01  0.51109989000E-03 0.  1.
     -623   -1    0    0    0    0  0.00000000000E+00  0.00000000000E+00  0.93234578044E-11  0.17124000000E+03  0.17124000000E+03 0.  1.
       11    1    1    2    0    0  0.38556505077E-01  0.14180213124E-01  0.45926842058E+00  0.46110240283E+00  0.51109989000E-03 0.  1.
     -623    1    1    2    0    0  0.22151782145E-01 -0.14119850779E-01  0.22140683332E-02  0.17124000203E+03  0.17124000000E+03 0.  1.
     -611    1    1    2    0    0 -0.28405868821E-01 -0.27314541401E-02  0.19677403926E+01  0.19679473744E+01  0.51109989000E-03 0.  1.
      611    1    1    2    0    0 -0.32302418401E-01  0.26710917949E-02  0.30707770947E+01  0.30709481936E+01  0.51109989000E-03 0. -1.
</event>
<event>
 6   3  0.2312675E+03  0.9118800E+02  0.7818608E-02  0.1180000E+00
       11   -1    0    0    0    0  0.00000000000E+00  0.00000000000E+00  0.54999999763E+01  0.55000000000E+01  0.51109989000E-03 0.  1.
     -623   -1    0    0    0    0  0.00000000000E+00  0.00000000000E+00  0.93234578044E-11  0.17124000000E+03  0.17124000000E+03 0. -1.
       11    1    1    2    0    0  0.53029366161E-01 -0.60058252125E-01  0.93079419865E+00  0.93423616329E+00  0.51109989000E-03 0.  1.
     -623    1    1    2    0    0  0.94966352228E-01  0.90297130543E-02  0.72076275616E-02  0.17124002672E+03  0.17124000000E+03 0. -1.
     -611    1    1    2    0    0 -0.89193098058E-01 -0.42127933887E-02  0.14855972409E+01  0.14882783945E+01  0.51109989000E-03 0. -1.
      611    1    1    2    0    0 -0.58802620332E-01  0.55241332459E-01  0.30764009092E+01  0.30774587192E+01  0.51109989000E-03 0.  1.
</event>
<event>
 6   3  0.2312675E+03  0.9118800E+02  0.7818608E-02  0.1180000E+00
       11   -1    0    0    0    0  0.00000000000E+00  0.00000000000E+00  0.54999999763E+01  0.55000000000E+01  0.51109989000E-03 0. -1.
     -623   -1    0    0    0    0  0.00000000000E+00  0.00000000000E+00  0.93234578044E-11  0.17124000000E+03  0.17124000000E+03 0.  1.
       11    1    1    2    0    0  0.38703131510E-01  0.58600944032E-02  0.89813924276E+00  0.89899200981E+00  0.51109989000E-03 0. -1.
     -623    1    1    2    0    0  0.15139828580E-01  0.30775431824E-02  0.11778065470E-02  0.17124000070E+03  0.17124000000E+03 0.  1.
     -611    1    1    2    0    0 -0.14058504628E-01 -0.14289459971E-02  0.12081369318E+01  0.12082196781E+01  0.51109989000E-03 0.  1.
      611    1    1    2    0    0 -0.39784455471E-01 -0.75086915900E-02  0.33925459960E+01  0.33927876119E+01  0.51109989000E-03 0. -1.
</event>
<event>
 6   3  0.2312675E+03  0.9118800E+02  0.7818608E-02  0.1180000E+00
       11   -1    0    0    0    0  0.00000000000E+00  0.00000000000E+00  0.54999999763E+01  0.55000000000E+01  0.51109989000E-03 0.  1.
     -623   -1    0    0    0    0  0.00000000000E+00  0.00000000000E+00  0.93234578044E-11  0.17124000000E+03  0.17124000000E+03 0. -1.
       11    1    1    2    0    0 -0.71018212957E-02 -0.10682999145E-02  0.23099733202E-02  0.75613709247E-02  0.51109989000E-03 0.  1.
     -623    1    1    2    0    0 -0.18191726592E-02  0.55928068291E-02  0.64536930046E-02  0.17124000022E+03  0.17124000000E+03 0. -1.
     -611    1    1    2    0    0  0.53686406746E-01  0.10665415803E-01  0.16426762588E+01  0.16435880061E+01  0.51109989000E-03 0. -1.
      611    1    1    2    0    0 -0.44765412791E-01 -0.15189922718E-01  0.38485600511E+01  0.38488504003E+01  0.51109989000E-03 0.  1.
</event>
<event>
 6   3  0.2312675E+03  0.9118800E+02  0.7818608E-02  0.1180000E+00
       11   -1    0    0    0    0  0.00000000000E+00  0.00000000000E+00  0.54999999763E+01  0.55000000000E+01  0.51109989000E-03 0.  1.
     -623   -1    0    0    0    0  0.00000000000E+00  0.00000000000E+00  0.93234578044E-11  0.17124000000E+03  0.17124000000E+03 0. -1.
       11    1    1    2    0    0 -0.12198938319E-01  0.80458935198E-02  0.16510654462E+00  0.16575277614E+00  0.51109989000E-03 0.  1.
     -623    1    1    2    0    0  0.67667340978E-01 -0.51702488957E-01  0.11347624738E-02  0.17124002118E+03  0.17124000000E+03 0. -1.
     -611    1    1    2    0    0 -0.37726192510E-01  0.29238197638E-01  0.36497400917E+01  0.36500522100E+01  0.51109989000E-03 0.  1.
      611    1    1    2    0    0 -0.17742210178E-01  0.14418397822E-01  0.16840185803E+01  0.16841738379E+01  0.51109989000E-03 0. -1.
</event>
<event>
 6   3  0.2312675E+03  0.9118800E+02  0.7818608E-02  0.1180000E+00
       11   -1    0    0    0    0  0.00000000000E+00  0.00000000000E+00  0.54999999763E+01  0.55000000000E+01  0.51109989000E-03 0.  1.
     -623   -1    0    0    0    0  0.00000000000E+00  0.00000000000E+00  0.93234578044E-11  0.17124000000E+03  0.17124000000E+03 0.  1.
       11    1    1    2    0    0 -0.17363683639E-02  0.34140251158E-03  0.94253861595E-02  0.96036794055E-02  0.51109989000E-03 0.  1.
     -623    1    1    2    0    0  0.31468502851E-02 -0.15445856231E-02  0.22111016260E-02  0.17124000005E+03  0.17124000000E+03 0.  1.
     -611    1    1    2    0    0  0.52699593753E-01 -0.50196384135E-01  0.31555530382E+01  0.31563922700E+01  0.51109989000E-03 0.  1.
      611    1    1    2    0    0 -0.54110075674E-01  0.51399567246E-01  0.23328104503E+01  0.23340040004E+01  0.51109989000E-03 0. -1.
</event>
<event>
 6   3  0.2312675E+03  0.9118800E+02  0.7818608E-02  0.1180000E+00
       11   -1    0    0    0    0  0.00000000000E+00  0.00000000000E+00  0.54999999763E+01  0.55000000000E+01  0.51109989000E-03 0. -1.
     -623   -1    0    0    0    0  0.00000000000E+00  0.00000000000E+00  0.93234578044E-11  0.17124000000E+03  0.17124000000E+03 0.  1.
       11    1    1    2    0    0  0.83526844714E-02  0.19108828989E-01  0.13305644328E+00  0.13468182136E+00  0.51109989000E-03 0. -1.
     -623    1    1    2    0    0  0.39967773347E-02  0.11650302160E-02  0.32510906354E-02  0.17124000008E+03  0.17124000000E+03 0.  1.
     -611    1    1    2    0    0  0.49691536684E-01 -0.35160942552E-01  0.35101279814E+01  0.35106558145E+01  0.51109989000E-03 0. -1.
      611    1    1    2    0    0 -0.62040998490E-01  0.14887083347E-01  0.18535644609E+01  0.18546622827E+01  0.51109989000E-03 0.  1.
</event>
<event>
 6   3  0.2312675E+03  0.9118800E+02  0.7818608E-02  0.1180000E+00
       11   -1    0    0    0    0  0.00000000000E+00  0.00000000000E+00  0.54999999763E+01  0.55000000000E+01  0.51109989000E-03 0.  1.
     -623   -1    0    0    0    0  0.00000000000E+00  0.00000000000E+00  0.93234578044E-11  0.17124000000E+03  0.17124000000E+03 0. -1.
       11    1    1    2    0    0  0.10240416087E-01 -0.49351215526E-02  0.85453478035E-01  0.86207770402E-01  0.51109989000E-03 0.  1.
     -623    1    1    2    0    0  0.77438380812E-01 -0.27916742380E-01  0.15846955652E-02  0.17124001979E+03  0.17124000000E+03 0. -1.
     -611    1    1    2    0    0 -0.45706262464E-01  0.18672881790E-01  0.28389918310E+01  0.28394211764E+01  0.51109989000E-03 0.  1.
      611    1    1    2    0    0 -0.41972534419E-01  0.14178982138E-01  0.25739699707E+01  0.25743512598E+01  0.51109989000E-03 0. -1.
</event>
<event>
 6   3  0.2312675E+03  0.9118800E+02  0.7818608E-02  0.1180000E+00
       11   -1    0    0    0    0  0.00000000000E+00  0.00000000000E+00  0.54999999763E+01  0.55000000000E+01  0.51109989000E-03 0. -1.
     -623   -1    0    0    0    0  0.00000000000E+00  0.00000000000E+00  0.93234578044E-11  0.17124000000E+03  0.17124000000E+03 0. -1.
       11    1    1    2    0    0  0.47222964373E-02  0.15842054453E-01  0.15934182819E+00  0.16019784707E+00  0.51109989000E-03 0. -1.
     -623    1    1    2    0    0  0.15856288040E-01 -0.20443503230E-02  0.19816706835E-02  0.17124000076E+03  0.17124000000E+03 0. -1.
     -611    1    1    2    0    0  0.30113490294E-01 -0.41780670908E-01  0.26712754194E+01  0.26717718979E+01  0.51109989000E-03 0.  1.
      611    1    1    2    0    0 -0.50692074771E-01  0.27982966779E-01  0.26674010579E+01  0.26680294972E+01  0.51109989000E-03 0. -1.
</event>
<event>
 6   3  0.2312675E+03  0.9118800E+02  0.7818608E-02  0.1180000E+00
       11   -1    0    0    0    0  0.00000000000E+00  0.00000000000E+00  0.54999999763E+01  0.55000000000E+01  0.51109989000E-03 0. -1.
     -623   -1    0    0    0    0  0.00000000000E+00  0.00000000000E+00  0.93234578044E-11  0.17124000000E+03  0.17124000000E+03 0.  1.
       11    1    1    2    0    0  0.68498576936E-01 -0.42446664835E-01  0.13989855297E+00  0.16144856997E+00  0.51109989000E-03 0. -1.
     -623    1    1    2    0    0  0.29838245734E-02  0.42656744796E-01  0.22036396149E-01  0.17124000676E+03  0.17124000000E+03 0.  1.
     -611    1    1    2    0    0 -0.32283052279E-01  0.14369599248E-02  0.23802784855E+01  0.23804978871E+01  0.51109989000E-03 0.  1.
      611    1    1    2    0    0 -0.39199349235E-01 -0.16470398855E-02  0.29577865420E+01  0.29580467865E+01  0.51109989000E-03 0. -1.
</event>
<event>
 6   3  0.2312675E+03  0.9118800E+02  0.7818608E-02  0.1180000E+00
       11   -1    0    0    0    0  0.00000000000E+00  0.00000000000E+00  0.54999999763E+01  0.55000000000E+01  0.51109989000E-03 0. -1.
     -623   -1    0    0    0    0  0.00000000000E+00  0.00000000000E+00  0.93234578044E-11  0.17124000000E+03  0.17124000000E+03 0.  1.
       11    1    1    2    0    0 -0.64269256991E-01 -0.36819864014E-02  0.51854638236E+00  0.52252723020E+00  0.51109989000E-03 0. -1.
     -623    1    1    2    0    0 -0.48944360671E-02  0.27177193386E-01  0.45197780122E-02  0.17124000229E+03  0.17124000000E+03 0.  1.
     -611    1    1    2    0    0  0.42150351603E-01 -0.15294463969E-01  0.30085132032E+01  0.30088473753E+01  0.51109989000E-03 0. -1.
      611    1    1    2    0    0  0.27013341442E-01 -0.82007430113E-02  0.19684206118E+01  0.19686231074E+01  0.51109989000E-03 0. -1.
</event>
<event>
 6   3  0.2312675E+03  0.9118800E+02  0.7818608E-02  0.1180000E+00
       11   -1    0    0    0    0  0.00000000000E+00  0.00000000000E+00  0.54999999763E+01  0.55000000000E+01  0.51109989000E-03 0. -1.
     -623   -1    0    0    0    0  0.00000000000E+00  0.00000000000E+00  0.93234578044E-11  0.17124000000E+03  0.17124000000E+03 0.  1.
       11    1    1    2    0    0  0.22993800811E-02 -0.35972578667E-02  0.45436876071E-01  0.45639876678E-01  0.51109989000E-03 0. -1.
     -623    1    1    2    0    0  0.25671361881E-03  0.41458561166E-02  0.16277062713E-02  0.17124000006E+03  0.17124000000E+03 0.  1.
     -611    1    1    2    0    0  0.60151316937E-01  0.77305060100E-02  0.23702061545E+01  0.23709819523E+01  0.51109989000E-03 0.  1.
      611    1    1    2    0    0 -0.62707410637E-01 -0.82791042599E-02  0.30827292394E+01  0.30833781130E+01  0.51109989000E-03 0. -1.
</event>
<event>
 6   3  0.2312675E+03  0.9118800E+02  0.7818608E-02  0.1180000E+00
       11   -1    0    0    0    0  0.00000000000E+00  0.00000000000E+00  0.54999999763E+01  0.55000000000E+01  0.51109989000E-03 0. -1.
     -623   -1    0    0    0    0  0.00000000000E+00  0.00000000000E+00  0.93234578044E-11  0.17124000000E+03  0.17124000000E+03 0.  1.
       11    1    1    2    0    0  0.38019075980E-01  0.44747160181E-01  0.51838251083E+00  0.52169765884E+00  0.51109989000E-03 0. -1.
     -623    1    1    2    0    0  0.25294344145E-01 -0.41281991642E-01  0.37279650763E-02  0.17124000688E+03  0.17124000000E+03 0.  1.
     -611    1    1    2    0    0 -0.47502461811E-01 -0.15652993324E-02  0.38514533733E+01  0.38517466534E+01  0.51109989000E-03 0. -1.
      611    1    1    2    0    0 -0.15810958313E-01 -0.18998692061E-02  0.11264361269E+01  0.11265488028E+01  0.51109989000E-03 0.  1.
</event>
<event>
 6   3  0.2312675E+03  0.9118800E+02  0.7818608E-02  0.1180000E+00
       11   -1    0    0    0    0  0.00000000000E+00  0.00000000000E+00  0.54999999763E+01  0.55000000000E+01  0.51109989000E-03 0.  1.
     -623   -1    0    0    0    0  0.00000000000E+00  0.00000000000E+00  0.93234578044E-11  0.17124000000E+03  0.17124000000E+03 0. -1.
       11    1    1    2    0    0 -0.82740513652E-01 -0.29658914412E-01  0.22086344105E+00  0.23771109486E+00  0.51109989000E-03 0.  1.
     -623    1    1    2    0    0  0.22120234219E-01  0.24637093533E-01  0.17215345769E-01  0.17124000407E+03  0.17124000000E+03 0. -1.
     -611    1    1    2    0    0  0.43331918236E-01 -0.55341491230E-03  0.39515237471E+01  0.39517613980E+01  0.51109989000E-03 0.  1.
      611    1    1    2    0    0  0.17288361198E-01  0.55752357909E-02  0.13103974423E+01  0.13105234408E+01  0.51109989000E-03 0. -1.
</event>
<event>
 6   3  0.2312675E+03  0.9118800E+02  0.7818608E-02  0.1180000E+00
       11   -1    0    0    0    0  0.00000000000E+00  0.00000000000E+00  0.54999999763E+01  0.55000000000E+01  0.51109989000E-03 0.  1.
     -623   -1    0    0    0    0  0.00000000000E+00  0.00000000000E+00  0.93234578044E-11  0.17124000000E+03  0.17124000000E+03 0. -1.
       11    1    1    2    0    0 -0.21672352305E-02  0.16956762610E-02 -0.26298080949E-02  0.38404869795E-02  0.51109989000E-03 0.  1.
     -623    1    1    2    0    0  0.30593335614E-02  0.54133441910E-02  0.86350130684E-02  0.17124000033E+03  0.17124000000E+03 0. -1.
     -611    1    1    2    0    0 -0.70980074944E-01  0.24138696724E-01  0.22216324141E+01  0.22228971394E+01  0.51109989000E-03 0. -1.
      611    1    1    2    0    0  0.70087976613E-01 -0.31247717176E-01  0.32723623572E+01  0.32732620430E+01  0.51109989000E-03 0.  1.
</event>
<event>
 6   3  0.2312675E+03  0.9118800E+02  0.7818608E-02  0.1180000E+00
       11   -1    0    0    0    0  0.00000000000E+00  0.00000000000E+00  0.54999999763E+01  0.55000000000E+01  0.51109989000E-03 0. -1.
     -623   -1    0    0    0    0  0.00000000000E+00  0.00000000000E+00  0.93234578044E-11  0.17124000000E+03  0.17124000000E+03 0. -1.
       11    1    1    2    0    0 -0.10478034980E-01  0.71477025989E-02  0.13302656800E+00  0.13363086427E+00  0.51109989000E-03 0. -1.
     -623    1    1    2    0    0  0.25669687208E-01 -0.80914766199E-02  0.32269306626E-02  0.17124000215E+03  0.17124000000E+03 0. -1.
     -611    1    1    2    0    0  0.61867723262E-01  0.41335500973E-01  0.17629755383E+01  0.17645450543E+01  0.51109989000E-03 0.  1.
      611    1    1    2    0    0 -0.77059375491E-01 -0.40391726952E-01  0.36007709393E+01  0.36018219358E+01  0.51109989000E-03 0. -1.
</event>
<event>
 6   3  0.2312675E+03  0.9118800E+02  0.7818608E-02  0.1180000E+00
       11   -1    0    0    0    0  0.00000000000E+00  0.00000000000E+00  0.54999999763E+01  0.55000000000E+01  0.51109989000E-03 0. -1.
     -623   -1    0    0    0    0  0.00000000000E+00  0.00000000000E+00  0.93234578044E-11  0.17124000000E+03  0.17124000000E+03 0.  1.
       11    1    1    2    0    0  0.24475844297E-01  0.25855896159E-01  0.23456319465E+00  0.23725039057E+00  0.51109989000E-03 0. -1.
     -623    1    1    2    0    0  0.67138387016E-02 -0.33530983951E-02  0.32870888475E-02  0.17124000020E+03  0.17124000000E+03 0.  1.
     -611    1    1    2    0    0 -0.53552025609E-01 -0.13572342751E-01  0.35310873491E+01  0.35315195251E+01  0.51109989000E-03 0. -1.
      611    1    1    2    0    0  0.22362342610E-01 -0.89304550127E-02  0.17310623436E+01  0.17312298883E+01  0.51109989000E-03 0.  1.
</event>
<event>
 6   3  0.2312675E+03  0.9118800E+02  0.7818608E-02  0.1180000E+00
       11   -1    0    0    0    0  0.00000000000E+00  0.00000000000E+00  0.54999999763E+01  0.55000000000E+01  0.51109989000E-03 0. -1.
     -623   -1    0    0    0    0  0.00000000000E+00  0.00000000000E+00  0.93234578044E-11  0.17124000000E+03  0.17124000000E+03 0. -1.
       11    1    1    2    0    0 -0.67044549605E-01  0.19372849415E-01  0.91311128078E+00  0.91577439975E+00  0.51109989000E-03 0. -1.
     -623    1    1    2    0    0 -0.50546678920E-02 -0.11250765168E-01  0.32786992937E-02  0.17124000048E+03  0.17124000000E+03 0. -1.
     -611    1    1    2    0    0  0.19250891537E-01  0.25704976589E-02  0.82713574011E+00  0.82736388492E+00  0.51109989000E-03 0.  1.
      611    1    1    2    0    0  0.52848325959E-01 -0.10692581906E-01  0.37564742560E+01  0.37568612397E+01  0.51109989000E-03 0. -1.
</event>
<event>
 6   3  0.2312675E+03  0.9118800E+02  0.7818608E-02  0.1180000E+00
       11   -1    0    0    0    0  0.00000000000E+00  0.00000000000E+00  0.54999999763E+01  0.55000000000E+01  0.51109989000E-03 0.  1.
     -623   -1    0    0    0    0  0.00000000000E+00  0.00000000000E+00  0.93234578044E-11  0.17124000000E+03  0.17124000000E+03 0.  1.
       11    1    1    2    0    0  0.67825748936E-02 -0.53436948363E-02  0.64574006880E-01  0.65150763497E-01  0.51109989000E-03 0.  1.
     -623    1    1    2    0    0 -0.82407456222E-01  0.52746613078E-01  0.13407417449E-02  0.17124002796E+03  0.17124000000E+03 0.  1.
     -611    1    1    2    0    0  0.65484613871E-01 -0.41701936589E-01  0.46078934993E+01  0.46085474987E+01  0.51109989000E-03 0.  1.
      611    1    1    2    0    0  0.10140267460E-01 -0.57009816555E-02  0.82619172857E+00  0.82627378017E+00  0.51109989000E-03 0.  1.
</event>
<event>
 6   3  0.2312675E+03  0.9118800E+02  0.7818608E-02  0.1180000E+00
       11   -1    0    0    0    0  0.00000000000E+00  0.00000000000E+00  0.54999999763E+01  0.55000000000E+01  0.51109989000E-03 0. -1.
     -623   -1    0    0    0    0  0.00000000000E+00  0.00000000000E+00  0.93234578044E-11  0.17124000000E+03  0.17124000000E+03 0. -1.
       11    1    1    2    0    0  0.43459457556E-02  0.13608077097E-01  0.10698987184E+01  0.10699942036E+01  0.51109989000E-03 0. -1.
     -623    1    1    2    0    0 -0.66552366293E-01 -0.29610962807E-01  0.57695190226E-03  0.17124001549E+03  0.17124000000E+03 0. -1.
     -611    1    1    2    0    0  0.24765718608E-01  0.68140140842E-02  0.17390717764E+01  0.17392615319E+01  0.51109989000E-03 0.  1.
      611    1    1    2    0    0  0.37440701929E-01  0.91888716257E-02  0.26904525296E+01  0.26907287705E+01  0.51109989000E-03 0. -1.
</event>
<event>
 6   3  0.2312675E+03  0.9118800E+02  0.7818608E-02  0.1180000E+00
       11   -1    0    0    0    0  0.00000000000E+00  0.00000000000E+00  0.54999999763E+01  0.55000000000E+01  0.51109989000E-03 0. -1.
     -623   -1    0    0    0    0  0.00000000000E+00  0.00000000000E+00  0.93234578044E-11  0.17124000000E+03  0.17124000000E+03 0.  1.
       11    1    1    2    0    0  0.20238951376E-01  0.36389895309E-02  0.57830164922E+00  0.57866736224E+00  0.51109989000E-03 0. -1.
     -623    1    1    2    0    0  0.38048096930E-01 -0.18107333493E-01  0.74275870830E-03  0.17124000519E+03  0.17124000000E+03 0.  1.
     -611    1    1    2    0    0 -0.21462251132E-01  0.23466552317E-02  0.19188320709E+01  0.19189535983E+01  0.51109989000E-03 0.  1.
      611    1    1    2    0    0 -0.36824797175E-01  0.12121688730E-01  0.30021234975E+01  0.30023738535E+01  0.51109989000E-03 0. -1.
</event>
<event>
 6   3  0.2312675E+03  0.9118800E+02  0.7818608E-02  0.1180000E+00
       11   -1    0    0    0    0  0.00000000000E+00  0.00000000000E+00  0.54999999763E+01  0.55000000000E+01  0.51109989000E-03 0. -1.
     -623   -1    0    0    0    0  0.00000000000E+00  0.00000000000E+00  0.93234578044E-11  0.17124000000E+03  0.17124000000E+03 0.  1.
       11    1    1    2    0    0  0.55836796574E-01 -0.28008854379E-01  0.68512156702E+00  0.68796371023E+00  0.51109989000E-03 0. -1.
     -623    1    1    2    0    0 -0.44852622044E-04  0.16860271416E-01  0.31795077402E-02  0.17124000086E+03  0.17124000000E+03 0.  1.
     -611    1    1    2    0    0 -0.23964712384E-01  0.45308248794E-02  0.20396581876E+01  0.20398040640E+01  0.51109989000E-03 0. -1.
      611    1    1    2    0    0 -0.31827231499E-01  0.66177580702E-02  0.27720407080E+01  0.27722313603E+01  0.51109989000E-03 0. -1.
</event>
<event>
 6   3  0.2312675E+03  0.9118800E+02  0.7818608E-02  0.1180000E+00
       11   -1    0    0    0    0  0.00000000000E+00  0.00000000000E+00  0.54999999763E+01  0.55000000000E+01  0.51109989000E-03 0. -1.
     -623   -1    0    0    0    0  0.00000000000E+00  0.00000000000E+00  0.93234578044E-11  0.17124000000E+03  0.17124000000E+03 0.  1.
       11    1    1    2    0    0 -0.22088662312E-01  0.18103312129E-01  0.19040717127E+00  0.19253776514E+00  0.51109989000E-03 0. -1.
     -623    1    1    2    0    0  0.16810333306E+00  0.28274034783E-01  0.44297874804E-02  0.17124008490E+03  0.17124000000E+03 0.  1.
     -611    1    1    2    0    0 -0.13973712643E-01 -0.57109421045E-02  0.55428183278E+00  0.55448759308E+00  0.51109989000E-03 0. -1.
      611    1    1    2    0    0 -0.13204095811E+00 -0.40666404809E-01  0.47508811849E+01  0.47528897384E+01  0.51109989000E-03 0. -1.
</event>
<event>
 6   3  0.2312675E+03  0.9118800E+02  0.7818608E-02  0.1180000E+00
       11   -1    0    0    0    0  0.00000000000E+00  0.00000000000E+00  0.54999999763E+01  0.55000000000E+01  0.51109989000E-03 0.  1.
     -623   -1    0    0    0    0  0.00000000000E+00  0.00000000000E+00  0.93234578044E-11  0.17124000000E+03  0.17124000000E+03 0. -1.
       11    1    1    2    0    0  0.53189146169E-01 -0.11390508796E+00  0.10879844903E+01  0.10952232497E+01  0.51109989000E-03 0.  1.
     -623    1    1    2    0    0  0.13489008325E-01  0.28352486600E-02  0.91599203335E-02  0.17124000080E+03  0.17124000000E+03 0. -1.
     -611    1    1    2    0    0 -0.55289245818E-01  0.92008312697E-01  0.37827427731E+01  0.37842655270E+01  0.51109989000E-03 0.  1.
      611    1    1    2    0    0 -0.11388908676E-01  0.19061526600E-01  0.62011279262E+00  0.62051042363E+00  0.51109989000E-03 0. -1.
</event>
<event>
 6   3  0.2312675E+03  0.9118800E+02  0.7818608E-02  0.1180000E+00
       11   -1    0    0    0    0  0.00000000000E+00  0.00000000000E+00  0.54999999763E+01  0.55000000000E+01  0.51109989000E-03 0.  1.
     -623   -1    0    0    0    0  0.00000000000E+00  0.00000000000E+00  0.93234578044E-11  0.17124000000E+03  0.17124000000E+03 0.  1.
       11    1    1    2    0    0 -0.21103705016E-02  0.18931402564E-02  0.34291957158E-02  0.44786437723E-02  0.51109989000E-03 0.  1.
     -623    1    1    2    0    0 -0.11194173980E-02 -0.14695317781E-02  0.19994049675E-02  0.17124000002E+03  0.17124000000E+03 0.  1.
     -611    1    1    2    0    0  0.48676948931E-01  0.65779563928E-04  0.17590686643E+01  0.17597421052E+01  0.51109989000E-03 0. -1.
      611    1    1    2    0    0 -0.45447161032E-01 -0.48938804226E-03  0.37355027113E+01  0.37357792294E+01  0.51109989000E-03 0.  1.
</event>
<event>
 6   3  0.2312675E+03  0.9118800E+02  0.7818608E-02  0.1180000E+00
       11   -1    0    0    0    0  0.00000000000E+00  0.00000000000E+00  0.54999999763E+01  0.55000000000E+01  0.51109989000E-03 0. -1.
     -623   -1    0    0    0    0  0.00000000000E+00  0.00000000000E+00  0.93234578044E-11  0.17124000000E+03  0.17124000000E+03 0. -1.
       11    1    1    2    0    0  0.22272100065E-02 -0.66083791839E-03  0.86188009619E-02  0.89410359739E-02  0.51109989000E-03 0. -1.
     -623    1    1    2    0    0 -0.20881307979E-02 -0.36879738115E-02  0.24408394043E-02  0.17124000007E+03  0.17124000000E+03 0. -1.
     -611    1    1    2    0    0  0.68772755518E-01 -0.99197743941E-03  0.15661452361E+01  0.15676548847E+01  0.51109989000E-03 0.  1.
      611    1    1    2    0    0 -0.68911834726E-01  0.53407891693E-02  0.39227950999E+01  0.39234040095E+01  0.51109989000E-03 0. -1.
</event>
<event>
 6   3  0.2312675E+03  0.9118800E+02  0.7818608E-02  0.1180000E+00
       11   -1    0    0    0    0  0.00000000000E+00  0.00000000000E+00  0.54999999763E+01  0.55000000000E+01  0.51109989000E-03 0. -1.
     -623   -1    0    0    0    0  0.00000000000E+00  0.00000000000E+00  0.93234578044E-11  0.17124000000E+03  0.17124000000E+03 0.  1.
       11    1    1    2    0    0  0.57836672531E-02  0.23903745891E-02  0.41997339982E+00  0.42002033579E+00  0.51109989000E-03 0. -1.
     -623    1    1    2    0    0 -0.39016591503E-03 -0.11375193714E-01  0.64580128619E-03  0.17124000038E+03  0.17124000000E+03 0.  1.
     -611    1    1    2    0    0  0.32730334168E-01  0.21927338680E-03  0.13648990532E+01  0.13652915475E+01  0.51109989000E-03 0.  1.
      611    1    1    2    0    0 -0.38123835506E-01  0.87655457377E-02  0.37144817219E+01  0.37146877372E+01  0.51109989000E-03 0. -1.
</event>
<event>
 6   3  0.2312675E+03  0.9118800E+02  0.7818608E-02  0.1180000E+00
       11   -1    0    0    0    0  0.00000000000E+00  0.00000000000E+00  0.54999999763E+01  0.55000000000E+01  0.51109989000E-03 0. -1.
     -623   -1    0    0    0    0  0.00000000000E+00  0.00000000000E+00  0.93234578044E-11  0.17124000000E+03  0.17124000000E+03 0. -1.
       11    1    1    2    0    0 -0.75617860783E-02  0.40577136500E-01  0.10550759934E+01  0.10558831838E+01  0.51109989000E-03 0. -1.
     -623    1    1    2    0    0  0.18422073165E-01 -0.30947927419E-01  0.15458960460E-02  0.17124000379E+03  0.17124000000E+03 0. -1.
     -611    1    1    2    0    0 -0.39786614870E-01  0.78886011087E-02  0.32580771184E+01  0.32583296296E+01  0.51109989000E-03 0. -1.
      611    1    1    2    0    0  0.28926327783E-01 -0.17517810190E-01  0.11853009684E+01  0.11857833921E+01  0.51109989000E-03 0.  1.
</event>
<event>
 6   3  0.2312675E+03  0.9118800E+02  0.7818608E-02  0.1180000E+00
       11   -1    0    0    0    0  0.00000000000E+00  0.00000000000E+00  0.54999999763E+01  0.55000000000E+01  0.51109989000E-03 0.  1.
     -623   -1    0    0    0    0  0.00000000000E+00  0.00000000000E+00  0.93234578044E-11  0.17124000000E+03  0.17124000000E+03 0. -1.
       11    1    1    2    0    0 -0.32899691142E-02 -0.14891672619E-01  0.36407627755E+00  0.36439591506E+00  0.51109989000E-03 0.  1.
     -623    1    1    2    0    0  0.71101483416E-02  0.74149404014E-02  0.90513184863E-03  0.17124000031E+03  0.17124000000E+03 0. -1.
     -611    1    1    2    0    0  0.35148343955E-01  0.21999876957E-02  0.31406860910E+01  0.31408835746E+01  0.51109989000E-03 0.  1.
      611    1    1    2    0    0 -0.38968523182E-01  0.52767445215E-02  0.19943324760E+01  0.19947201999E+01  0.51109989000E-03 0. -1.
</event>
<event>
 6   3  0.2312675E+03  0.9118800E+02  0.7818608E-02  0.1180000E+00
       11   -1    0    0    0    0  0.00000000000E+00  0.00000000000E+00  0.54999999763E+01  0.55000000000E+01  0.51109989000E-03 0.  1.
     -623   -1    0    0    0    0  0.00000000000E+00  0.00000000000E+00  0.93234578044E-11  0.17124000000E+03  0.17124000000E+03 0. -1.
       11    1    1    2    0    0  0.30201602041E-02  0.40028954738E-02  0.20403454442E-01  0.21016819838E-01  0.51109989000E-03 0.  1.
     -623    1    1    2    0    0 -0.93002922964E-03 -0.60793499550E-02  0.16678943768E-02  0.17124000012E+03  0.17124000000E+03 0. -1.
     -611    1    1    2    0    0 -0.44580526915E-01 -0.26655483256E-01  0.35172764314E+01  0.35176599742E+01  0.51109989000E-03 0. -1.
      611    1    1    2    0    0  0.42490395940E-01  0.28731937738E-01  0.19606521961E+01  0.19613230875E+01  0.51109989000E-03 0.  1.
</event>
<event>
 6   3  0.2312675E+03  0.9118800E+02  0.7818608E-02  0.1180000E+00
       11   -1    0    0    0    0  0.00000000000E+00  0.00000000000E+00  0.54999999763E+01  0.55000000000E+01  0.51109989000E-03 0. -1.
     -623   -1    0    0    0    0  0.00000000000E+00  0.00000000000E+00  0.93234578044E-11  0.17124000000E+03  0.17124000000E+03 0. -1.
       11    1    1    2    0    0  0.33576818739E-02 -0.27218643415E-01  0.10069817402E+01  0.10073552576E+01  0.51109989000E-03 0. -1.
     -623    1    1    2    0    0  0.10295120923E-01 -0.54743965119E-02  0.16930563984E-02  0.17124000041E+03  0.17124000000E+03 0. -1.
     -611    1    1    2    0    0  0.36109875981E-01  0.32764274478E-01  0.31822574259E+01  0.31826309882E+01  0.51109989000E-03 0. -1.
      611    1    1    2    0    0 -0.49762678778E-01 -0.71234551815E-04  0.13090677536E+01  0.13100133488E+01  0.51109989000E-03 0.  1.
</event>
<event>
 6   3  0.2312675E+03  0.9118800E+02  0.7818608E-02  0.1180000E+00
       11   -1    0    0    0    0  0.00000000000E+00  0.00000000000E+00  0.54999999763E+01  0.55000000000E+01  0.51109989000E-03 0.  1.
     -623   -1    0    0    0    0  0.00000000000E+00  0.00000000000E+00  0.93234578044E-11  0.17124000000E+03  0.17124000000E+03 0. -1.
       11    1    1    2    0    0 -0.12078342687E-02  0.15418846875E-01  0.39630538653E+00  0.39660738813E+00  0.51109989000E-03 0.  1.
     -623    1    1    2    0    0 -0.10671389332E-02 -0.13140339710E-03  0.14490185067E-02  0.17124000001E+03  0.17124000000E+03 0. -1.
     -611    1    1    2    0    0 -0.37638093456E-01 -0.39314169201E-01  0.36351543579E+01  0.36355618131E+01  0.51109989000E-03 0.  1.
      611    1    1    2    0    0  0.39913066658E-01  0.24026725723E-01  0.14670912133E+01  0.14678307892E+01  0.51109989000E-03 0. -1.
</event>
<event>
 6   3  0.2312675E+03  0.9118800E+02  0.7818608E-02  0.1180000E+00
       11   -1    0    0    0    0  0.00000000000E+00  0.00000000000E+00  0.54999999763E+01  0.55000000000E+01  0.51109989000E-03 0. -1.
     -623   -1    0    0    0    0  0.00000000000E+00  0.00000000000E+00  0.93234578044E-11  0.17124000000E+03  0.17124000000E+03 0. -1.
       11    1    1    2    0    0 -0.74244057094E-02  0.35033061429E-02  0.26211285035E+00  0.26224187784E+00  0.51109989000E-03 0. -1.
     -623    1    1    2    0    0  0.86070806417E-03  0.31486721218E-02  0.10638506968E-02  0.17124000003E+03  0.17124000000E+03 0. -1.
     -611    1    1    2    0    0 -0.38684338188E-01 -0.23653863044E-01  0.33861283206E+01  0.33864319347E+01  0.51109989000E-03 0. -1.
      611    1    1    2    0    0  0.45248035833E-01  0.17001884779E-01  0.18506949546E+01  0.18513261530E+01  0.51109989000E-03 0.  1.
</event>
<event>
 6   3  0.2312675E+03  0.9118800E+02  0.7818608E-02  0.1180000E+00
       11   -1    0    0    0    0  0.00000000000E+00  0.00000000000E+00  0.54999999763E+01  0.55000000000E+01  0.51109989000E-03 0.  1.
     -623   -1    0    0    0    0  0.00000000000E+00  0.00000000000E+00  0.93234578044E-11  0.17124000000E+03  0.17124000000E+03 0.  1.
       11    1    1    2    0    0 -0.14239957254E-01  0.94189594309E-02  0.43593201982E+00  0.43626652439E+00  0.51109989000E-03 0.  1.
     -623    1    1    2    0    0  0.78633975630E-02  0.18032877423E-02  0.18230261739E-02  0.17124000020E+03  0.17124000000E+03 0.  1.
     -611    1    1    2    0    0  0.62262240004E-01  0.11574113857E-03  0.20386468269E+01  0.20395974470E+01  0.51109989000E-03 0. -1.
      611    1    1    2    0    0 -0.55885680313E-01 -0.11337988312E-01  0.30235981034E+01  0.30241358289E+01  0.51109989000E-03 0.  1.
</event>
<event>
 6   3  0.2312675E+03  0.9118800E+02  0.7818608E-02  0.1180000E+00
       11   -1    0    0    0    0  0.00000000000E+00  0.00000000000E+00  0.54999999763E+01  0.55000000000E+01  0.51109989000E-03 0. -1.
     -623   -1    0    0    0    0  0.00000000000E+00  0.00000000000E+00  0.93234578044E-11  0.17124000000E+03  0.17124000000E+03 0.  1.
       11    1    1    2    0    0 -0.39652032035E-01 -0.36795836147E-02  0.47597285080E+00  0.47763609463E+00  0.51109989000E-03 0. -1.
     -623    1    1    2    0    0 -0.34511677496E-01  0.17718038086E-01  0.22359958738E-02  0.17124000441E+03  0.17124000000E+03 0.  1.
     -611    1    1    2    0    0  0.40043780569E-01 -0.89674710062E-02  0.26719616047E+01  0.26722767443E+01  0.51109989000E-03 0. -1.
      611    1    1    2    0    0  0.34119928965E-01 -0.50709834652E-02  0.23498295251E+01  0.23500827523E+01  0.51109989000E-03 0.  1.
</event>
<event>
 6   3  0.2312675E+03  0.9118800E+02  0.7818608E-02  0.1180000E+00
       11   -1    0    0    0    0  0.00000000000E+00  0.00000000000E+00  0.54999999763E+01  0.55000000000E+01  0.51109989000E-03 0. -1.
     -623   -1    0    0    0    0  0.00000000000E+00  0.00000000000E+00  0.93234578044E-11  0.17124000000E+03  0.17124000000E+03 0.  1.
       11    1    1    2    0    0  0.30950249865E-01  0.61654547544E-01  0.33656664476E+00  0.34356450455E+00  0.51109989000E-03 0. -1.
     -623    1    1    2    0    0 -0.23046733092E-02 -0.10003879096E-01  0.84257116832E-02  0.17124000052E+03  0.17124000000E+03 0.  1.
     -611    1    1    2    0    0  0.38512768549E-01 -0.18218386994E-01  0.25178322961E+01  0.25181927796E+01  0.51109989000E-03 0. -1.
      611    1    1    2    0    0 -0.67158345105E-01 -0.33432281453E-01  0.26371753237E+01  0.26382422008E+01  0.51109989000E-03 0.  1.
</event>
<event>
 6   3  0.2779404E+03  0.9118800E+02  0.7818608E-02  0.1180000E+00
       11   -1    0    0    0    0  0.00000000000E+00  0.00000000000E+00  0.54999999763E+01  0.55000000000E+01  0.51109989000E-03 0.  1.
     -623   -1    0    0    0    0  0.00000000000E+00  0.00000000000E+00  0.93234578044E-11  0.17124000000E+03  0.17124000000E+03 0. -1.
       11    1    1    2    0    0  0.18539997242E-02 -0.21548253091E-02  0.13381523867E-01  0.13689667315E-01  0.51109989000E-03 0.  1.
     -623    1    1    2    0    0 -0.32641721783E-02 -0.55387849653E-03  0.61871074130E-03  0.17124000003E+03  0.17124000000E+03 0. -1.
     -611    1    1    2    0    0  0.29624456710E-01 -0.20855920562E-02  0.29056153230E+01  0.29057671318E+01  0.51109989000E-03 0.  1.
      611    1    1    2    0    0 -0.28214284256E-01  0.47942958618E-02  0.25803844185E+01  0.25805431675E+01  0.51109989000E-03 0. -1.
</event>
<event>
 6   3  0.2312675E+03  0.9118800E+02  0.7818608E-02  0.1180000E+00
       11   -1    0    0    0    0  0.00000000000E+00  0.00000000000E+00  0.54999999763E+01  0.55000000000E+01  0.51109989000E-03 0. -1.
     -623   -1    0    0    0    0  0.00000000000E+00  0.00000000000E+00  0.93234578044E-11  0.17124000000E+03  0.17124000000E+03 0.  1.
       11    1    1    2    0    0  0.14127107725E-02 -0.16001245504E-02  0.34876149946E+00  0.34876840579E+00  0.51109989000E-03 0. -1.
     -623    1    1    2    0    0 -0.57107147565E-01  0.39595429723E-01  0.46256596258E-03  0.17124001410E+03  0.17124000000E+03 0.  1.
     -611    1    1    2    0    0  0.49567399629E-01 -0.34156965352E-01  0.45893891321E+01  0.45897839266E+01  0.51109989000E-03 0. -1.
      611    1    1    2    0    0  0.61270371566E-02 -0.38383398157E-02  0.56138677803E+00  0.56143356616E+00  0.51109989000E-03 0. -1.
</event>
<event>
 6   3  0.2312675E+03  0.9118800E+02  0.7818608E-02  0.1180000E+00
       11   -1    0    0    0    0  0.00000000000E+00  0.00000000000E+00  0.54999999763E+01  0.55000000000E+01  0.51109989000E-03 0. -1.
     -623   -1    0    0    0    0  0.00000000000E+00  0.00000000000E+00  0.93234578044E-11  0.17124000000E+03  0.17124000000E+03 0.  1.
       11    1    1    2    0    0  0.22531667848E-01  0.23668764914E-01  0.54694478704E+00  0.54792038453E+00  0.51109989000E-03 0. -1.
     -623    1    1    2    0    0  0.51370351689E-01  0.12714826660E-01  0.16690075659E-02  0.17124000819E+03  0.17124000000E+03 0.  1.
     -611    1    1    2    0    0 -0.37639740753E-01 -0.18546423143E-01  0.25248483254E+01  0.25251970314E+01  0.51109989000E-03 0. -1.
      611    1    1    2    0    0 -0.36262278693E-01 -0.17837168386E-01  0.24265378502E+01  0.24268743925E+01  0.51109989000E-03 0. -1.
</event>
<event>
 6   3  0.2312675E+03  0.9118800E+02  0.7818608E-02  0.1180000E+00
       11   -1    0    0    0    0  0.00000000000E+00  0.00000000000E+00  0.54999999763E+01  0.55000000000E+01  0.51109989000E-03 0. -1.
     -623   -1    0    0    0    0  0.00000000000E+00  0.00000000000E+00  0.93234578044E-11  0.17124000000E+03  0.17124000000E+03 0. -1.
       11    1    1    2    0    0 -0.12410918171E-02  0.71058794329E-03  0.21297804708E-01  0.21351884052E-01  0.51109989000E-03 0. -1.
     -623    1    1    2    0    0  0.76561914089E-01 -0.17209899059E-01  0.62143672797E-03  0.17124001798E+03  0.17124000000E+03 0. -1.
     -611    1    1    2    0    0 -0.15746883981E-01  0.79542250375E-04  0.10496720296E+01  0.10497902656E+01  0.51109989000E-03 0.  1.
      611    1    1    2    0    0 -0.59573938292E-01  0.16419768866E-01  0.44284087053E+01  0.44288398690E+01  0.51109989000E-03 0. -1.
</event>
<event>
 6   3  0.2312675E+03  0.9118800E+02  0.7818608E-02  0.1180000E+00
       11   -1    0    0    0    0  0.00000000000E+00  0.00000000000E+00  0.54999999763E+01  0.55000000000E+01  0.51109989000E-03 0.  1.
     -623   -1    0    0    0    0  0.00000000000E+00  0.00000000000E+00  0.93234578044E-11  0.17124000000E+03  0.17124000000E+03 0. -1.
       11    1    1    2    0    0 -0.58103217913E-01  0.96932074849E-02  0.87585223048E+00  0.87783103902E+00  0.51109989000E-03 0.  1.
     -623    1    1    2    0    0  0.26642824491E-02  0.80250000887E-02  0.23575058193E-02  0.17124000022E+03  0.17124000000E+03 0. -1.
     -611    1    1    2    0    0  0.55068338307E-02  0.11899549471E-02  0.52788081582E+00  0.52791112713E+00  0.51109989000E-03 0. -1.
      611    1    1    2    0    0  0.49932101633E-01 -0.18908162521E-01  0.40939094242E+01  0.40942576089E+01  0.51109989000E-03 0.  1.
</event>
<event>
 6   3  0.2312675E+03  0.9118800E+02  0.7818608E-02  0.1180000E+00
       11   -1    0    0    0    0  0.00000000000E+00  0.00000000000E+00  0.54999999763E+01  0.55000000000E+01  0.51109989000E-03 0. -1.
     -623   -1    0    0    0    0  0.00000000000E+00  0.00000000000E+00  0.93234578044E-11  0.17124000000E+03  0.17124000000E+03 0.  1.
       11    1    1    2    0    0  0.50327187184E-01  0.69142984231E-01  0.42555456799E+00  0.43406281758E+00  0.51109989000E-03 0. -1.
     -623    1    1    2    0    0  0.15416373681E-01 -0.10627034134E-01  0.93252869974E-02  0.17124000128E+03  0.17124000000E+03 0.  1.
     -611    1    1    2    0    0 -0.22804885458E-01 -0.85965513286E-02  0.11095841589E+01  0.11098518957E+01  0.51109989000E-03 0.  1.
      611    1    1    2    0    0 -0.42938675407E-01 -0.49919398768E-01  0.39555359624E+01  0.39560840091E+01  0.51109989000E-03 0. -1.
</event>
<event>
 6   3  0.2312675E+03  0.9118800E+02  0.7818608E-02  0.1180000E+00
       11   -1    0    0    0    0  0.00000000000E+00  0.00000000000E+00  0.54999999763E+01  0.55000000000E+01  0.51109989000E-03 0.  1.
     -623   -1    0    0    0    0  0.00000000000E+00  0.00000000000E+00  0.93234578044E-11  0.17124000000E+03  0.17124000000E+03 0.  1.
       11    1    1    2    0    0 -0.57767185086E-01 -0.12405120197E-01  0.55962452108E+00  0.56273510686E+00  0.51109989000E-03 0.  1.
     -623    1    1    2    0    0  0.67641022189E-02 -0.42847704490E-02  0.34030590741E-02  0.17124000022E+03  0.17124000000E+03 0.  1.
     -611    1    1    2    0    0  0.15434875660E-01  0.60981824268E-02  0.15039497753E+01  0.15040414260E+01  0.51109989000E-03 0. -1.
      611    1    1    2    0    0  0.35568207230E-01  0.10591708227E-01  0.34330226230E+01  0.34332232483E+01  0.51109989000E-03 0.  1.
</event>
<event>
 6   3  0.2312675E+03  0.9118800E+02  0.7818608E-02  0.1180000E+00
       11   -1    0    0    0    0  0.00000000000E+00  0.00000000000E+00  0.54999999763E+01  0.55000000000E+01  0.51109989000E-03 0. -1.
     -623   -1    0    0    0    0  0.00000000000E+00  0.00000000000E+00  0.93234578044E-11  0.17124000000E+03  0.17124000000E+03 0.  1.
       11    1    1    2    0    0 -0.57389737539E-01 -0.30496283382E-01  0.56756141374E+00  0.57127036057E+00  0.51109989000E-03 0. -1.
     -623    1    1    2    0    0 -0.44922585195E-02  0.60905816665E-02  0.41756583883E-02  0.17124000022E+03  0.17124000000E+03 0.  1.
     -611    1    1    2    0    0  0.13292026467E-01  0.10803886529E-01  0.10863307289E+01  0.10864658833E+01  0.51109989000E-03 0.  1.
      611    1    1    2    0    0  0.48589969593E-01  0.13601815187E-01  0.38419321753E+01  0.38422635380E+01  0.51109989000E-03 0. -1.
</event>
<event>
 6   3  0.2312675E+03  0.9118800E+02  0.7818608E-02  0.1180000E+00
       11   -1    0    0    0    0  0.00000000000E+00  0.00000000000E+00  0.54999999763E+01  0.55000000000E+01  0.51109989000E-03 0. -1.
     -623   -1    0    0    0    0  0.00000000000E+00  0.00000000000E+00  0.93234578044E-11  0.17124000000E+03  0.17124000000E+03 0.  1.
       11    1    1    2    0    0 -0.19617888191E-01 -0.37732620486E-02  0.51324056911E+00  0.51362947934E+00  0.51109989000E-03 0. -1.
     -623    1    1    2    0    0 -0.91823906829E-02  0.29103354260E-01  0.88724140584E-03  0.17124000272E+03  0.17124000000E+03 0.  1.
     -611    1    1    2    0    0 -0.18043108826E-01 -0.11238206326E-01  0.13796467606E+01  0.13798106016E+01  0.51109989000E-03 0.  1.
      611    1    1    2    0    0  0.46843387700E-01 -0.14091885886E-01  0.36062254051E+01  0.36065571974E+01  0.51109989000E-03 0. -1.
</event>
<event>
 6   3  0.2312675E+03  0.9118800E+02  0.7818608E-02  0.1180000E+00
       11   -1    0    0    0    0  0.00000000000E+00  0.00000000000E+00  0.54999999763E+01  0.55000000000E+01  0.51109989000E-03 0. -1.
     -623   -1    0    0    0    0  0.00000000000E+00  0.00000000000E+00  0.93234578044E-11  0.17124000000E+03  0.17124000000E+03 0.  1.
       11    1    1    2    0    0  0.92500019031E-01  0.23234431158E-01  0.10297252406E+01  0.10341326920E+01  0.51109989000E-03 0. -1.
     -623    1    1    2    0    0  0.51573689725E-02 -0.48760074853E-02  0.55275834266E-02  0.17124000024E+03  0.17124000000E+03 0.  1.
     -611    1    1    2    0    0 -0.88847752467E-01 -0.18924949995E-01  0.39542341920E+01  0.39552775356E+01  0.51109989000E-03 0. -1.
      611    1    1    2    0    0 -0.88096355356E-02  0.56652632279E-03  0.51051296020E+00  0.51058953611E+00  0.51109989000E-03 0.  1.
</event>
<event>
 6   3  0.2312675E+03  0.9118800E+02  0.7818608E-02  0.1180000E+00
       11   -1    0    0    0    0  0.00000000000E+00  0.00000000000E+00  0.54999999763E+01  0.55000000000E+01  0.51109989000E-03 0. -1.
     -623   -1    0    0    0    0  0.00000000000E+00  0.00000000000E+00  0.93234578044E-11  0.17124000000E+03  0.17124000000E+03 0.  1.
       11    1    1    2    0    0 -0.15328025998E-01  0.75305218982E-02  0.90583170296E+00  0.90599282141E+00  0.51109989000E-03 0. -1.
     -623    1    1    2    0    0  0.86245201580E-01 -0.38870637325E-01  0.84981896755E-03  0.17124002613E+03  0.17124000000E+03 0.  1.
     -611    1    1    2    0    0 -0.43884489231E-01  0.14897859536E-01  0.26663760911E+01  0.26667788650E+01  0.51109989000E-03 0.  1.
      611    1    1    2    0    0 -0.27032686642E-01  0.16442256022E-01  0.19269423818E+01  0.19272021996E+01  0.51109989000E-03 0. -1.
</event>
<event>
 6   3  0.2312675E+03  0.9118800E+02  0.7818608E-02  0.1180000E+00
       11   -1    0    0    0    0  0.00000000000E+00  0.00000000000E+00  0.54999999763E+01  0.55000000000E+01  0.51109989000E-03 0. -1.
     -623   -1    0    0    0    0  0.00000000000E+00  0.00000000000E+00  0.93234578044E-11  0.17124000000E+03  0.17124000000E+03 0.  1.
       11    1    1    2    0    0 -0.37647935621E-02  0.26495661731E-02 -0.11217503331E-03  0.46333225450E-02  0.51109989000E-03 0. -1.
     -623    1    1    2    0    0 -0.19224920736E-02  0.76176902068E-02  0.61191080745E-02  0.17124000029E+03  0.17124000000E+03 0.  1.
     -611    1    1    2    0    0  0.51896547682E-01 -0.32031800531E-01  0.18271504322E+01  0.18281680041E+01  0.51109989000E-03 0. -1.
      611    1    1    2    0    0 -0.46209262046E-01  0.21764544151E-01  0.36668426110E+01  0.36671983838E+01  0.51109989000E-03 0.  1.
</event>
<event>
 6   3  0.2312675E+03  0.9118800E+02  0.7818608E-02  0.1180000E+00
       11   -1    0    0    0    0  0.00000000000E+00  0.00000000000E+00  0.54999999763E+01  0.55000000000E+01  0.51109989000E-03 0.  1.
     -623   -1    0    0    0    0  0.00000000000E+00  0.00000000000E+00  0.93234578044E-11  0.17124000000E+03  0.17124000000E+03 0.  1.
       11    1    1    2    0    0 -0.97896639945E-02  0.19629022322E-01  0.43560193078E+00  0.43615414633E+00  0.51109989000E-03 0.  1.
     -623    1    1    2    0    0 -0.46674067243E-01 -0.38977834072E-02  0.89826053639E-03  0.17124000641E+03  0.17124000000E+03 0.  1.
     -611    1    1    2    0    0  0.37883899212E-01 -0.11317197264E-01  0.34450603574E+01  0.34452872734E+01  0.51109989000E-03 0.  1.
      611    1    1    2    0    0  0.18579832001E-01 -0.44140416447E-02  0.16184394253E+01  0.16185521705E+01  0.51109989000E-03 0.  1.
</event>
<event>
 6   3  0.2312675E+03  0.9118800E+02  0.7818608E-02  0.1180000E+00
       11   -1    0    0    0    0  0.00000000000E+00  0.00000000000E+00  0.54999999763E+01  0.55000000000E+01  0.51109989000E-03 0. -1.
     -623   -1    0    0    0    0  0.00000000000E+00  0.00000000000E+00  0.93234578044E-11  0.17124000000E+03  0.17124000000E+03 0.  1.
       11    1    1    2    0    0  0.10168547644E-01 -0.32622159419E-02  0.27885064273E+00  0.27905552062E+00  0.51109989000E-03 0. -1.
     -623    1    1    2    0    0 -0.74968688268E-01  0.10502525796E-01  0.63231062800E-03  0.17124001673E+03  0.17124000000E+03 0.  1.
     -611    1    1    2    0    0  0.12234288562E-01 -0.10590933338E-02  0.11811861684E+01  0.11812501112E+01  0.51109989000E-03 0.  1.
      611    1    1    2    0    0  0.52565852056E-01 -0.61812165194E-02  0.40393308541E+01  0.40396776339E+01  0.51109989000E-03 0. -1.
</event>
<event>
 6   3  0.2312675E+03  0.9118800E+02  0.7818608E-02  0.1180000E+00
       11   -1    0    0    0    0  0.00000000000E+00  0.00000000000E+00  0.54999999763E+01  0.55000000000E+01  0.51109989000E-03 0.  1.
     -623   -1    0    0    0    0  0.00000000000E+00  0.00000000000E+00  0.93234578044E-11  0.17124000000E+03  0.17124000000E+03 0. -1.
       11    1    1    2    0    0 -0.45031493844E-01  0.12277673880E-01  0.91228386330E+00  0.91347724940E+00  0.51109989000E-03 0.  1.
     -623    1    1    2    0    0 -0.45735261135E-02 -0.83333556723E-03  0.14761254526E-02  0.17124000007E+03  0.17124000000E+03 0. -1.
     -611    1    1    2    0    0  0.35409639929E-01 -0.83602583222E-02  0.32773991576E+01  0.32776011404E+01  0.51109989000E-03 0.  1.
      611    1    1    2    0    0  0.14195380050E-01 -0.30840799950E-02  0.13088408320E+01  0.13089215427E+01  0.51109989000E-03 0.  1.
</event>
<event>
 6   3  0.2312675E+03  0.9118800E+02  0.7818608E-02  0.1180000E+00
       11   -1    0    0    0    0  0.00000000000E+00  0.00000000000E+00  0.54999999763E+01  0.55000000000E+01  0.51109989000E-03 0. -1.
     -623   -1    0    0    0    0  0.00000000000E+00  0.00000000000E+00  0.93234578044E-11  0.17124000000E+03  0.17124000000E+03 0. -1.
       11    1    1    2    0    0  0.29733011649E-01 -0.71275282599E-01  0.63091157720E+00  0.63562087549E+00  0.51109989000E-03 0. -1.
     -623    1    1    2    0    0  0.98255948169E-02 -0.23463224499E-02  0.82034021810E-02  0.17124000049E+03  0.17124000000E+03 0. -1.
     -611    1    1    2    0    0 -0.77794929212E-01  0.10185679239E+00  0.41050810522E+01  0.41070813924E+01  0.51109989000E-03 0. -1.
      611    1    1    2    0    0  0.38236322746E-01 -0.28235187340E-01  0.75580394464E+00  0.75729723764E+00  0.51109989000E-03 0.  1.
</event>
<event>
 6   3  0.2312675E+03  0.9118800E+02  0.7818608E-02  0.1180000E+00
       11   -1    0    0    0    0  0.00000000000E+00  0.00000000000E+00  0.54999999763E+01  0.55000000000E+01  0.51109989000E-03 0. -1.
     -623   -1    0    0    0    0  0.00000000000E+00  0.00000000000E+00  0.93234578044E-11  0.17124000000E+03  0.17124000000E+03 0. -1.
       11    1    1    2    0    0  0.24805259681E-01  0.23563911733E-02  0.26691399823E+00  0.26807498422E+00  0.51109989000E-03 0. -1.
     -623    1    1    2    0    0  0.33095779260E-01 -0.21695460690E-02  0.14852698759E-02  0.17124000322E+03  0.17124000000E+03 0. -1.
     -611    1    1    2    0    0 -0.51591010993E-01  0.58391975136E-04  0.47131015912E+01  0.47133839761E+01  0.51109989000E-03 0. -1.
      611    1    1    2    0    0 -0.63100279576E-02 -0.24523707947E-03  0.51849911777E+00  0.51853782210E+00  0.51109989000E-03 0.  1.
</event>
<event>
 6   3  0.2312675E+03  0.9118800E+02  0.7818608E-02  0.1180000E+00
       11   -1    0    0    0    0  0.00000000000E+00  0.00000000000E+00  0.54999999763E+01  0.55000000000E+01  0.51109989000E-03 0.  1.
     -623   -1    0    0    0    0  0.00000000000E+00  0.00000000000E+00  0.93234578044E-11  0.17124000000E+03  0.17124000000E+03 0. -1.
       11    1    1    2    0    0 -0.40537945724E-02  0.46621787122E-02  0.20568672123E-01  0.21482566345E-01  0.51109989000E-03 0.  1.
     -623    1    1    2    0    0  0.41188367230E-02  0.23272471622E-03  0.18486253910E-02  0.17124000006E+03  0.17124000000E+03 0. -1.
     -611    1    1    2    0    0 -0.46032959551E-01  0.18245205285E-01  0.28626267049E+01  0.28630549826E+01  0.51109989000E-03 0. -1.
      611    1    1    2    0    0  0.45967917401E-01 -0.23140108714E-01  0.26149559739E+01  0.26154623914E+01  0.51109989000E-03 0.  1.
</event>
<event>
 6   3  0.2600680E+03  0.9118800E+02  0.7818608E-02  0.1180000E+00
       11   -1    0    0    0    0  0.00000000000E+00  0.00000000000E+00  0.54999999763E+01  0.55000000000E+01  0.51109989000E-03 0.  1.
     -623   -1    0    0    0    0  0.00000000000E+00  0.00000000000E+00  0.93234578044E-11  0.17124000000E+03  0.17124000000E+03 0.  1.
       11    1    1    2    0    0 -0.25467001755E-02  0.25243250010E-02  0.11028681950E-01  0.11608227562E-01  0.51109989000E-03 0.  1.
     -623    1    1    2    0    0  0.39982961560E-02 -0.27968818089E-02  0.13517425363E-02  0.17124000007E+03  0.17124000000E+03 0.  1.
     -611    1    1    2    0    0 -0.37039825408E-01  0.26870190807E-01  0.33322333494E+01  0.33325475709E+01  0.51109989000E-03 0.  1.
      611    1    1    2    0    0  0.35588229428E-01 -0.26597633999E-01  0.21553862023E+01  0.21558441267E+01  0.51109989000E-03 0. -1.
</event>
<event>
 6   3  0.2312675E+03  0.9118800E+02  0.7818608E-02  0.1180000E+00
       11   -1    0    0    0    0  0.00000000000E+00  0.00000000000E+00  0.54999999763E+01  0.55000000000E+01  0.51109989000E-03 0. -1.
     -623   -1    0    0    0    0  0.00000000000E+00  0.00000000000E+00  0.93234578044E-11  0.17124000000E+03  0.17124000000E+03 0.  1.
       11    1    1    2    0    0  0.37090094917E-02 -0.11135700750E-01  0.69328133856E+00  0.69338087384E+00  0.51109989000E-03 0. -1.
     -623    1    1    2    0    0 -0.35954786661E-01 -0.14651600115E-01  0.75261122677E-03  0.17124000440E+03  0.17124000000E+03 0.  1.
     -611    1    1    2    0    0 -0.15090864465E-01  0.20091243292E-01  0.87896990988E+00  0.87932915108E+00  0.51109989000E-03 0.  1.
      611    1    1    2    0    0  0.47336641633E-01  0.56960575711E-02  0.39269961163E+01  0.39272855717E+01  0.51109989000E-03 0. -1.
</event>
<event>
 6   3  0.2312675E+03  0.9118800E+02  0.7818608E-02  0.1180000E+00
       11   -1    0    0    0    0  0.00000000000E+00  0.00000000000E+00  0.54999999763E+01  0.55000000000E+01  0.51109989000E-03 0. -1.
     -623   -1    0    0    0    0  0.00000000000E+00  0.00000000000E+00  0.93234578044E-11  0.17124000000E+03  0.17124000000E+03 0. -1.
       11    1    1    2    0    0  0.24258650867E-01  0.37160958732E-01  0.24781429192E+00  0.25175703267E+00  0.51109989000E-03 0. -1.
     -623    1    1    2    0    0  0.47948742378E-01 -0.13844622071E-01  0.44987560804E-02  0.17124000733E+03  0.17124000000E+03 0. -1.
     -611    1    1    2    0    0 -0.19528070980E-01 -0.64978943509E-02  0.14351032540E+01  0.14352509115E+01  0.51109989000E-03 0. -1.
      611    1    1    2    0    0 -0.52679322289E-01 -0.16818442318E-01  0.38125836760E+01  0.38129847257E+01  0.51109989000E-03 0. -1.
</event>
<event>
 6   3  0.2312675E+03  0.9118800E+02  0.7818608E-02  0.1180000E+00
       11   -1    0    0    0    0  0.00000000000E+00  0.00000000000E+00  0.54999999763E+01  0.55000000000E+01  0.51109989000E-03 0.  1.
     -623   -1    0    0    0    0  0.00000000000E+00  0.00000000000E+00  0.93234578044E-11  0.17124000000E+03  0.17124000000E+03 0.  1.
       11    1    1    2    0    0 -0.96686725958E-01  0.20468643351E-01  0.80997127461E+00  0.81597856299E+00  0.51109989000E-03 0.  1.
     -623    1    1    2    0    0  0.37994995967E-02 -0.35238869169E-02  0.69862703608E-02  0.17124000022E+03  0.17124000000E+03 0.  1.
     -611    1    1    2    0    0  0.38288977770E-01 -0.14513504788E-01  0.21349208010E+01  0.21353135076E+01  0.51109989000E-03 0. -1.
      611    1    1    2    0    0  0.54598248592E-01 -0.24312516468E-02  0.25481216303E+01  0.25487077086E+01  0.51109989000E-03 0.  1.
</event>
<event>
 6   3  0.2312675E+03  0.9118800E+02  0.7818608E-02  0.1180000E+00
       11   -1    0    0    0    0  0.00000000000E+00  0.00000000000E+00  0.54999999763E+01  0.55000000000E+01  0.51109989000E-03 0.  1.
     -623   -1    0    0    0    0  0.00000000000E+00  0.00000000000E+00  0.93234578044E-11  0.17124000000E+03  0.17124000000E+03 0.  1.
       11    1    1    2    0    0  0.17564902462E-02 -0.60509717353E-02  0.39864065069E-01  0.40362165748E-01  0.51109989000E-03 0.  1.
     -623    1    1    2    0    0  0.19290821669E-02  0.20338549599E-02  0.24614447606E-02  0.17124000004E+03  0.17124000000E+03 0.  1.
     -611    1    1    2    0    0  0.58349086294E-01 -0.17540367025E-01  0.12822499962E+01  0.12836968467E+01  0.51109989000E-03 0. -1.
      611    1    1    2    0    0 -0.62034658707E-01  0.21557483800E-01  0.41754244702E+01  0.41759409468E+01  0.51109989000E-03 0.  1.
</event>
<event>
 6   3  0.2312675E+03  0.9118800E+02  0.7818608E-02  0.1180000E+00
       11   -1    0    0    0    0  0.00000000000E+00  0.00000000000E+00  0.54999999763E+01  0.55000000000E+01  0.51109989000E-03 0. -1.
     -623   -1    0    0    0    0  0.00000000000E+00  0.00000000000E+00  0.93234578044E-11  0.17124000000E+03  0.17124000000E+03 0. -1.
       11    1    1    2    0    0  0.73484541677E-01  0.52883697780E-02  0.60093521529E+00  0.60543483458E+00  0.51109989000E-03 0. -1.
     -623    1    1    2    0    0 -0.11527703637E-01 -0.39723951692E-02  0.49140002122E-02  0.17124000050E+03  0.17124000000E+03 0. -1.
     -611    1    1    2    0    0 -0.29662808504E-01 -0.78744346007E-02  0.23559080448E+01  0.23561079911E+01  0.51109989000E-03 0. -1.
      611    1    1    2    0    0 -0.32294029536E-01  0.65584599919E-02  0.25382427160E+01  0.25384566697E+01  0.51109989000E-03 0.  1.
</event>
<event>
 6   3  0.2312675E+03  0.9118800E+02  0.7818608E-02  0.1180000E+00
       11   -1    0    0    0    0  0.00000000000E+00  0.00000000000E+00  0.54999999763E+01  0.55000000000E+01  0.51109989000E-03 0. -1.
     -623   -1    0    0    0    0  0.00000000000E+00  0.00000000000E+00  0.93234578044E-11  0.17124000000E+03  0.17124000000E+03 0.  1.
       11    1    1    2    0    0  0.67774296800E-03  0.87423998577E-03  0.48798148531E-02  0.50296567658E-02  0.51109989000E-03 0. -1.
     -623    1    1    2    0    0  0.10871341508E-02 -0.62440970644E-03  0.60234996891E-03  0.17124000001E+03  0.17124000000E+03 0.  1.
     -611    1    1    2    0    0  0.30350730247E-01 -0.15919078656E-01  0.23623138836E+01  0.23625625346E+01  0.51109989000E-03 0.  1.
      611    1    1    2    0    0 -0.32115607366E-01  0.15669248376E-01  0.31322039277E+01  0.31324078029E+01  0.51109989000E-03 0. -1.
</event>
<event>
 6   3  0.2312675E+03  0.9118800E+02  0.7818608E-02  0.1180000E+00
       11   -1    0    0    0    0  0.00000000000E+00  0.00000000000E+00  0.54999999763E+01  0.55000000000E+01  0.51109989000E-03 0. -1.
     -623   -1    0    0    0    0  0.00000000000E+00  0.00000000000E+00  0.93234578044E-11  0.17124000000E+03  0.17124000000E+03 0.  1.
       11    1    1    2    0    0  0.27291441151E-01  0.21044795571E-01  0.84868392759E+00  0.84938352724E+00  0.51109989000E-03 0. -1.
     -623    1    1    2    0    0 -0.72506331815E-02  0.30181564533E-04  0.18097386799E-02  0.17124000016E+03  0.17124000000E+03 0.  1.
     -611    1    1    2    0    0 -0.50353503803E-01  0.16766431498E-01  0.23638585477E+01  0.23644542887E+01  0.51109989000E-03 0.  1.
      611    1    1    2    0    0  0.30312695833E-01 -0.37841408633E-01  0.22856477624E+01  0.22861620211E+01  0.51109989000E-03 0. -1.
</event>
<event>
 6   3  0.2312675E+03  0.9118800E+02  0.7818608E-02  0.1180000E+00
       11   -1    0    0    0    0  0.00000000000E+00  0.00000000000E+00  0.54999999763E+01  0.55000000000E+01  0.51109989000E-03 0. -1.
     -623   -1    0    0    0    0  0.00000000000E+00  0.00000000000E+00  0.93234578044E-11  0.17124000000E+03  0.17124000000E+03 0. -1.
       11    1    1    2    0    0 -0.10596580093E-02  0.56091714262E-02  0.18955443129E+00  0.18964105390E+00  0.51109989000E-03 0. -1.
     -623    1    1    2    0    0 -0.39811532135E-02 -0.15965856675E-01  0.71213274594E-03  0.17124000079E+03  0.17124000000E+03 0. -1.
     -611    1    1    2    0    0 -0.30258125430E-01  0.28636229073E-01  0.26377305194E+01  0.26380595410E+01  0.51109989000E-03 0.  1.
      611    1    1    2    0    0  0.35298936653E-01 -0.18279543824E-01  0.26720028928E+01  0.26722986130E+01  0.51109989000E-03 0. -1.
</event>
<event>
 6   3  0.2312675E+03  0.9118800E+02  0.7818608E-02  0.1180000E+00
       11   -1    0    0    0    0  0.00000000000E+00  0.00000000000E+00  0.54999999763E+01  0.55000000000E+01  0.51109989000E-03 0. -1.
     -623   -1    0    0    0    0  0.00000000000E+00  0.00000000000E+00  0.93234578044E-11  0.17124000000E+03  0.17124000000E+03 0. -1.
       11    1    1    2    0    0 -0.60852489346E-02  0.10497913447E-01  0.53563753156E+00  0.53577519809E+00  0.51109989000E-03 0. -1.
     -623    1    1    2    0    0  0.30042958943E-02  0.11355115161E-02  0.17519507181E-02  0.17124000004E+03  0.17124000000E+03 0. -1.
     -611    1    1    2    0    0  0.46354250233E-01  0.18751002304E-01  0.38813204064E+01  0.38816425229E+01  0.51109989000E-03 0. -1.
      611    1    1    2    0    0 -0.43273297193E-01 -0.30384427267E-01  0.10812900876E+01  0.10825822400E+01  0.51109989000E-03 0.  1.
</event>
<event>
 6   3  0.2312675E+03  0.9118800E+02  0.7818608E-02  0.1180000E+00
       11   -1    0    0    0    0  0.00000000000E+00  0.00000000000E+00  0.54999999763E+01  0.55000000000E+01  0.51109989000E-03 0.  1.
     -623   -1    0    0    0    0  0.00000000000E+00  0.00000000000E+00  0.93234578044E-11  0.17124000000E+03  0.17124000000E+03 0. -1.
       11    1    1    2    0    0 -0.31719179447E-02 -0.12810712668E-02  0.32018068144E-01  0.32204349362E-01  0.51109989000E-03 0.  1.
     -623    1    1    2    0    0  0.28625347169E-02 -0.49947214531E-04  0.14515243271E-02  0.17124000003E+03  0.17124000000E+03 0. -1.
     -611    1    1    2    0    0  0.47903326678E-01 -0.63598634638E-02  0.11736879440E+01  0.11746824369E+01  0.51109989000E-03 0. -1.
      611    1    1    2    0    0 -0.47593943450E-01  0.76908819451E-02  0.42928424399E+01  0.42931131837E+01  0.51109989000E-03 0.  1.
</event>
<event>
 6   3  0.2312675E+03  0.9118800E+02  0.7818608E-02  0.1180000E+00
       11   -1    0    0    0    0  0.00000000000E+00  0.00000000000E+00  0.54999999763E+01  0.55000000000E+01  0.51109989000E-03 0.  1.
     -623   -1    0    0    0    0  0.00000000000E+00  0.00000000000E+00  0.93234578044E-11  0.17124000000E+03  0.17124000000E+03 0.  1.
       11    1    1    2    0    0  0.17611010323E-01  0.29703795632E-02  0.51393485103E+00  0.51424533364E+00  0.51109989000E-03 0.  1.
     -623    1    1    2    0    0  0.50713613135E-01 -0.11598928481E-01  0.79444598343E-03  0.17124000790E+03  0.17124000000E+03 0.  1.
     -611    1    1    2    0    0 -0.90790141014E-02  0.13420299172E-02  0.63342911552E+00  0.63349580516E+00  0.51109989000E-03 0. -1.
      611    1    1    2    0    0 -0.59245609379E-01  0.72865190032E-02  0.43518415653E+01  0.43522509586E+01  0.51109989000E-03 0.  1.
</event>
<event>
 6   3  0.2312675E+03  0.9118800E+02  0.7818608E-02  0.1180000E+00
       11   -1    0    0    0    0  0.00000000000E+00  0.00000000000E+00  0.54999999763E+01  0.55000000000E+01  0.51109989000E-03 0.  1.
     -623   -1    0    0    0    0  0.00000000000E+00  0.00000000000E+00  0.93234578044E-11  0.17124000000E+03  0.17124000000E+03 0.  1.
       11    1    1    2    0    0  0.66022697381E-02  0.78022384191E-02  0.19255835618E-01  0.21806267871E-01  0.51109989000E-03 0.  1.
     -623    1    1    2    0    0 -0.38222187424E-01 -0.97094396710E-02  0.11310987906E-01  0.17124000491E+03  0.17124000000E+03 0.  1.
     -611    1    1    2    0    0 -0.34136225760E-01  0.14401971870E+00  0.31503922397E+01  0.31538672272E+01  0.51109989000E-03 0.  1.
      611    1    1    2    0    0  0.65756143446E-01 -0.14211251745E+00  0.23190409130E+01  0.23243215904E+01  0.51109989000E-03 0. -1.
</event>
<event>
 6   3  0.2312675E+03  0.9118800E+02  0.7818608E-02  0.1180000E+00
       11   -1    0    0    0    0  0.00000000000E+00  0.00000000000E+00  0.54999999763E+01  0.55000000000E+01  0.51109989000E-03 0. -1.
     -623   -1    0    0    0    0  0.00000000000E+00  0.00000000000E+00  0.93234578044E-11  0.17124000000E+03  0.17124000000E+03 0.  1.
       11    1    1    2    0    0 -0.43907676144E-03 -0.10895718045E-02  0.12677745934E-01  0.12742308276E-01  0.51109989000E-03 0. -1.
     -623    1    1    2    0    0 -0.17398408841E-02 -0.50028776470E-03  0.41586928762E-03  0.17124000001E+03  0.17124000000E+03 0.  1.
     -611    1    1    2    0    0  0.31290224658E-01  0.79468405823E-02  0.28799741397E+01  0.28801551238E+01  0.51109989000E-03 0. -1.
      611    1    1    2    0    0 -0.29111307013E-01 -0.63569810131E-02  0.26069322212E+01  0.26071025577E+01  0.51109989000E-03 0.  1.
</event>
<event>
 6   3  0.2312675E+03  0.9118800E+02  0.7818608E-02  0.1180000E+00
       11   -1    0    0    0    0  0.00000000000E+00  0.00000000000E+00  0.54999999763E+01  0.55000000000E+01  0.51109989000E-03 0.  1.
     -623   -1    0    0    0    0  0.00000000000E+00  0.00000000000E+00  0.93234578044E-11  0.17124000000E+03  0.17124000000E+03 0. -1.
       11    1    1    2    0    0 -0.22155868728E-01  0.17777127665E-01  0.31848001091E+00  0.31974472218E+00  0.51109989000E-03 0.  1.
     -623    1    1    2    0    0  0.16322163114E-01  0.14177933237E-02  0.40486886212E-02  0.17124000083E+03  0.17124000000E+03 0. -1.
     -611    1    1    2    0    0  0.57572701741E-01  0.84248261035E-02  0.70458625046E+00  0.70698489322E+00  0.51109989000E-03 0. -1.
      611    1    1    2    0    0 -0.51738996128E-01 -0.27619747092E-01  0.44728850263E+01  0.44732695530E+01  0.51109989000E-03 0.  1.
</event>
<event>
 6   3  0.2312675E+03  0.9118800E+02  0.7818608E-02  0.1180000E+00
       11   -1    0    0    0    0  0.00000000000E+00  0.00000000000E+00  0.54999999763E+01  0.55000000000E+01  0.51109989000E-03 0. -1.
     -623   -1    0    0    0    0  0.00000000000E+00  0.00000000000E+00  0.93234578044E-11  0.17124000000E+03  0.17124000000E+03 0. -1.
       11    1    1    2    0    0  0.23244786219E-01  0.13145512618E-01  0.10382810062E+01  0.10386244912E+01  0.51109989000E-03 0. -1.
     -623    1    1    2    0    0 -0.22292433904E-01  0.17771398581E-01  0.19418688866E-02  0.17124000238E+03  0.17124000000E+03 0. -1.
     -611    1    1    2    0    0 -0.45698921120E-01 -0.12098767998E-01  0.35401178502E+01  0.35404335082E+01  0.51109989000E-03 0. -1.
      611    1    1    2    0    0  0.44746568805E-01 -0.18818143200E-01  0.91965925101E+00  0.92093961643E+00  0.51109989000E-03 0.  1.
</event>
<event>
 6   3  0.2312675E+03  0.9118800E+02  0.7818608E-02  0.1180000E+00
       11   -1    0    0    0    0  0.00000000000E+00  0.00000000000E+00  0.54999999763E+01  0.55000000000E+01  0.51109989000E-03 0. -1.
     -623   -1    0    0    0    0  0.00000000000E+00  0.00000000000E+00  0.93234578044E-11  0.17124000000E+03  0.17124000000E+03 0. -1.
       11    1    1    2    0    0  0.41940872195E-01 -0.19565871171E-01  0.52802390234E+00  0.53004845320E+00  0.51109989000E-03 0. -1.
     -623    1    1    2    0    0  0.13051760715E-01 -0.48460787856E-01  0.28033628109E-02  0.17124000738E+03  0.17124000000E+03 0. -1.
     -611    1    1    2    0    0 -0.35568900663E-01  0.41162285154E-01  0.31171736287E+01  0.31176483402E+01  0.51109989000E-03 0. -1.
      611    1    1    2    0    0 -0.19423732250E-01  0.26864373876E-01  0.18519990825E+01  0.18522958292E+01  0.51109989000E-03 0.  1.
</event>
<event>
 6   3  0.2312675E+03  0.9118800E+02  0.7818608E-02  0.1180000E+00
       11   -1    0    0    0    0  0.00000000000E+00  0.00000000000E+00  0.54999999763E+01  0.55000000000E+01  0.51109989000E-03 0. -1.
     -623   -1    0    0    0    0  0.00000000000E+00  0.00000000000E+00  0.93234578044E-11  0.17124000000E+03  0.17124000000E+03 0.  1.
       11    1    1    2    0    0  0.55769262064E-01 -0.11681106098E-01  0.41287266607E+00  0.41678622631E+00  0.51109989000E-03 0. -1.
     -623    1    1    2    0    0  0.28290112670E-02 -0.31038217539E-01  0.44341154121E-02  0.17124000289E+03  0.17124000000E+03 0.  1.
     -611    1    1    2    0    0 -0.25077032640E-01  0.18179741970E-01  0.22306843075E+01  0.22308993930E+01  0.51109989000E-03 0. -1.
      611    1    1    2    0    0 -0.33521240713E-01  0.24539581684E-01  0.28520088892E+01  0.28523114890E+01  0.51109989000E-03 0.  1.
</event>
<event>
 6   3  0.2312675E+03  0.9118800E+02  0.7818608E-02  0.1180000E+00
       11   -1    0    0    0    0  0.00000000000E+00  0.00000000000E+00  0.54999999763E+01  0.55000000000E+01  0.51109989000E-03 0. -1.
     -623   -1    0    0    0    0  0.00000000000E+00  0.00000000000E+00  0.93234578044E-11  0.17124000000E+03  0.17124000000E+03 0.  1.
       11    1    1    2    0    0  0.12261682733E-01 -0.80816236005E-03  0.20861520244E+00  0.20897742917E+00  0.51109989000E-03 0. -1.
     -623    1    1    2    0    0  0.42593480096E-01 -0.59633275319E-01  0.10077521789E-02  0.17124001568E+03  0.17124000000E+03 0.  1.
     -611    1    1    2    0    0 -0.37469183062E-01  0.41911436996E-01  0.36211124367E+01  0.36215488467E+01  0.51109989000E-03 0. -1.
      611    1    1    2    0    0 -0.17385979714E-01  0.18530000624E-01  0.16692645797E+01  0.16694580353E+01  0.51109989000E-03 0. -1.
</event>
<event>
 6   3  0.2312675E+03  0.9118800E+02  0.7818608E-02  0.1180000E+00
       11   -1    0    0    0    0  0.00000000000E+00  0.00000000000E+00  0.54999999763E+01  0.55000000000E+01  0.51109989000E-03 0.  1.
     -623   -1    0    0    0    0  0.00000000000E+00  0.00000000000E+00  0.93234578044E-11  0.17124000000E+03  0.17124000000E+03 0. -1.
       11    1    1    2    0    0  0.11078306811E+00 -0.18158614719E+00  0.73763096267E+00  0.76768881413E+00  0.51109989000E-03 0.  1.
     -623    1    1    2    0    0  0.15039883357E-01  0.19949207270E-01  0.34498639934E-01  0.17124000530E+03  0.17124000000E+03 0. -1.
     -611    1    1    2    0    0 -0.29777054763E-01  0.38870652265E-01  0.11379007829E+01  0.11389539295E+01  0.51109989000E-03 0.  1.
      611    1    1    2    0    0 -0.96045896700E-01  0.12276628764E+00  0.35899695904E+01  0.35933519584E+01  0.51109989000E-03 0.  1.
</event>
<event>
 6   3  0.2312675E+03  0.9118800E+02  0.7818608E-02  0.1180000E+00
       11   -1    0    0    0    0  0.00000000000E+00  0.00000000000E+00  0.54999999763E+01  0.55000000000E+01  0.51109989000E-03 0.  1.
     -623   -1    0    0    0    0  0.00000000000E+00  0.00000000000E+00  0.93234578044E-11  0.17124000000E+03  0.17124000000E+03 0. -1.
       11    1    1    2    0    0  0.33694618606E-03  0.57574022175E-03  0.42097866289E-01  0.42106253439E-01  0.51109989000E-03 0.  1.
     -623    1    1    2    0    0 -0.58340716266E-01  0.51672581874E-02  0.33028956861E-03  0.17124001002E+03  0.17124000000E+03 0. -1.
     -611    1    1    2    0    0  0.25728473220E-01 -0.23158104071E-02  0.25325887507E+01  0.25327205449E+01  0.51109989000E-03 0.  1.
      611    1    1    2    0    0  0.32275297029E-01 -0.34271880169E-02  0.29249830857E+01  0.29251632011E+01  0.51109989000E-03 0. -1.
</event>
<event>
 6   3  0.2312675E+03  0.9118800E+02  0.7818608E-02  0.1180000E+00
       11   -1    0    0    0    0  0.00000000000E+00  0.00000000000E+00  0.54999999763E+01  0.55000000000E+01  0.51109989000E-03 0. -1.
     -623   -1    0    0    0    0  0.00000000000E+00  0.00000000000E+00  0.93234578044E-11  0.17124000000E+03  0.17124000000E+03 0. -1.
       11    1    1    2    0    0 -0.67916090412E-01 -0.18342610832E-01  0.28520228488E+00  0.29375100210E+00  0.51109989000E-03 0. -1.
     -623    1    1    2    0    0 -0.17228756166E-01  0.38936531188E-01  0.95323653506E-02  0.17124000556E+03  0.17124000000E+03 0. -1.
     -611    1    1    2    0    0  0.26548121020E-01  0.94617419193E-02  0.82155012946E+00  0.82203357822E+00  0.51109989000E-03 0.  1.
      611    1    1    2    0    0  0.58596725559E-01 -0.30055662275E-01  0.43837151966E+01  0.43842098610E+01  0.51109989000E-03 0. -1.
</event>
<event>
 6   3  0.2312675E+03  0.9118800E+02  0.7818608E-02  0.1180000E+00
       11   -1    0    0    0    0  0.00000000000E+00  0.00000000000E+00  0.54999999763E+01  0.55000000000E+01  0.51109989000E-03 0.  1.
     -623   -1    0    0    0    0  0.00000000000E+00  0.00000000000E+00  0.93234578044E-11  0.17124000000E+03  0.17124000000E+03 0. -1.
       11    1    1    2    0    0  0.52843151846E-02 -0.34997557367E-02  0.34282763387E+00  0.34288659940E+00  0.51109989000E-03 0.  1.
     -623    1    1    2    0    0 -0.60745630869E-01  0.52015072315E-02  0.37338185307E-03  0.17124001085E+03  0.17124000000E+03 0. -1.
     -611    1    1    2    0    0  0.16723253194E-01  0.20714390881E-02  0.13784846241E+01  0.13785877115E+01  0.51109989000E-03 0. -1.
      611    1    1    2    0    0  0.38738062506E-01 -0.37731905843E-02  0.37783143379E+01  0.37785148368E+01  0.51109989000E-03 0.  1.
</event>
<event>
 6   3  0.2312675E+03  0.9118800E+02  0.7818608E-02  0.1180000E+00
       11   -1    0    0    0    0  0.00000000000E+00  0.00000000000E+00  0.54999999763E+01  0.55000000000E+01  0.51109989000E-03 0.  1.
     -623   -1    0    0    0    0  0.00000000000E+00  0.00000000000E+00  0.93234578044E-11  0.17124000000E+03  0.17124000000E+03 0. -1.
       11    1    1    2    0    0 -0.81553832554E-02 -0.16246785001E-01  0.59162598211E-01  0.61894608401E-01  0.51109989000E-03 0.  1.
     -623    1    1    2    0    0 -0.12944641681E-01  0.96588808079E-02  0.55884135472E-02  0.17124000085E+03  0.17124000000E+03 0. -1.
     -611    1    1    2    0    0  0.55255389379E-01  0.72207803760E-01  0.39160350891E+01  0.39170905281E+01  0.51109989000E-03 0.  1.
      611    1    1    2    0    0 -0.34155364442E-01 -0.65619899567E-01  0.15192138754E+01  0.15210140106E+01  0.51109989000E-03 0. -1.
</event>
<event>
 6   3  0.2312675E+03  0.9118800E+02  0.7818608E-02  0.1180000E+00
       11   -1    0    0    0    0  0.00000000000E+00  0.00000000000E+00  0.54999999763E+01  0.55000000000E+01  0.51109989000E-03 0.  1.
     -623   -1    0    0    0    0  0.00000000000E+00  0.00000000000E+00  0.93234578044E-11  0.17124000000E+03  0.17124000000E+03 0. -1.
       11    1    1    2    0    0 -0.80074234782E-02  0.14842290312E-01  0.70470683324E+00  0.70490878449E+00  0.51109989000E-03 0.  1.
     -623    1    1    2    0    0  0.44914988515E-02 -0.15054324266E-02  0.10182728827E-02  0.17124000007E+03  0.17124000000E+03 0. -1.
     -611    1    1    2    0    0  0.38609701662E-01 -0.15881123323E-01  0.13714147012E+01  0.13720500950E+01  0.51109989000E-03 0. -1.
      611    1    1    2    0    0 -0.35093777035E-01  0.25442654377E-02  0.34228601687E+01  0.34230410518E+01  0.51109989000E-03 0.  1.
</event>
<event>
 6   3  0.2312675E+03  0.9118800E+02  0.7818608E-02  0.1180000E+00
       11   -1    0    0    0    0  0.00000000000E+00  0.00000000000E+00  0.54999999763E+01  0.55000000000E+01  0.51109989000E-03 0.  1.
     -623   -1    0    0    0    0  0.00000000000E+00  0.00000000000E+00  0.93234578044E-11  0.17124000000E+03  0.17124000000E+03 0.  1.
       11    1    1    2    0    0 -0.44788532370E-02 -0.37998181334E-02  0.65644614443E-01  0.65908841384E-01  0.51109989000E-03 0.  1.
     -623    1    1    2    0    0  0.66069231575E-02  0.86896725579E-02  0.15440384422E-02  0.17124000035E+03  0.17124000000E+03 0.  1.
     -611    1    1    2    0    0 -0.44578475800E-01  0.25249996692E-01  0.13895022686E+01  0.13904465536E+01  0.51109989000E-03 0. -1.
      611    1    1    2    0    0  0.42450405879E-01 -0.30139851117E-01  0.40433090548E+01  0.40436442501E+01  0.51109989000E-03 0.  1.
</event>
<event>
 6   3  0.2312675E+03  0.9118800E+02  0.7818608E-02  0.1180000E+00
       11   -1    0    0    0    0  0.00000000000E+00  0.00000000000E+00  0.54999999763E+01  0.55000000000E+01  0.51109989000E-03 0.  1.
     -623   -1    0    0    0    0  0.00000000000E+00  0.00000000000E+00  0.93234578044E-11  0.17124000000E+03  0.17124000000E+03 0.  1.
       11    1    1    2    0    0  0.31425008979E-01 -0.76618266517E-02  0.68982529052E+00  0.69058339644E+00  0.51109989000E-03 0.  1.
     -623    1    1    2    0    0  0.24893469349E-01 -0.14404532059E-02  0.11048089628E-02  0.17124000182E+03  0.17124000000E+03 0.  1.
     -611    1    1    2    0    0 -0.33493019528E-01  0.25701524753E-02  0.30365625366E+01  0.30367483741E+01  0.51109989000E-03 0.  1.
      611    1    1    2    0    0 -0.22825458797E-01  0.65321273819E-02  0.17725073399E+01  0.17726664101E+01  0.51109989000E-03 0. -1.
</event>
<event>
 6   3  0.2312675E+03  0.9118800E+02  0.7818608E-02  0.1180000E+00
       11   -1    0    0    0    0  0.00000000000E+00  0.00000000000E+00  0.54999999763E+01  0.55000000000E+01  0.51109989000E-03 0. -1.
     -623   -1    0    0    0    0  0.00000000000E+00  0.00000000000E+00  0.93234578044E-11  0.17124000000E+03  0.17124000000E+03 0. -1.
       11    1    1    2    0    0  0.10198121023E+00  0.91459376749E-01  0.92508069760E+00  0.93516818975E+00  0.51109989000E-03 0. -1.
     -623    1    1    2    0    0  0.51953322881E-02 -0.68291962327E-02  0.12135359407E-01  0.17124000064E+03  0.17124000000E+03 0. -1.
     -611    1    1    2    0    0 -0.53766516860E-01 -0.38742948338E-01  0.22378397313E+01  0.22388208456E+01  0.51109989000E-03 0. -1.
      611    1    1    2    0    0 -0.53410025656E-01 -0.45887232179E-01  0.23249441880E+01  0.23260103197E+01  0.51109989000E-03 0.  1.
</event>
<event>
 6   3  0.2312675E+03  0.9118800E+02  0.7818608E-02  0.1180000E+00
       11   -1    0    0    0    0  0.00000000000E+00  0.00000000000E+00  0.54999999763E+01  0.55000000000E+01  0.51109989000E-03 0. -1.
     -623   -1    0    0    0    0  0.00000000000E+00  0.00000000000E+00  0.93234578044E-11  0.17124000000E+03  0.17124000000E+03 0.  1.
       11    1    1    2    0    0  0.72827578011E-02 -0.33304405892E-02  0.49412113928E+00  0.49418629271E+00  0.51109989000E-03 0. -1.
     -623    1    1    2    0    0  0.13440782579E-03  0.15384794520E-02  0.77578330059E-03  0.17124000001E+03  0.17124000000E+03 0.  1.
     -611    1    1    2    0    0 -0.37239979929E-01  0.20299559650E-01  0.36847012639E+01  0.36849453936E+01  0.51109989000E-03 0. -1.
      611    1    1    2    0    0  0.29822814302E-01 -0.18507598513E-01  0.13204017900E+01  0.13208683052E+01  0.51109989000E-03 0.  1.
</event>
<event>
 6   3  0.2312675E+03  0.9118800E+02  0.7818608E-02  0.1180000E+00
       11   -1    0    0    0    0  0.00000000000E+00  0.00000000000E+00  0.54999999763E+01  0.55000000000E+01  0.51109989000E-03 0.  1.
     -623   -1    0    0    0    0  0.00000000000E+00  0.00000000000E+00  0.93234578044E-11  0.17124000000E+03  0.17124000000E+03 0.  1.
       11    1    1    2    0    0  0.18690062202E-01 -0.61389799092E-02  0.44991256019E+00  0.45034273452E+00  0.51109989000E-03 0.  1.
     -623    1    1    2    0    0  0.50024408976E-01 -0.61083507153E-02  0.93770957139E-03  0.17124000742E+03  0.17124000000E+03 0.  1.
     -611    1    1    2    0    0 -0.37422479225E-01  0.13274058488E-01  0.27326124411E+01  0.27329009599E+01  0.51109989000E-03 0. -1.
      611    1    1    2    0    0 -0.31291991951E-01 -0.10267278638E-02  0.23165372653E+01  0.23167488870E+01  0.51109989000E-03 0.  1.
</event>
<event>
 6   3  0.2312675E+03  0.9118800E+02  0.7818608E-02  0.1180000E+00
       11   -1    0    0    0    0  0.00000000000E+00  0.00000000000E+00  0.54999999763E+01  0.55000000000E+01  0.51109989000E-03 0. -1.
     -623   -1    0    0    0    0  0.00000000000E+00  0.00000000000E+00  0.93234578044E-11  0.17124000000E+03  0.17124000000E+03 0. -1.
       11    1    1    2    0    0 -0.59079840025E-01 -0.55672957730E-01  0.75412790041E+00  0.75848471120E+00  0.51109989000E-03 0. -1.
     -623    1    1    2    0    0  0.11224539253E-02  0.42552538764E-02  0.49901849714E-02  0.17124000013E+03  0.17124000000E+03 0. -1.
     -611    1    1    2    0    0  0.17078720527E-01  0.14711888715E-01  0.13940948416E+01  0.13942771644E+01  0.51109989000E-03 0. -1.
      611    1    1    2    0    0  0.40878665548E-01  0.36705815118E-01  0.33467870473E+01  0.33472379932E+01  0.51109989000E-03 0.  1.
</event>
<event>
 6   3  0.2312675E+03  0.9118800E+02  0.7818608E-02  0.1180000E+00
       11   -1    0    0    0    0  0.00000000000E+00  0.00000000000E+00  0.54999999763E+01  0.55000000000E+01  0.51109989000E-03 0. -1.
     -623   -1    0    0    0    0  0.00000000000E+00  0.00000000000E+00  0.93234578044E-11  0.17124000000E+03  0.17124000000E+03 0. -1.
       11    1    1    2    0    0  0.39192449579E-03  0.19797306384E-01  0.22999701578E+00  0.23084838192E+00  0.51109989000E-03 0. -1.
     -623    1    1    2    0    0 -0.18012419323E-01 -0.11099009799E-02  0.29241165992E-02  0.17124000098E+03  0.17124000000E+03 0. -1.
     -611    1    1    2    0    0 -0.35870229328E-01  0.27097737464E-01  0.65804279830E+00  0.65957679336E+00  0.51109989000E-03 0.  1.
      611    1    1    2    0    0  0.53490724155E-01 -0.45785142868E-01  0.46090360456E+01  0.46095738488E+01  0.51109989000E-03 0. -1.
</event>
<event>
 6   3  0.2312675E+03  0.9118800E+02  0.7818608E-02  0.1180000E+00
       11   -1    0    0    0    0  0.00000000000E+00  0.00000000000E+00  0.54999999763E+01  0.55000000000E+01  0.51109989000E-03 0. -1.
     -623   -1    0    0    0    0  0.00000000000E+00  0.00000000000E+00  0.93234578044E-11  0.17124000000E+03  0.17124000000E+03 0. -1.
       11    1    1    2    0    0  0.14337443957E-01  0.39661837374E-02  0.45303826517E+00  0.45328271955E+00  0.51109989000E-03 0. -1.
     -623    1    1    2    0    0  0.43887874636E-03  0.22745116522E-02  0.62883045128E-03  0.17124000002E+03  0.17124000000E+03 0. -1.
     -611    1    1    2    0    0 -0.38171488317E-01 -0.48846335776E-02  0.28661690643E+01  0.28664274435E+01  0.51109989000E-03 0. -1.
      611    1    1    2    0    0  0.23395165613E-01 -0.13560618121E-02  0.21801638165E+01  0.21802898204E+01  0.51109989000E-03 0.  1.
</event>
<event>
 6   3  0.2312675E+03  0.9118800E+02  0.7818608E-02  0.1180000E+00
       11   -1    0    0    0    0  0.00000000000E+00  0.00000000000E+00  0.54999999763E+01  0.55000000000E+01  0.51109989000E-03 0.  1.
     -623   -1    0    0    0    0  0.00000000000E+00  0.00000000000E+00  0.93234578044E-11  0.17124000000E+03  0.17124000000E+03 0. -1.
       11    1    1    2    0    0 -0.60396764146E-01 -0.22260325936E-01  0.36969050700E+00  0.37525274605E+00  0.51109989000E-03 0.  1.
     -623    1    1    2    0    0 -0.10546188440E-01  0.20246474438E-01  0.61674202631E-02  0.17124000163E+03  0.17124000000E+03 0. -1.
     -611    1    1    2    0    0  0.62654249557E-01 -0.97632876610E-02  0.44315392843E+01  0.44319929565E+01  0.51109989000E-03 0.  1.
      611    1    1    2    0    0  0.82887030285E-02  0.11777139159E-01  0.69260276469E+00  0.69275266473E+00  0.51109989000E-03 0. -1.
</event>
<event>
 6   3  0.2312675E+03  0.9118800E+02  0.7818608E-02  0.1180000E+00
       11   -1    0    0    0    0  0.00000000000E+00  0.00000000000E+00  0.54999999763E+01  0.55000000000E+01  0.51109989000E-03 0.  1.
     -623   -1    0    0    0    0  0.00000000000E+00  0.00000000000E+00  0.93234578044E-11  0.17124000000E+03  0.17124000000E+03 0.  1.
       11    1    1    2    0    0  0.62667707439E-02 -0.83479713899E-02  0.71304158521E-01  0.72065978709E-01  0.51109989000E-03 0.  1.
     -623    1    1    2    0    0 -0.18595373762E-02  0.63751765978E-02  0.14767570370E-02  0.17124000014E+03  0.17124000000E+03 0.  1.
     -611    1    1    2    0    0 -0.35982613871E-01  0.29201314136E-01  0.29456181832E+01  0.29459827235E+01  0.51109989000E-03 0. -1.
      611    1    1    2    0    0  0.31575380503E-01 -0.27228519344E-01  0.24816008775E+01  0.24819511625E+01  0.51109989000E-03 0.  1.
</event>
<event>
 6   3  0.2312675E+03  0.9118800E+02  0.7818608E-02  0.1180000E+00
       11   -1    0    0    0    0  0.00000000000E+00  0.00000000000E+00  0.54999999763E+01  0.55000000000E+01  0.51109989000E-03 0. -1.
     -623   -1    0    0    0    0  0.00000000000E+00  0.00000000000E+00  0.93234578044E-11  0.17124000000E+03  0.17124000000E+03 0. -1.
       11    1    1    2    0    0 -0.11954259204E-01 -0.38727981648E-01  0.11848994052E+00  0.12523133834E+00  0.51109989000E-03 0. -1.
     -623    1    1    2    0    0  0.38687874214E-01  0.61123257461E-02  0.80881730982E-02  0.17124000467E+03  0.17124000000E+03 0. -1.
     -611    1    1    2    0    0 -0.56764175206E-01  0.44606084371E-01  0.47110158779E+01  0.47115690313E+01  0.51109989000E-03 0. -1.
      611    1    1    2    0    0  0.30030560196E-01 -0.11990428469E-01  0.66240598480E+00  0.66319495990E+00  0.51109989000E-03 0.  1.
</event>
<event>
 6   3  0.2312675E+03  0.9118800E+02  0.7818608E-02  0.1180000E+00
       11   -1    0    0    0    0  0.00000000000E+00  0.00000000000E+00  0.54999999763E+01  0.55000000000E+01  0.51109989000E-03 0.  1.
     -623   -1    0    0    0    0  0.00000000000E+00  0.00000000000E+00  0.93234578044E-11  0.17124000000E+03  0.17124000000E+03 0.  1.
       11    1    1    2    0    0 -0.14054187905E-01 -0.12190159753E-01  0.87227443304E+00  0.87247296116E+00  0.51109989000E-03 0.  1.
     -623    1    1    2    0    0  0.81115974231E-02 -0.49594592756E-02  0.95915755139E-03  0.17124000027E+03  0.17124000000E+03 0.  1.
     -611    1    1    2    0    0 -0.33725812398E-01 -0.30752834533E-03  0.11625271431E+01  0.11630163992E+01  0.51109989000E-03 0. -1.
      611    1    1    2    0    0  0.39668402880E-01  0.17457147373E-01  0.34642392425E+01  0.34645103730E+01  0.51109989000E-03 0.  1.
</event>
<event>
 6   3  0.2312675E+03  0.9118800E+02  0.7818608E-02  0.1180000E+00
       11   -1    0    0    0    0  0.00000000000E+00  0.00000000000E+00  0.54999999763E+01  0.55000000000E+01  0.51109989000E-03 0. -1.
     -623   -1    0    0    0    0  0.00000000000E+00  0.00000000000E+00  0.93234578044E-11  0.17124000000E+03  0.17124000000E+03 0.  1.
       11    1    1    2    0    0  0.29307226099E-01 -0.15310383657E-01  0.17805380400E-01  0.37558143506E-01  0.51109989000E-03 0. -1.
     -623    1    1    2    0    0 -0.68642413071E-01 -0.64822759609E-01  0.22499982805E-01  0.17124002751E+03  0.17124000000E+03 0.  1.
     -611    1    1    2    0    0  0.95771888806E-01  0.54255848887E-01  0.36121397033E+01  0.36138164659E+01  0.51109989000E-03 0. -1.
      611    1    1    2    0    0 -0.56436701835E-01  0.25877294379E-01  0.18475549098E+01  0.18485978853E+01  0.51109989000E-03 0.  1.
</event>
<event>
 6   3  0.2312675E+03  0.9118800E+02  0.7818608E-02  0.1180000E+00
       11   -1    0    0    0    0  0.00000000000E+00  0.00000000000E+00  0.54999999763E+01  0.55000000000E+01  0.51109989000E-03 0.  1.
     -623   -1    0    0    0    0  0.00000000000E+00  0.00000000000E+00  0.93234578044E-11  0.17124000000E+03  0.17124000000E+03 0.  1.
       11    1    1    2    0    0 -0.48807733940E-01  0.61871232888E-02  0.69106781890E+00  0.69281705156E+00  0.51109989000E-03 0.  1.
     -623    1    1    2    0    0 -0.99017781126E-02  0.87813888715E-02  0.21329002532E-02  0.17124000052E+03  0.17124000000E+03 0.  1.
     -611    1    1    2    0    0  0.21720738585E-01 -0.68077658228E-02  0.17168878650E+01  0.17170388284E+01  0.51109989000E-03 0.  1.
      611    1    1    2    0    0  0.36988773466E-01 -0.81607463372E-02  0.30899113920E+01  0.30901435952E+01  0.51109989000E-03 0.  1.
</event>
<event>
 6   3  0.2312675E+03  0.9118800E+02  0.7818608E-02  0.1180000E+00
       11   -1    0    0    0    0  0.00000000000E+00  0.00000000000E+00  0.54999999763E+01  0.55000000000E+01  0.51109989000E-03 0. -1.
     -623   -1    0    0    0    0  0.00000000000E+00  0.00000000000E+00  0.93234578044E-11  0.17124000000E+03  0.17124000000E+03 0.  1.
       11    1    1    2    0    0 -0.71743478553E-01 -0.14485800238E-01  0.82302806165E+00  0.82627623505E+00  0.51109989000E-03 0. -1.
     -623    1    1    2    0    0  0.21378206051E-02  0.44045441204E-03  0.37880115847E-02  0.17124000006E+03  0.17124000000E+03 0.  1.
     -611    1    1    2    0    0  0.13269530822E-01  0.31826541040E-02  0.90336361234E+00  0.90346681569E+00  0.51109989000E-03 0. -1.
      611    1    1    2    0    0  0.56336127191E-01  0.10862691735E-01  0.37698202951E+01  0.37702568979E+01  0.51109989000E-03 0. -1.
</event>
<event>
 6   3  0.2312675E+03  0.9118800E+02  0.7818608E-02  0.1180000E+00
       11   -1    0    0    0    0  0.00000000000E+00  0.00000000000E+00  0.54999999763E+01  0.55000000000E+01  0.51109989000E-03 0. -1.
     -623   -1    0    0    0    0  0.00000000000E+00  0.00000000000E+00  0.93234578044E-11  0.17124000000E+03  0.17124000000E+03 0. -1.
       11    1    1    2    0    0 -0.32022388321E-02 -0.11091055751E-01  0.10253784032E+00  0.10318689729E+00  0.51109989000E-03 0. -1.
     -623    1    1    2    0    0  0.21474953704E-01  0.97567352439E-02  0.97583803115E-03  0.17124000163E+03  0.17124000000E+03 0. -1.
     -611    1    1    2    0    0 -0.38517372321E-01  0.30762416814E-02  0.37750754007E+01  0.37752731813E+01  0.51109989000E-03 0. -1.
      611    1    1    2    0    0  0.20244657449E-01 -0.17419211739E-02  0.16214108972E+01  0.16215382941E+01  0.51109989000E-03 0.  1.
</event>
<event>
 6   3  0.2312675E+03  0.9118800E+02  0.7818608E-02  0.1180000E+00
       11   -1    0    0    0    0  0.00000000000E+00  0.00000000000E+00  0.54999999763E+01  0.55000000000E+01  0.51109989000E-03 0. -1.
     -623   -1    0    0    0    0  0.00000000000E+00  0.00000000000E+00  0.93234578044E-11  0.17124000000E+03  0.17124000000E+03 0. -1.
       11    1    1    2    0    0  0.51923666363E-01 -0.26307306995E-01  0.10108384493E+01  0.10125130978E+01  0.51109989000E-03 0. -1.
     -623    1    1    2    0    0  0.10856260284E-02  0.26133498029E-02  0.20507491918E-02  0.17124000004E+03  0.17124000000E+03 0. -1.
     -611    1    1    2    0    0 -0.46128980007E-01  0.20858513395E-01  0.38833731246E+01  0.38837031358E+01  0.51109989000E-03 0. -1.
      611    1    1    2    0    0 -0.68803123601E-02  0.28354437870E-02  0.60373765115E+00  0.60378372873E+00  0.51109989000E-03 0. -1.
</event>
<event>
 6   3  0.2312675E+03  0.9118800E+02  0.7818608E-02  0.1180000E+00
       11   -1    0    0    0    0  0.00000000000E+00  0.00000000000E+00  0.54999999763E+01  0.55000000000E+01  0.51109989000E-03 0.  1.
     -623   -1    0    0    0    0  0.00000000000E+00  0.00000000000E+00  0.93234578044E-11  0.17124000000E+03  0.17124000000E+03 0.  1.
       11    1    1    2    0    0  0.11142218360E+00  0.42725903191E-01  0.67834499370E+00  0.68876164056E+00  0.51109989000E-03 0.  1.
     -623    1    1    2    0    0  0.14434743760E-01  0.30890480280E-01  0.12630811339E-01  0.17124000386E+03  0.17124000000E+03 0.  1.
     -611    1    1    2    0    0 -0.53011551069E-01 -0.29942287830E-01  0.20110194886E+01  0.20119409559E+01  0.51109989000E-03 0. -1.
      611    1    1    2    0    0 -0.72845376315E-01 -0.43674095654E-01  0.27980046835E+01  0.27992935440E+01  0.51109989000E-03 0. -1.
</event>
<event>
 6   3  0.2312675E+03  0.9118800E+02  0.7818608E-02  0.1180000E+00
       11   -1    0    0    0    0  0.00000000000E+00  0.00000000000E+00  0.54999999763E+01  0.55000000000E+01  0.51109989000E-03 0. -1.
     -623   -1    0    0    0    0  0.00000000000E+00  0.00000000000E+00  0.93234578044E-11  0.17124000000E+03  0.17124000000E+03 0.  1.
       11    1    1    2    0    0  0.28954695782E-01 -0.25109765600E-01  0.72918392106E+00  0.73019060983E+00  0.51109989000E-03 0. -1.
     -623    1    1    2    0    0  0.19923758516E-01  0.35845363875E-02  0.13071642159E-02  0.17124000120E+03  0.17124000000E+03 0.  1.
     -611    1    1    2    0    0 -0.75897869852E-02  0.31073331594E-02  0.71629880111E+00  0.71634593185E+00  0.51109989000E-03 0. -1.
      611    1    1    2    0    0 -0.41288667323E-01  0.18417896057E-01  0.40532100908E+01  0.40534622577E+01  0.51109989000E-03 0. -1.
</event>
<event>
 6   3  0.2312675E+03  0.9118800E+02  0.7818608E-02  0.1180000E+00
       11   -1    0    0    0    0  0.00000000000E+00  0.00000000000E+00  0.54999999763E+01  0.55000000000E+01  0.51109989000E-03 0. -1.
     -623   -1    0    0    0    0  0.00000000000E+00  0.00000000000E+00  0.93234578044E-11  0.17124000000E+03  0.17124000000E+03 0. -1.
       11    1    1    2    0    0 -0.20231157867E-02 -0.10020231182E-02  0.16918353420E-01  0.17075975912E-01  0.51109989000E-03 0. -1.
     -623    1    1    2    0    0 -0.35996437436E-03 -0.83239770552E-03  0.13227611641E-02  0.17124000001E+03  0.17124000000E+03 0. -1.
     -611    1    1    2    0    0 -0.40365583047E-01 -0.32810938648E-01  0.35514576727E+01  0.35518386506E+01  0.51109989000E-03 0. -1.
      611    1    1    2    0    0  0.42748663208E-01  0.34645359472E-01  0.19303011889E+01  0.19310853659E+01  0.51109989000E-03 0.  1.
</event>
<event>
 6   3  0.2312675E+03  0.9118800E+02  0.7818608E-02  0.1180000E+00
       11   -1    0    0    0    0  0.00000000000E+00  0.00000000000E+00  0.54999999763E+01  0.55000000000E+01  0.51109989000E-03 0. -1.
     -623   -1    0    0    0    0  0.00000000000E+00  0.00000000000E+00  0.93234578044E-11  0.17124000000E+03  0.17124000000E+03 0. -1.
       11    1    1    2    0    0 -0.35767201276E-02  0.31517509920E-02  0.13672623662E+00  0.13681027544E+00  0.51109989000E-03 0. -1.
     -623    1    1    2    0    0  0.46323019522E-02  0.17932715172E-02  0.73928818686E-03  0.17124000007E+03  0.17124000000E+03 0. -1.
     -611    1    1    2    0    0 -0.37291206556E-01 -0.22506840065E-01  0.27886261969E+01  0.27889663890E+01  0.51109989000E-03 0.  1.
      611    1    1    2    0    0  0.36235624731E-01  0.17561817556E-01  0.25739082546E+01  0.25742232619E+01  0.51109989000E-03 0. -1.
</event>
<event>
 6   3  0.2312675E+03  0.9118800E+02  0.7818608E-02  0.1180000E+00
       11   -1    0    0    0    0  0.00000000000E+00  0.00000000000E+00  0.54999999763E+01  0.55000000000E+01  0.51109989000E-03 0.  1.
     -623   -1    0    0    0    0  0.00000000000E+00  0.00000000000E+00  0.93234578044E-11  0.17124000000E+03  0.17124000000E+03 0. -1.
       11    1    1    2    0    0  0.19935531330E-01  0.81875373173E-02  0.20740609099E-01  0.29914800110E-01  0.51109989000E-03 0.  1.
     -623    1    1    2    0    0  0.49373216201E-02 -0.49123858078E-02  0.14517970794E-01  0.17124000076E+03  0.17124000000E+03 0. -1.
     -611    1    1    2    0    0  0.99057932218E-01  0.15404087921E-01  0.14906395634E+01  0.14940068036E+01  0.51109989000E-03 0. -1.
      611    1    1    2    0    0 -0.12393078517E+00 -0.18679239430E-01  0.39741018329E+01  0.39760776392E+01  0.51109989000E-03 0.  1.
</event>
<event>
 6   3  0.2312675E+03  0.9118800E+02  0.7818608E-02  0.1180000E+00
       11   -1    0    0    0    0  0.00000000000E+00  0.00000000000E+00  0.54999999763E+01  0.55000000000E+01  0.51109989000E-03 0.  1.
     -623   -1    0    0    0    0  0.00000000000E+00  0.00000000000E+00  0.93234578044E-11  0.17124000000E+03  0.17124000000E+03 0.  1.
       11    1    1    2    0    0  0.24155969341E-01 -0.10743142862E-01  0.21774951450E+00  0.21934912414E+00  0.51109989000E-03 0.  1.
     -623    1    1    2    0    0 -0.11386282253E-02  0.30592676200E-02  0.25313635888E-02  0.17124000005E+03  0.17124000000E+03 0.  1.
     -611    1    1    2    0    0  0.26407430620E-01  0.22217461066E-03  0.52093599857E+00  0.52160519321E+00  0.51109989000E-03 0. -1.
      611    1    1    2    0    0 -0.49424771736E-01  0.74617006315E-02  0.47587830996E+01  0.47590456328E+01  0.51109989000E-03 0.  1.
</event>
<event>
 6   3  0.2312675E+03  0.9118800E+02  0.7818608E-02  0.1180000E+00
       11   -1    0    0    0    0  0.00000000000E+00  0.00000000000E+00  0.54999999763E+01  0.55000000000E+01  0.51109989000E-03 0. -1.
     -623   -1    0    0    0    0  0.00000000000E+00  0.00000000000E+00  0.93234578044E-11  0.17124000000E+03  0.17124000000E+03 0. -1.
       11    1    1    2    0    0 -0.32400601039E-02 -0.41263395718E-02  0.36104054273E+00  0.36107902097E+00  0.51109989000E-03 0. -1.
     -623    1    1    2    0    0 -0.85203070558E-02  0.39649846949E-02  0.80021863690E-03  0.17124000026E+03  0.17124000000E+03 0. -1.
     -611    1    1    2    0    0  0.45845120556E-01  0.18394872618E-01  0.31235948846E+01  0.31239855010E+01  0.51109989000E-03 0. -1.
      611    1    1    2    0    0 -0.34084753396E-01 -0.18233517741E-01  0.20145643301E+01  0.20149352181E+01  0.51109989000E-03 0.  1.
</event>
<event>
 6   3  0.2312675E+03  0.9118800E+02  0.7818608E-02  0.1180000E+00
       11   -1    0    0    0    0  0.00000000000E+00  0.00000000000E+00  0.54999999763E+01  0.55000000000E+01  0.51109989000E-03 0. -1.
     -623   -1    0    0    0    0  0.00000000000E+00  0.00000000000E+00  0.93234578044E-11  0.17124000000E+03  0.17124000000E+03 0.  1.
       11    1    1    2    0    0 -0.24761477795E-01 -0.81805875418E-03  0.62386437360E+00  0.62435632284E+00  0.51109989000E-03 0. -1.
     -623    1    1    2    0    0 -0.27049253191E-01 -0.17758772850E-01  0.80591854957E-03  0.17124000306E+03  0.17124000000E+03 0.  1.
     -611    1    1    2    0    0  0.98105981480E-02  0.38848951223E-02  0.93561943376E+00  0.93567907228E+00  0.51109989000E-03 0.  1.
      611    1    1    2    0    0  0.42000132864E-01  0.14691936491E-01  0.39397102528E+01  0.39399615482E+01  0.51109989000E-03 0. -1.
</event>
<event>
 6   3  0.2312675E+03  0.9118800E+02  0.7818608E-02  0.1180000E+00
       11   -1    0    0    0    0  0.00000000000E+00  0.00000000000E+00  0.54999999763E+01  0.55000000000E+01  0.51109989000E-03 0. -1.
     -623   -1    0    0    0    0  0.00000000000E+00  0.00000000000E+00  0.93234578044E-11  0.17124000000E+03  0.17124000000E+03 0.  1.
       11    1    1    2    0    0  0.31106383841E-01  0.45497110881E-01  0.64796041395E+00  0.65030035636E+00  0.51109989000E-03 0. -1.
     -623    1    1    2    0    0  0.24644539300E-02 -0.34876542272E-02  0.31270975003E-02  0.17124000008E+03  0.17124000000E+03 0.  1.
     -611    1    1    2    0    0 -0.49803088712E-01 -0.47967647745E-01  0.41311231536E+01  0.41317018303E+01  0.51109989000E-03 0. -1.
      611    1    1    2    0    0  0.16232250940E-01  0.59581910912E-02  0.71778931122E+00  0.71799773157E+00  0.51109989000E-03 0.  1.
</event>
<event>
 6   3  0.2312675E+03  0.9118800E+02  0.7818608E-02  0.1180000E+00
       11   -1    0    0    0    0  0.00000000000E+00  0.00000000000E+00  0.54999999763E+01  0.55000000000E+01  0.51109989000E-03 0.  1.
     -623   -1    0    0    0    0  0.00000000000E+00  0.00000000000E+00  0.93234578044E-11  0.17124000000E+03  0.17124000000E+03 0.  1.
       11    1    1    2    0    0 -0.28889604705E-02 -0.89455765635E-02  0.29635670573E-01  0.31095073984E-01  0.51109989000E-03 0.  1.
     -623    1    1    2    0    0  0.98206164030E-02  0.27196699946E-02  0.22718255414E-02  0.17124000032E+03  0.17124000000E+03 0.  1.
     -611    1    1    2    0    0 -0.49695175240E-01 -0.14468560455E-02  0.25024789830E+01  0.25029728375E+01  0.51109989000E-03 0.  1.
      611    1    1    2    0    0  0.42763519307E-01  0.76727626144E-02  0.29656134971E+01  0.29659317702E+01  0.51109989000E-03 0. -1.
</event>
<event>
 6   3  0.2312675E+03  0.9118800E+02  0.7818608E-02  0.1180000E+00
       11   -1    0    0    0    0  0.00000000000E+00  0.00000000000E+00  0.54999999763E+01  0.55000000000E+01  0.51109989000E-03 0.  1.
     -623   -1    0    0    0    0  0.00000000000E+00  0.00000000000E+00  0.93234578044E-11  0.17124000000E+03  0.17124000000E+03 0. -1.
       11    1    1    2    0    0  0.57239665455E-02  0.47165719019E-03  0.44752198813E+00  0.44755913278E+00  0.51109989000E-03 0.  1.
     -623    1    1    2    0    0 -0.91084125547E-03  0.67113374669E-03  0.75920672925E-03  0.17124000001E+03  0.17124000000E+03 0. -1.
     -611    1    1    2    0    0  0.33506048350E-01  0.13319643524E-01  0.13047780680E+01  0.13052762681E+01  0.51109989000E-03 0. -1.
      611    1    1    2    0    0 -0.38319173640E-01 -0.14462434460E-01  0.37469407132E+01  0.37471645935E+01  0.51109989000E-03 0.  1.
</event>
<event>
 6   3  0.2312675E+03  0.9118800E+02  0.7818608E-02  0.1180000E+00
       11   -1    0    0    0    0  0.00000000000E+00  0.00000000000E+00  0.54999999763E+01  0.55000000000E+01  0.51109989000E-03 0.  1.
     -623   -1    0    0    0    0  0.00000000000E+00  0.00000000000E+00  0.93234578044E-11  0.17124000000E+03  0.17124000000E+03 0.  1.
       11    1    1    2    0    0  0.43620832437E-02 -0.13493819318E-01  0.99511043006E+00  0.99521160573E+00  0.51109989000E-03 0.  1.
     -623    1    1    2    0    0 -0.29397492158E-02 -0.12836428875E-02  0.39067099084E-02  0.17124000007E+03  0.17124000000E+03 0.  1.
     -611    1    1    2    0    0  0.65879498507E-01 -0.55789643519E-01  0.23792080270E+01  0.23807737586E+01  0.51109989000E-03 0.  1.
      611    1    1    2    0    0 -0.67301832534E-01  0.70567105724E-01  0.21217748093E+01  0.21240145611E+01  0.51109989000E-03 0. -1.
</event>
<event>
 6   3  0.2312675E+03  0.9118800E+02  0.7818608E-02  0.1180000E+00
       11   -1    0    0    0    0  0.00000000000E+00  0.00000000000E+00  0.54999999763E+01  0.55000000000E+01  0.51109989000E-03 0. -1.
     -623   -1    0    0    0    0  0.00000000000E+00  0.00000000000E+00  0.93234578044E-11  0.17124000000E+03  0.17124000000E+03 0. -1.
       11    1    1    2    0    0 -0.22765888654E-02  0.35925936197E-02  0.33087495576E-01  0.33363650465E-01  0.51109989000E-03 0. -1.
     -623    1    1    2    0    0  0.13369145176E-02 -0.24280320471E-02  0.89793469884E-03  0.17124000002E+03  0.17124000000E+03 0. -1.
     -611    1    1    2    0    0 -0.40010835484E-01 -0.58082660129E-02  0.30867902546E+01  0.30870550594E+01  0.51109989000E-03 0. -1.
      611    1    1    2    0    0  0.40950509831E-01  0.46437044401E-02  0.23792242912E+01  0.23795812651E+01  0.51109989000E-03 0.  1.
</event>
<event>
 6   3  0.2312675E+03  0.9118800E+02  0.7818608E-02  0.1180000E+00
       11   -1    0    0    0    0  0.00000000000E+00  0.00000000000E+00  0.54999999763E+01  0.55000000000E+01  0.51109989000E-03 0.  1.
     -623   -1    0    0    0    0  0.00000000000E+00  0.00000000000E+00  0.93234578044E-11  0.17124000000E+03  0.17124000000E+03 0. -1.
       11    1    1    2    0    0 -0.37034423332E-02 -0.75488470336E-02  0.80612158042E+00  0.80616559355E+00  0.51109989000E-03 0.  1.
     -623    1    1    2    0    0  0.14541331396E-02  0.55973291970E-02  0.50264281649E-03  0.17124000010E+03  0.17124000000E+03 0. -1.
     -611    1    1    2    0    0  0.30892980402E-01 -0.12532749359E-01  0.22245508584E+01  0.22248007167E+01  0.51109989000E-03 0.  1.
      611    1    1    2    0    0 -0.28643671208E-01  0.14484267195E-01  0.24688248946E+01  0.24690335914E+01  0.51109989000E-03 0. -1.
</event>
<event>
 6   3  0.2312675E+03  0.9118800E+02  0.7818608E-02  0.1180000E+00
       11   -1    0    0    0    0  0.00000000000E+00  0.00000000000E+00  0.54999999763E+01  0.55000000000E+01  0.51109989000E-03 0.  1.
     -623   -1    0    0    0    0  0.00000000000E+00  0.00000000000E+00  0.93234578044E-11  0.17124000000E+03  0.17124000000E+03 0.  1.
       11    1    1    2    0    0 -0.61998131220E-03  0.28355768798E-02  0.38329587569E-02  0.48350459148E-02  0.51109989000E-03 0.  1.
     -623    1    1    2    0    0  0.15917468869E-02 -0.26821508270E-02  0.18737976411E-02  0.17124000004E+03  0.17124000000E+03 0.  1.
     -611    1    1    2    0    0  0.46334405499E-01  0.14126910479E-01  0.27673513168E+01  0.27677752832E+01  0.51109989000E-03 0.  1.
      611    1    1    2    0    0 -0.47306171074E-01 -0.14280336532E-01  0.27269419032E+01  0.27273896323E+01  0.51109989000E-03 0. -1.
</event>
<event>
 6   3  0.2312675E+03  0.9118800E+02  0.7818608E-02  0.1180000E+00
       11   -1    0    0    0    0  0.00000000000E+00  0.00000000000E+00  0.54999999763E+01  0.55000000000E+01  0.51109989000E-03 0. -1.
     -623   -1    0    0    0    0  0.00000000000E+00  0.00000000000E+00  0.93234578044E-11  0.17124000000E+03  0.17124000000E+03 0.  1.
       11    1    1    2    0    0  0.52382044093E-02  0.15239965612E-01  0.66621849704E-01  0.68545075814E-01  0.51109989000E-03 0. -1.
     -623    1    1    2    0    0  0.14280807238E-01 -0.15461877896E-01  0.40449104026E-02  0.17124000134E+03  0.17124000000E+03 0.  1.
     -611    1    1    2    0    0  0.60810820409E-01 -0.25864202650E-01  0.20492041545E+01  0.20502694557E+01  0.51109989000E-03 0.  1.
      611    1    1    2    0    0 -0.80329832056E-01  0.26086114934E-01  0.33801290617E+01  0.33811841272E+01  0.51109989000E-03 0. -1.
</event>
<event>
 6   3  0.2312675E+03  0.9118800E+02  0.7818608E-02  0.1180000E+00
       11   -1    0    0    0    0  0.00000000000E+00  0.00000000000E+00  0.54999999763E+01  0.55000000000E+01  0.51109989000E-03 0.  1.
     -623   -1    0    0    0    0  0.00000000000E+00  0.00000000000E+00  0.93234578044E-11  0.17124000000E+03  0.17124000000E+03 0. -1.
       11    1    1    2    0    0  0.18312926523E-02  0.49572476948E-02  0.25153928714E+00  0.25159531421E+00  0.51109989000E-03 0.  1.
     -623    1    1    2    0    0 -0.59207258856E-01 -0.12865652389E+00  0.18863983237E-02  0.17124005858E+03  0.17124000000E+03 0. -1.
     -611    1    1    2    0    0  0.32090930921E-01  0.69667603690E-01  0.29624474953E+01  0.29634403700E+01  0.51109989000E-03 0.  1.
      611    1    1    2    0    0  0.25285034767E-01  0.54031671385E-01  0.22841267478E+01  0.22849056908E+01  0.51109989000E-03 0.  1.
</event>
<event>
 6   3  0.2312675E+03  0.9118800E+02  0.7818608E-02  0.1180000E+00
       11   -1    0    0    0    0  0.00000000000E+00  0.00000000000E+00  0.54999999763E+01  0.55000000000E+01  0.51109989000E-03 0. -1.
     -623   -1    0    0    0    0  0.00000000000E+00  0.00000000000E+00  0.93234578044E-11  0.17124000000E+03  0.17124000000E+03 0. -1.
       11    1    1    2    0    0 -0.10615043098E-01 -0.55460632195E-02  0.14451165630E+00  0.14500799284E+00  0.51109989000E-03 0. -1.
     -623    1    1    2    0    0  0.31853887568E-02 -0.81988723644E-02  0.22622731689E-02  0.17124000024E+03  0.17124000000E+03 0. -1.
     -611    1    1    2    0    0  0.55031362199E-01 -0.29408144002E-01  0.16007982365E+01  0.16020139029E+01  0.51109989000E-03 0. -1.
      611    1    1    2    0    0 -0.47601707858E-01  0.43153079586E-01  0.37524278103E+01  0.37529778635E+01  0.51109989000E-03 0.  1.
</event>
<event>
 6   3  0.2312675E+03  0.9118800E+02  0.7818608E-02  0.1180000E+00
       11   -1    0    0    0    0  0.00000000000E+00  0.00000000000E+00  0.54999999763E+01  0.55000000000E+01  0.51109989000E-03 0. -1.
     -623   -1    0    0    0    0  0.00000000000E+00  0.00000000000E+00  0.93234578044E-11  0.17124000000E+03  0.17124000000E+03 0.  1.
       11    1    1    2    0    0 -0.15228539868E-01 -0.35482657736E-01  0.24330861809E+00  0.24635395732E+00  0.51109989000E-03 0. -1.
     -623    1    1    2    0    0  0.13613688991E-02 -0.45665119922E-02  0.38242934031E-02  0.17124000011E+03  0.17124000000E+03 0.  1.
     -611    1    1    2    0    0  0.47471314073E-01  0.23180598603E-01  0.30062544162E+01  0.30067186004E+01  0.51109989000E-03 0. -1.
      611    1    1    2    0    0 -0.33604143104E-01  0.16868571125E-01  0.22466126486E+01  0.22469273333E+01  0.51109989000E-03 0.  1.
</event>
<event>
 6   3  0.2312675E+03  0.9118800E+02  0.7818608E-02  0.1180000E+00
       11   -1    0    0    0    0  0.00000000000E+00  0.00000000000E+00  0.54999999763E+01  0.55000000000E+01  0.51109989000E-03 0. -1.
     -623   -1    0    0    0    0  0.00000000000E+00  0.00000000000E+00  0.93234578044E-11  0.17124000000E+03  0.17124000000E+03 0.  1.
       11    1    1    2    0    0  0.70228920730E-03  0.94741650311E-03  0.13726776623E-02  0.18804986635E-02  0.51109989000E-03 0. -1.
     -623    1    1    2    0    0 -0.49442284497E-02  0.69697493930E-03  0.95535479624E-03  0.17124000008E+03  0.17124000000E+03 0.  1.
     -611    1    1    2    0    0 -0.30752511657E-01  0.11245908664E-01  0.27179354720E+01  0.27181327559E+01  0.51109989000E-03 0. -1.
      611    1    1    2    0    0  0.34994450899E-01 -0.12890300106E-01  0.27797364717E+01  0.27799866699E+01  0.51109989000E-03 0.  1.
</event>
<event>
 6   3  0.2312675E+03  0.9118800E+02  0.7818608E-02  0.1180000E+00
       11   -1    0    0    0    0  0.00000000000E+00  0.00000000000E+00  0.54999999763E+01  0.55000000000E+01  0.51109989000E-03 0.  1.
     -623   -1    0    0    0    0  0.00000000000E+00  0.00000000000E+00  0.93234578044E-11  0.17124000000E+03  0.17124000000E+03 0. -1.
       11    1    1    2    0    0  0.11073906261E-02 -0.50843553483E-04  0.74007344158E-03  0.14275261336E-02  0.51109989000E-03 0. -1.
     -623    1    1    2    0    0 -0.14737719381E-02  0.26761720705E-02  0.22952466381E-02  0.17124000004E+03  0.17124000000E+03 0. -1.
     -611    1    1    2    0    0  0.62828391329E-01  0.19867357214E-01  0.30145599914E+01  0.30152801398E+01  0.51109989000E-03 0.  1.
      611    1    1    2    0    0 -0.62462010017E-01 -0.22492685732E-01  0.24824046648E+01  0.24832922914E+01  0.51109989000E-03 0. -1.
</event>
<event>
 6   3  0.2312675E+03  0.9118800E+02  0.7818608E-02  0.1180000E+00
       11   -1    0    0    0    0  0.00000000000E+00  0.00000000000E+00  0.54999999763E+01  0.55000000000E+01  0.51109989000E-03 0.  1.
     -623   -1    0    0    0    0  0.00000000000E+00  0.00000000000E+00  0.93234578044E-11  0.17124000000E+03  0.17124000000E+03 0.  1.
       11    1    1    2    0    0  0.22120010104E-01  0.12144685560E-01  0.91450898196E+00  0.91485721702E+00  0.51109989000E-03 0.  1.
     -623    1    1    2    0    0 -0.10279508019E+00 -0.58251067870E-01  0.13308507724E-02  0.17124004077E+03  0.17124000000E+03 0.  1.
     -611    1    1    2    0    0  0.55701812386E-01  0.31815766811E-01  0.31847361382E+01  0.31853821539E+01  0.51109989000E-03 0.  1.
      611    1    1    2    0    0  0.24973257751E-01  0.14290615529E-01  0.13994240083E+01  0.13997198654E+01  0.51109989000E-03 0.  1.
</event>
<event>
 6   3  0.2312675E+03  0.9118800E+02  0.7818608E-02  0.1180000E+00
       11   -1    0    0    0    0  0.00000000000E+00  0.00000000000E+00  0.54999999763E+01  0.55000000000E+01  0.51109989000E-03 0.  1.
     -623   -1    0    0    0    0  0.00000000000E+00  0.00000000000E+00  0.93234578044E-11  0.17124000000E+03  0.17124000000E+03 0. -1.
       11    1    1    2    0    0  0.11818712267E-01 -0.19034661770E-01  0.40755893657E+00  0.40817465417E+00  0.51109989000E-03 0.  1.
     -623    1    1    2    0    0 -0.70403447781E-01  0.61909666100E-01  0.11602283951E-02  0.17124002567E+03  0.17124000000E+03 0. -1.
     -611    1    1    2    0    0  0.40969247296E-01 -0.27995384287E-01  0.34638863330E+01  0.34642417655E+01  0.51109989000E-03 0.  1.
      611    1    1    2    0    0  0.17615488220E-01 -0.14879620046E-01  0.16273944785E+01  0.16275579125E+01  0.51109989000E-03 0.  1.
</event>
<event>
 6   3  0.2312675E+03  0.9118800E+02  0.7818608E-02  0.1180000E+00
       11   -1    0    0    0    0  0.00000000000E+00  0.00000000000E+00  0.54999999763E+01  0.55000000000E+01  0.51109989000E-03 0. -1.
     -623   -1    0    0    0    0  0.00000000000E+00  0.00000000000E+00  0.93234578044E-11  0.17124000000E+03  0.17124000000E+03 0. -1.
       11    1    1    2    0    0 -0.70599572880E-04 -0.99269194743E-02  0.95792250553E+00  0.95797407926E+00  0.51109989000E-03 0. -1.
     -623    1    1    2    0    0 -0.60134121654E-01 -0.46362781314E-02  0.48925383727E-03  0.17124001062E+03  0.17124000000E+03 0. -1.
     -611    1    1    2    0    0  0.29265547573E-01  0.42147020177E-02  0.22781876806E+01  0.22783796007E+01  0.51109989000E-03 0.  1.
      611    1    1    2    0    0  0.30939173664E-01  0.10348495589E-01  0.22634005372E+01  0.22636356988E+01  0.51109989000E-03 0. -1.
</event>
<event>
 6   3  0.2312675E+03  0.9118800E+02  0.7818608E-02  0.1180000E+00
       11   -1    0    0    0    0  0.00000000000E+00  0.00000000000E+00  0.54999999763E+01  0.55000000000E+01  0.51109989000E-03 0.  1.
     -623   -1    0    0    0    0  0.00000000000E+00  0.00000000000E+00  0.93234578044E-11  0.17124000000E+03  0.17124000000E+03 0.  1.
       11    1    1    2    0    0  0.75403744791E-02 -0.39645167731E-02  0.26265948274E+00  0.26279809690E+00  0.51109989000E-03 0.  1.
     -623    1    1    2    0    0 -0.68629344372E-02  0.62714026087E-02  0.16688704585E-02  0.17124000026E+03  0.17124000000E+03 0.  1.
     -611    1    1    2    0    0  0.47194849259E-01  0.11476487977E-01  0.42452006892E+01  0.42454785615E+01  0.51109989000E-03 0.  1.
      611    1    1    2    0    0 -0.47872289301E-01 -0.13783373813E-01  0.99047093390E+00  0.99172308110E+00  0.51109989000E-03 0. -1.
</event>
<event>
 6   3  0.2312675E+03  0.9118800E+02  0.7818608E-02  0.1180000E+00
       11   -1    0    0    0    0  0.00000000000E+00  0.00000000000E+00  0.54999999763E+01  0.55000000000E+01  0.51109989000E-03 0.  1.
     -623   -1    0    0    0    0  0.00000000000E+00  0.00000000000E+00  0.93234578044E-11  0.17124000000E+03  0.17124000000E+03 0.  1.
       11    1    1    2    0    0 -0.10072741129E+00 -0.27718570610E-01  0.10863115420E+01  0.10913236725E+01  0.51109989000E-03 0.  1.
     -623    1    1    2    0    0 -0.49696312542E-02  0.10121289627E-01  0.63649108073E-02  0.17124000049E+03  0.17124000000E+03 0.  1.
     -611    1    1    2    0    0  0.94148316529E-01  0.92924891568E-02  0.37017896644E+01  0.37029984116E+01  0.51109989000E-03 0.  1.
      611    1    1    2    0    0  0.11548726012E-01  0.83047918264E-02  0.70553385899E+00  0.70567742634E+00  0.51109989000E-03 0. -1.
</event>
<event>
 6   3  0.4370048E+03  0.9118800E+02  0.7818608E-02  0.1180000E+00
       11   -1    0    0    0    0  0.00000000000E+00  0.00000000000E+00  0.54999999763E+01  0.55000000000E+01  0.51109989000E-03 0.  1.
     -623   -1    0    0    0    0  0.00000000000E+00  0.00000000000E+00  0.93234578044E-11  0.17124000000E+03  0.17124000000E+03 0. -1.
       11    1    1    2    0    0  0.62957138905E-02  0.53866488461E-02  0.78706333782E-03  0.83386264443E-02  0.51109989000E-03 0.  1.
     -623    1    1    2    0    0 -0.60810570313E-02 -0.18280278550E-04  0.11331273827E-01  0.17124000048E+03  0.17124000000E+03 0. -1.
     -611    1    1    2    0    0 -0.51009950005E-01 -0.40208518987E-01  0.62067051674E+00  0.62406000639E+00  0.51109989000E-03 0. -1.
      611    1    1    2    0    0  0.50795293146E-01  0.34840150420E-01  0.48672111224E+01  0.48676008843E+01  0.51109989000E-03 0.  1.
</event>
<event>
 6   3  0.2312675E+03  0.9118800E+02  0.7818608E-02  0.1180000E+00
       11   -1    0    0    0    0  0.00000000000E+00  0.00000000000E+00  0.54999999763E+01  0.55000000000E+01  0.51109989000E-03 0.  1.
     -623   -1    0    0    0    0  0.00000000000E+00  0.00000000000E+00  0.93234578044E-11  0.17124000000E+03  0.17124000000E+03 0.  1.
       11    1    1    2    0    0  0.26887140862E-01 -0.20689422822E-01  0.48537685220E+00  0.48656132238E+00  0.51109989000E-03 0.  1.
     -623    1    1    2    0    0 -0.39421008927E-01 -0.14459110023E-01  0.16961219342E-02  0.17124000516E+03  0.17124000000E+03 0.  1.
     -611    1    1    2    0    0  0.35402138660E-01  0.95638067769E-02  0.28069141250E+01  0.28071537087E+01  0.51109989000E-03 0.  1.
      611    1    1    2    0    0 -0.22868270597E-01  0.25584726067E-01  0.22060128770E+01  0.22062798124E+01  0.51109989000E-03 0. -1.
</event>
<event>
 6   3  0.2312675E+03  0.9118800E+02  0.7818608E-02  0.1180000E+00
       11   -1    0    0    0    0  0.00000000000E+00  0.00000000000E+00  0.54999999763E+01  0.55000000000E+01  0.51109989000E-03 0. -1.
     -623   -1    0    0    0    0  0.00000000000E+00  0.00000000000E+00  0.93234578044E-11  0.17124000000E+03  0.17124000000E+03 0.  1.
       11    1    1    2    0    0  0.15263352937E-01  0.95445655776E-02  0.43785208016E+00  0.43822228834E+00  0.51109989000E-03 0. -1.
     -623    1    1    2    0    0  0.14440895044E-01 -0.99059121593E-02  0.28900988788E-02  0.17124000092E+03  0.17124000000E+03 0.  1.
     -611    1    1    2    0    0 -0.72272217801E-01  0.41152609708E-01  0.17310399186E+01  0.17330367197E+01  0.51109989000E-03 0.  1.
      611    1    1    2    0    0  0.42567969820E-01 -0.40791263126E-01  0.33282178786E+01  0.33287400722E+01  0.51109989000E-03 0. -1.
</event>
<event>
 6   3  0.2312675E+03  0.9118800E+02  0.7818608E-02  0.1180000E+00
       11   -1    0    0    0    0  0.00000000000E+00  0.00000000000E+00  0.54999999763E+01  0.55000000000E+01  0.51109989000E-03 0.  1.
     -623   -1    0    0    0    0  0.00000000000E+00  0.00000000000E+00  0.93234578044E-11  0.17124000000E+03  0.17124000000E+03 0. -1.
       11    1    1    2    0    0  0.32706022497E-02  0.20524982745E-02  0.23337404120E+00  0.23340654214E+00  0.51109989000E-03 0.  1.
     -623    1    1    2    0    0 -0.64529283774E-01 -0.69275186429E-02  0.40367821278E-03  0.17124001230E+03  0.17124000000E+03 0. -1.
     -611    1    1    2    0    0  0.45260026761E-01  0.31268918318E-02  0.39299696805E+01  0.39302315706E+01  0.51109989000E-03 0.  1.
      611    1    1    2    0    0  0.15998655004E-01  0.17481285620E-02  0.13362525969E+01  0.13363496088E+01  0.51109989000E-03 0.  1.
</event>
<event>
 6   3  0.2312675E+03  0.9118800E+02  0.7818608E-02  0.1180000E+00
       11   -1    0    0    0    0  0.00000000000E+00  0.00000000000E+00  0.54999999763E+01  0.55000000000E+01  0.51109989000E-03 0. -1.
     -623   -1    0    0    0    0  0.00000000000E+00  0.00000000000E+00  0.93234578044E-11  0.17124000000E+03  0.17124000000E+03 0. -1.
       11    1    1    2    0    0 -0.50157905207E-03 -0.16668025691E-02  0.28062772269E-01  0.28121348169E-01  0.51109989000E-03 0. -1.
     -623    1    1    2    0    0  0.63195660751E-03  0.19424999860E-02  0.46441282308E-03  0.17124000001E+03  0.17124000000E+03 0. -1.
     -611    1    1    2    0    0  0.33127554457E-01  0.17601347113E-02  0.29076537675E+01  0.29078430539E+01  0.51109989000E-03 0. -1.
      611    1    1    2    0    0 -0.33257932013E-01 -0.20358321282E-02  0.25638190237E+01  0.25640355852E+01  0.51109989000E-03 0.  1.
</event>
<event>
 6   3  0.2312675E+03  0.9118800E+02  0.7818608E-02  0.1180000E+00
       11   -1    0    0    0    0  0.00000000000E+00  0.00000000000E+00  0.54999999763E+01  0.55000000000E+01  0.51109989000E-03 0. -1.
     -623   -1    0    0    0    0  0.00000000000E+00  0.00000000000E+00  0.93234578044E-11  0.17124000000E+03  0.17124000000E+03 0.  1.
       11    1    1    2    0    0  0.29132240060E-03 -0.65382694808E-02  0.27622229629E-01  0.28391594343E-01  0.51109989000E-03 0. -1.
     -623    1    1    2    0    0  0.65571238972E-02  0.37223349918E-02  0.32839100178E-02  0.17124000020E+03  0.17124000000E+03 0.  1.
     -611    1    1    2    0    0 -0.75422388856E-01  0.22752012251E-01  0.40039121175E+01  0.40046870909E+01  0.51109989000E-03 0. -1.
      611    1    1    2    0    0  0.68573942558E-01 -0.19936077762E-01  0.14651817191E+01  0.14669211172E+01  0.51109989000E-03 0.  1.
</event>
<event>
 6   3  0.2312675E+03  0.9118800E+02  0.7818608E-02  0.1180000E+00
       11   -1    0    0    0    0  0.00000000000E+00  0.00000000000E+00  0.54999999763E+01  0.55000000000E+01  0.51109989000E-03 0. -1.
     -623   -1    0    0    0    0  0.00000000000E+00  0.00000000000E+00  0.93234578044E-11  0.17124000000E+03  0.17124000000E+03 0.  1.
       11    1    1    2    0    0 -0.50027119882E-01 -0.22116828864E-01  0.51412152138E+00  0.51702327492E+00  0.51109989000E-03 0. -1.
     -623    1    1    2    0    0 -0.73849075013E-02  0.54034920972E-01  0.33439956295E-02  0.17124000872E+03  0.17124000000E+03 0.  1.
     -611    1    1    2    0    0  0.29292021297E-01 -0.16877596733E-01  0.26347931258E+01  0.26350100479E+01  0.51109989000E-03 0.  1.
      611    1    1    2    0    0  0.28120006070E-01 -0.15040495366E-01  0.23477413320E+01  0.23479579585E+01  0.51109989000E-03 0.  1.
</event>
<event>
 6   3  0.2312675E+03  0.9118800E+02  0.7818608E-02  0.1180000E+00
       11   -1    0    0    0    0  0.00000000000E+00  0.00000000000E+00  0.54999999763E+01  0.55000000000E+01  0.51109989000E-03 0. -1.
     -623   -1    0    0    0    0  0.00000000000E+00  0.00000000000E+00  0.93234578044E-11  0.17124000000E+03  0.17124000000E+03 0.  1.
       11    1    1    2    0    0 -0.41197865956E-02 -0.59136327667E-02  0.42337739057E-01  0.42949843605E-01  0.51109989000E-03 0. -1.
     -623    1    1    2    0    0  0.36145536897E-01  0.26645441924E-03  0.12133752401E-02  0.17124000382E+03  0.17124000000E+03 0.  1.
     -611    1    1    2    0    0  0.24211670243E-01  0.17247288502E-02  0.17665146406E+01  0.17666814699E+01  0.51109989000E-03 0.  1.
      611    1    1    2    0    0 -0.56237420547E-01  0.39224494972E-02  0.36899342216E+01  0.36903648674E+01  0.51109989000E-03 0. -1.
</event>
<event>
 6   3  0.2312675E+03  0.9118800E+02  0.7818608E-02  0.1180000E+00
       11   -1    0    0    0    0  0.00000000000E+00  0.00000000000E+00  0.54999999763E+01  0.55000000000E+01  0.51109989000E-03 0. -1.
     -623   -1    0    0    0    0  0.00000000000E+00  0.00000000000E+00  0.93234578044E-11  0.17124000000E+03  0.17124000000E+03 0. -1.
       11    1    1    2    0    0  0.90736151446E-02 -0.48031827704E-02  0.35434157350E+00  0.35449063879E+00  0.51109989000E-03 0. -1.
     -623    1    1    2    0    0 -0.15369074988E-03  0.25363528830E-02  0.62356687031E-03  0.17124000002E+03  0.17124000000E+03 0. -1.
     -611    1    1    2    0    0 -0.38610952952E-01 -0.50943371970E-02  0.31283398265E+01  0.31285822811E+01  0.51109989000E-03 0. -1.
      611    1    1    2    0    0  0.29691028557E-01  0.73611670843E-02  0.20166950094E+01  0.20169270602E+01  0.51109989000E-03 0.  1.
</event>
<event>
 6   3  0.2312675E+03  0.9118800E+02  0.7818608E-02  0.1180000E+00
       11   -1    0    0    0    0  0.00000000000E+00  0.00000000000E+00  0.54999999763E+01  0.55000000000E+01  0.51109989000E-03 0.  1.
     -623   -1    0    0    0    0  0.00000000000E+00  0.00000000000E+00  0.93234578044E-11  0.17124000000E+03  0.17124000000E+03 0. -1.
       11    1    1    2    0    0  0.14079857849E-02  0.25589910763E-01  0.75937436857E+00  0.75980689574E+00  0.51109989000E-03 0.  1.
     -623    1    1    2    0    0  0.66191801262E-01 -0.20745472393E-01  0.94641977221E-03  0.17124001405E+03  0.17124000000E+03 0. -1.
     -611    1    1    2    0    0 -0.47953722721E-01 -0.42009733368E-02  0.37081344400E+01  0.37084469113E+01  0.51109989000E-03 0.  1.
      611    1    1    2    0    0 -0.19646064329E-01 -0.64346503193E-03  0.10315447482E+01  0.10317321409E+01  0.51109989000E-03 0. -1.
</event>
<event>
 6   3  0.2312675E+03  0.9118800E+02  0.7818608E-02  0.1180000E+00
       11   -1    0    0    0    0  0.00000000000E+00  0.00000000000E+00  0.54999999763E+01  0.55000000000E+01  0.51109989000E-03 0. -1.
     -623   -1    0    0    0    0  0.00000000000E+00  0.00000000000E+00  0.93234578044E-11  0.17124000000E+03  0.17124000000E+03 0.  1.
       11    1    1    2    0    0  0.13648590453E-01  0.33168616506E-01  0.35004177395E-01  0.50119804474E-01  0.51109989000E-03 0. -1.
     -623    1    1    2    0    0 -0.20334007593E-01  0.23968143743E-02  0.16191746457E-01  0.17124000199E+03  0.17124000000E+03 0.  1.
     -611    1    1    2    0    0 -0.39133680832E-01 -0.22920293582E-02  0.35843098226E+01  0.35845242173E+01  0.51109989000E-03 0. -1.
      611    1    1    2    0    0  0.45819097971E-01 -0.33273401522E-01  0.18644942298E+01  0.18653539887E+01  0.51109989000E-03 0.  1.
</event>
<event>
 6   3  0.2312675E+03  0.9118800E+02  0.7818608E-02  0.1180000E+00
       11   -1    0    0    0    0  0.00000000000E+00  0.00000000000E+00  0.54999999763E+01  0.55000000000E+01  0.51109989000E-03 0. -1.
     -623   -1    0    0    0    0  0.00000000000E+00  0.00000000000E+00  0.93234578044E-11  0.17124000000E+03  0.17124000000E+03 0.  1.
       11    1    1    2    0    0  0.61885858712E-01  0.32189092340E-01  0.96884395573E+00  0.97135208290E+00  0.51109989000E-03 0. -1.
     -623    1    1    2    0    0  0.16450120703E-02 -0.30263543695E-01  0.29573307407E-02  0.17124000271E+03  0.17124000000E+03 0.  1.
     -611    1    1    2    0    0 -0.17530117314E-01 -0.16651495198E-04  0.12889841185E+01  0.12891034188E+01  0.51109989000E-03 0. -1.
      611    1    1    2    0    0 -0.46000753522E-01 -0.19088971513E-02  0.32392145752E+01  0.32395417945E+01  0.51109989000E-03 0. -1.
</event>
<event>
 6   3  0.2312675E+03  0.9118800E+02  0.7818608E-02  0.1180000E+00
       11   -1    0    0    0    0  0.00000000000E+00  0.00000000000E+00  0.54999999763E+01  0.55000000000E+01  0.51109989000E-03 0.  1.
     -623   -1    0    0    0    0  0.00000000000E+00  0.00000000000E+00  0.93234578044E-11  0.17124000000E+03  0.17124000000E+03 0. -1.
       11    1    1    2    0    0 -0.49410341756E-02 -0.12256709073E-02  0.14570979028E+00  0.14579958948E+00  0.51109989000E-03 0.  1.
     -623    1    1    2    0    0  0.18419028066E-02 -0.59007673783E-03  0.92442916946E-03  0.17124000001E+03  0.17124000000E+03 0. -1.
     -611    1    1    2    0    0 -0.40395491194E-01 -0.10298185743E-01  0.36436609582E+01  0.36438994618E+01  0.51109989000E-03 0.  1.
      611    1    1    2    0    0  0.43494622563E-01  0.12113933388E-01  0.17097047986E+01  0.17103009352E+01  0.51109989000E-03 0. -1.
</event>
<event>
 6   3  0.2312675E+03  0.9118800E+02  0.7818608E-02  0.1180000E+00
       11   -1    0    0    0    0  0.00000000000E+00  0.00000000000E+00  0.54999999763E+01  0.55000000000E+01  0.51109989000E-03 0. -1.
     -623   -1    0    0    0    0  0.00000000000E+00  0.00000000000E+00  0.93234578044E-11  0.17124000000E+03  0.17124000000E+03 0. -1.
       11    1    1    2    0    0  0.22634618242E-02 -0.96815035812E-03  0.17363382328E+00  0.17365202672E+00  0.51109989000E-03 0.  1.
     -623    1    1    2    0    0 -0.60467495789E-01  0.45468751418E-01  0.53909287602E-03  0.17124001671E+03  0.17124000000E+03 0. -1.
     -611    1    1    2    0    0  0.18042641205E-01 -0.14520093030E-01  0.16916121028E+01  0.16917707107E+01  0.51109989000E-03 0.  1.
      611    1    1    2    0    0  0.40161392742E-01 -0.29980508015E-01  0.36342149555E+01  0.36345605474E+01  0.51109989000E-03 0. -1.
</event>
<event>
 6   3  0.2312675E+03  0.9118800E+02  0.7818608E-02  0.1180000E+00
       11   -1    0    0    0    0  0.00000000000E+00  0.00000000000E+00  0.54999999763E+01  0.55000000000E+01  0.51109989000E-03 0.  1.
     -623   -1    0    0    0    0  0.00000000000E+00  0.00000000000E+00  0.93234578044E-11  0.17124000000E+03  0.17124000000E+03 0. -1.
       11    1    1    2    0    0  0.13634680913E+00 -0.34195297172E-01  0.56715544412E+00  0.58431612140E+00  0.51109989000E-03 0.  1.
     -623    1    1    2    0    0 -0.84156203948E-02 -0.40383997948E-01  0.19397825757E-01  0.17124000607E+03  0.17124000000E+03 0. -1.
     -611    1    1    2    0    0 -0.90693232371E-01  0.52746365718E-01  0.34786834655E+01  0.34802652709E+01  0.51109989000E-03 0.  1.
      611    1    1    2    0    0 -0.37237956268E-01  0.21832929344E-01  0.14347632370E+01  0.14354125364E+01  0.51109989000E-03 0.  1.
</event>
<event>
 6   3  0.2312675E+03  0.9118800E+02  0.7818608E-02  0.1180000E+00
       11   -1    0    0    0    0  0.00000000000E+00  0.00000000000E+00  0.54999999763E+01  0.55000000000E+01  0.51109989000E-03 0. -1.
     -623   -1    0    0    0    0  0.00000000000E+00  0.00000000000E+00  0.93234578044E-11  0.17124000000E+03  0.17124000000E+03 0. -1.
       11    1    1    2    0    0  0.16050352391E-01 -0.42603164897E-02  0.10851712975E-01  0.19844016883E-01  0.51109989000E-03 0. -1.
     -623    1    1    2    0    0 -0.23069873514E-01 -0.15804158527E-02  0.13790352898E-01  0.17124000212E+03  0.17124000000E+03 0. -1.
     -611    1    1    2    0    0  0.62444805584E-01  0.27886920632E-01  0.52490998078E+00  0.52934656250E+00  0.51109989000E-03 0.  1.
      611    1    1    2    0    0 -0.55425284460E-01 -0.22046188290E-01  0.49504479296E+01  0.49508073040E+01  0.51109989000E-03 0. -1.
</event>
<event>
 6   3  0.2312675E+03  0.9118800E+02  0.7818608E-02  0.1180000E+00
       11   -1    0    0    0    0  0.00000000000E+00  0.00000000000E+00  0.54999999763E+01  0.55000000000E+01  0.51109989000E-03 0.  1.
     -623   -1    0    0    0    0  0.00000000000E+00  0.00000000000E+00  0.93234578044E-11  0.17124000000E+03  0.17124000000E+03 0.  1.
       11    1    1    2    0    0 -0.17109573684E-01  0.13902317876E-02  0.89248461676E+00  0.89264983203E+00  0.51109989000E-03 0.  1.
     -623    1    1    2    0    0  0.10251027813E+00 -0.18132328181E-01  0.10220313793E-02  0.17124003165E+03  0.17124000000E+03 0.  1.
     -611    1    1    2    0    0 -0.49138569268E-01  0.77496702459E-02  0.27299431461E+01  0.27303963995E+01  0.51109989000E-03 0.  1.
      611    1    1    2    0    0 -0.36262135241E-01  0.89924261592E-02  0.18765501856E+01  0.18769221259E+01  0.51109989000E-03 0. -1.
</event>
<event>
 6   3  0.2312675E+03  0.9118800E+02  0.7818608E-02  0.1180000E+00
       11   -1    0    0    0    0  0.00000000000E+00  0.00000000000E+00  0.54999999763E+01  0.55000000000E+01  0.51109989000E-03 0. -1.
     -623   -1    0    0    0    0  0.00000000000E+00  0.00000000000E+00  0.93234578044E-11  0.17124000000E+03  0.17124000000E+03 0. -1.
       11    1    1    2    0    0  0.31627255629E-02  0.42741491931E-01  0.76599908617E-01  0.87776108302E-01  0.51109989000E-03 0. -1.
     -623    1    1    2    0    0  0.13551901971E-01 -0.38798031176E-01  0.15781618979E-01  0.17124000566E+03  0.17124000000E+03 0. -1.
     -611    1    1    2    0    0  0.80071585264E-01  0.44094272576E-01  0.13148728437E+01  0.13180465166E+01  0.51109989000E-03 0.  1.
      611    1    1    2    0    0 -0.96786212798E-01 -0.48037733331E-01  0.40927456049E+01  0.40941717163E+01  0.51109989000E-03 0. -1.
</event>
<event>
 6   3  0.2312675E+03  0.9118800E+02  0.7818608E-02  0.1180000E+00
       11   -1    0    0    0    0  0.00000000000E+00  0.00000000000E+00  0.54999999763E+01  0.55000000000E+01  0.51109989000E-03 0.  1.
     -623   -1    0    0    0    0  0.00000000000E+00  0.00000000000E+00  0.93234578044E-11  0.17124000000E+03  0.17124000000E+03 0.  1.
       11    1    1    2    0    0  0.68905376443E-02 -0.19892876782E-02  0.17750657206E-01  0.19151601208E-01  0.51109989000E-03 0.  1.
     -623    1    1    2    0    0 -0.45263250266E-02 -0.14815782920E-02  0.21378010457E-02  0.17124000008E+03  0.17124000000E+03 0.  1.
     -611    1    1    2    0    0 -0.45724037551E-01  0.21239513271E-03  0.31379254471E+01  0.31382586104E+01  0.51109989000E-03 0.  1.
      611    1    1    2    0    0  0.43359824933E-01  0.32584708375E-02  0.23421860708E+01  0.23425897088E+01  0.51109989000E-03 0. -1.
</event>
<event>
 6   3  0.2312675E+03  0.9118800E+02  0.7818608E-02  0.1180000E+00
       11   -1    0    0    0    0  0.00000000000E+00  0.00000000000E+00  0.54999999763E+01  0.55000000000E+01  0.51109989000E-03 0.  1.
     -623   -1    0    0    0    0  0.00000000000E+00  0.00000000000E+00  0.93234578044E-11  0.17124000000E+03  0.17124000000E+03 0.  1.
       11    1    1    2    0    0 -0.57746195096E-02  0.27406826240E-02  0.43589142706E-03  0.64271919343E-02  0.51109989000E-03 0.  1.
     -623    1    1    2    0    0  0.19957424799E-02 -0.80589217090E-02  0.15106427575E-01  0.17124000087E+03  0.17124000000E+03 0.  1.
     -611    1    1    2    0    0  0.55004151528E-01 -0.11427259650E+00  0.43213515459E+01  0.43232121308E+01  0.51109989000E-03 0.  1.
      611    1    1    2    0    0 -0.51225274498E-01  0.11959083559E+00  0.11631061113E+01  0.11703598097E+01  0.51109989000E-03 0. -1.
</event>
<event>
 6   3  0.2312675E+03  0.9118800E+02  0.7818608E-02  0.1180000E+00
       11   -1    0    0    0    0  0.00000000000E+00  0.00000000000E+00  0.54999999763E+01  0.55000000000E+01  0.51109989000E-03 0. -1.
     -623   -1    0    0    0    0  0.00000000000E+00  0.00000000000E+00  0.93234578044E-11  0.17124000000E+03  0.17124000000E+03 0. -1.
       11    1    1    2    0    0 -0.51592944882E-01 -0.11198141024E+00  0.45247040160E+00  0.46896843577E+00  0.51109989000E-03 0. -1.
     -623    1    1    2    0    0 -0.11865324902E-01  0.12889729714E+00  0.16984245457E-01  0.17124004977E+03  0.17124000000E+03 0. -1.
     -611    1    1    2    0    0  0.36181283119E-01 -0.55881101039E-02  0.29305025015E+01  0.29307312201E+01  0.51109989000E-03 0.  1.
      611    1    1    2    0    0  0.27276986665E-01 -0.11327776791E-01  0.21000428276E+01  0.21002505783E+01  0.51109989000E-03 0. -1.
</event>
<event>
 6   3  0.2312675E+03  0.9118800E+02  0.7818608E-02  0.1180000E+00
       11   -1    0    0    0    0  0.00000000000E+00  0.00000000000E+00  0.54999999763E+01  0.55000000000E+01  0.51109989000E-03 0. -1.
     -623   -1    0    0    0    0  0.00000000000E+00  0.00000000000E+00  0.93234578044E-11  0.17124000000E+03  0.17124000000E+03 0. -1.
       11    1    1    2    0    0  0.10417574162E-01  0.34479384329E-01  0.60938705095E+00  0.61045081120E+00  0.51109989000E-03 0. -1.
     -623    1    1    2    0    0  0.73405154404E-02  0.62857501742E-02  0.23646693535E-02  0.17124000029E+03  0.17124000000E+03 0. -1.
     -611    1    1    2    0    0 -0.51143952019E-01  0.69466117425E-02  0.28562407469E+01  0.28567070947E+01  0.51109989000E-03 0.  1.
      611    1    1    2    0    0  0.33385862417E-01 -0.47711746245E-01  0.20320075090E+01  0.20328418050E+01  0.51109989000E-03 0. -1.
</event>
<event>
 6   3  0.2312675E+03  0.9118800E+02  0.7818608E-02  0.1180000E+00
       11   -1    0    0    0    0  0.00000000000E+00  0.00000000000E+00  0.54999999763E+01  0.55000000000E+01  0.51109989000E-03 0. -1.
     -623   -1    0    0    0    0  0.00000000000E+00  0.00000000000E+00  0.93234578044E-11  0.17124000000E+03  0.17124000000E+03 0.  1.
       11    1    1    2    0    0 -0.41891733629E-01 -0.16873583689E-01  0.10055766795E+01  0.10065904603E+01  0.51109989000E-03 0. -1.
     -623    1    1    2    0    0 -0.16176709941E-01  0.23488380835E-01  0.13966724796E-02  0.17124000238E+03  0.17124000000E+03 0.  1.
     -611    1    1    2    0    0  0.23351373424E-01 -0.24561793273E-02  0.18673608069E+01  0.18675084910E+01  0.51109989000E-03 0.  1.
      611    1    1    2    0    0  0.34717070095E-01 -0.41586178127E-02  0.26256658133E+01  0.26258986640E+01  0.51109989000E-03 0. -1.
</event>
<event>
 6   3  0.2312675E+03  0.9118800E+02  0.7818608E-02  0.1180000E+00
       11   -1    0    0    0    0  0.00000000000E+00  0.00000000000E+00  0.54999999763E+01  0.55000000000E+01  0.51109989000E-03 0.  1.
     -623   -1    0    0    0    0  0.00000000000E+00  0.00000000000E+00  0.93234578044E-11  0.17124000000E+03  0.17124000000E+03 0.  1.
       11    1    1    2    0    0 -0.26813013716E-01 -0.22182786840E-01  0.29496336098E+00  0.29700952725E+00  0.51109989000E-03 0.  1.
     -623    1    1    2    0    0 -0.95216445922E-04  0.24876548563E-01  0.36533723936E-02  0.17124000185E+03  0.17124000000E+03 0.  1.
     -611    1    1    2    0    0 -0.36418232104E-01  0.37585461916E-01  0.25818875289E+01  0.25824179421E+01  0.51109989000E-03 0.  1.
      611    1    1    2    0    0  0.63326462266E-01 -0.40279223639E-01  0.26194957140E+01  0.26205706847E+01  0.51109989000E-03 0. -1.
</event>
<event>
 6   3  0.2312675E+03  0.9118800E+02  0.7818608E-02  0.1180000E+00
       11   -1    0    0    0    0  0.00000000000E+00  0.00000000000E+00  0.54999999763E+01  0.55000000000E+01  0.51109989000E-03 0.  1.
     -623   -1    0    0    0    0  0.00000000000E+00  0.00000000000E+00  0.93234578044E-11  0.17124000000E+03  0.17124000000E+03 0. -1.
       11    1    1    2    0    0 -0.26190239974E-01 -0.97634899764E-02  0.44793700182E+00  0.44880850396E+00  0.51109989000E-03 0.  1.
     -623    1    1    2    0    0 -0.28447309514E-01  0.85744447006E-03  0.11788918737E-02  0.17124000237E+03  0.17124000000E+03 0. -1.
     -611    1    1    2    0    0  0.32667919583E-01  0.64632857121E-02  0.28884196016E+01  0.28886116082E+01  0.51109989000E-03 0.  1.
      611    1    1    2    0    0  0.21969629905E-01  0.24427597943E-02  0.21624644809E+01  0.21625775186E+01  0.51109989000E-03 0. -1.
</event>
<event>
 6   3  0.2312675E+03  0.9118800E+02  0.7818608E-02  0.1180000E+00
       11   -1    0    0    0    0  0.00000000000E+00  0.00000000000E+00  0.54999999763E+01  0.55000000000E+01  0.51109989000E-03 0.  1.
     -623   -1    0    0    0    0  0.00000000000E+00  0.00000000000E+00  0.93234578044E-11  0.17124000000E+03  0.17124000000E+03 0. -1.
       11    1    1    2    0    0 -0.93296810767E-02  0.15902993717E-02  0.14242166278E+00  0.14273669204E+00  0.51109989000E-03 0.  1.
     -623    1    1    2    0    0  0.25296881670E-02  0.19079415132E-02  0.77122413915E-03  0.17124000003E+03  0.17124000000E+03 0. -1.
     -611    1    1    2    0    0  0.35700345821E-01  0.10739431789E-01  0.31588235035E+01  0.31590435321E+01  0.51109989000E-03 0.  1.
      611    1    1    2    0    0 -0.28900352912E-01 -0.14237672674E-01  0.21979835857E+01  0.21982197447E+01  0.51109989000E-03 0. -1.
</event>
<event>
 6   3  0.2312675E+03  0.9118800E+02  0.7818608E-02  0.1180000E+00
       11   -1    0    0    0    0  0.00000000000E+00  0.00000000000E+00  0.54999999763E+01  0.55000000000E+01  0.51109989000E-03 0.  1.
     -623   -1    0    0    0    0  0.00000000000E+00  0.00000000000E+00  0.93234578044E-11  0.17124000000E+03  0.17124000000E+03 0. -1.
       11    1    1    2    0    0 -0.15228403977E-01  0.14586448405E-02  0.19693513281E-01  0.24942486261E-01  0.51109989000E-03 0.  1.
     -623    1    1    2    0    0  0.12038722512E-01  0.17677200369E-01  0.71800522748E-02  0.17124000149E+03  0.17124000000E+03 0. -1.
     -611    1    1    2    0    0  0.65604699124E-01 -0.32935172409E-01  0.20108058568E+01  0.20121454115E+01  0.51109989000E-03 0. -1.
      611    1    1    2    0    0 -0.62415017659E-01  0.13799327199E-01  0.34623205539E+01  0.34629106161E+01  0.51109989000E-03 0.  1.
</event>
<event>
 6   3  0.2312675E+03  0.9118800E+02  0.7818608E-02  0.1180000E+00
       11   -1    0    0    0    0  0.00000000000E+00  0.00000000000E+00  0.54999999763E+01  0.55000000000E+01  0.51109989000E-03 0. -1.
     -623   -1    0    0    0    0  0.00000000000E+00  0.00000000000E+00  0.93234578044E-11  0.17124000000E+03  0.17124000000E+03 0.  1.
       11    1    1    2    0    0 -0.37530620666E-02 -0.71101368343E-02  0.60035639939E-01  0.60573746844E-01  0.51109989000E-03 0. -1.
     -623    1    1    2    0    0 -0.28409681495E-02  0.21714762529E-02  0.23163304908E-02  0.17124000005E+03  0.17124000000E+03 0.  1.
     -611    1    1    2    0    0 -0.46289947897E-01  0.43599936632E-01  0.36951474176E+01  0.36956945778E+01  0.51109989000E-03 0. -1.
      611    1    1    2    0    0  0.52883978113E-01 -0.38661276050E-01  0.17425005882E+01  0.17437316223E+01  0.51109989000E-03 0.  1.
</event>
<event>
 6   3  0.2312675E+03  0.9118800E+02  0.7818608E-02  0.1180000E+00
       11   -1    0    0    0    0  0.00000000000E+00  0.00000000000E+00  0.54999999763E+01  0.55000000000E+01  0.51109989000E-03 0.  1.
     -623   -1    0    0    0    0  0.00000000000E+00  0.00000000000E+00  0.93234578044E-11  0.17124000000E+03  0.17124000000E+03 0.  1.
       11    1    1    2    0    0  0.51540806875E-01 -0.33286709377E-01  0.14924651800E+00  0.16136680004E+00  0.51109989000E-03 0.  1.
     -623    1    1    2    0    0  0.10910138171E-01 -0.31511437934E-01  0.12882788228E-01  0.17124000373E+03  0.17124000000E+03 0.  1.
     -611    1    1    2    0    0 -0.42819418388E-01  0.44015674084E-01  0.36667790769E+01  0.36672932719E+01  0.51109989000E-03 0.  1.
      611    1    1    2    0    0 -0.19631526592E-01  0.20782473160E-01  0.16710915876E+01  0.16713361910E+01  0.51109989000E-03 0.  1.
</event>
<event>
 6   3  0.2312675E+03  0.9118800E+02  0.7818608E-02  0.1180000E+00
       11   -1    0    0    0    0  0.00000000000E+00  0.00000000000E+00  0.54999999763E+01  0.55000000000E+01  0.51109989000E-03 0.  1.
     -623   -1    0    0    0    0  0.00000000000E+00  0.00000000000E+00  0.93234578044E-11  0.17124000000E+03  0.17124000000E+03 0. -1.
       11    1    1    2    0    0 -0.40901736790E-04  0.21017261100E-02  0.14891774626E+00  0.14893345930E+00  0.51109989000E-03 0.  1.
     -623    1    1    2    0    0 -0.35891921570E-02 -0.71724048268E-02  0.88447694525E-03  0.17124000019E+03  0.17124000000E+03 0. -1.
     -611    1    1    2    0    0 -0.34486267136E-01  0.34047475909E-01  0.27885270361E+01  0.27889481575E+01  0.51109989000E-03 0. -1.
      611    1    1    2    0    0  0.38116361030E-01 -0.28976797192E-01  0.25616707170E+01  0.25621181931E+01  0.51109989000E-03 0.  1.
</event>
<event>
 6   3  0.2312675E+03  0.9118800E+02  0.7818608E-02  0.1180000E+00
       11   -1    0    0    0    0  0.00000000000E+00  0.00000000000E+00  0.54999999763E+01  0.55000000000E+01  0.51109989000E-03 0.  1.
     -623   -1    0    0    0    0  0.00000000000E+00  0.00000000000E+00  0.93234578044E-11  0.17124000000E+03  0.17124000000E+03 0. -1.
       11    1    1    2    0    0 -0.62490101645E-01  0.42229479721E-01  0.71800983080E+00  0.72196033139E+00  0.51109989000E-03 0.  1.
     -623    1    1    2    0    0  0.11848795167E-02 -0.34896425289E-01  0.44480435030E-02  0.17124000362E+03  0.17124000000E+03 0. -1.
     -611    1    1    2    0    0  0.43902213757E-01 -0.19621866781E-02  0.41410803484E+01  0.41413135558E+01  0.51109989000E-03 0.  1.
      611    1    1    2    0    0  0.17403008371E-01 -0.53708677537E-02  0.63646175357E+00  0.63672249521E+00  0.51109989000E-03 0. -1.
</event>
<event>
 6   3  0.2312675E+03  0.9118800E+02  0.7818608E-02  0.1180000E+00
       11   -1    0    0    0    0  0.00000000000E+00  0.00000000000E+00  0.54999999763E+01  0.55000000000E+01  0.51109989000E-03 0.  1.
     -623   -1    0    0    0    0  0.00000000000E+00  0.00000000000E+00  0.93234578044E-11  0.17124000000E+03  0.17124000000E+03 0. -1.
       11    1    1    2    0    0  0.85809209478E-02 -0.49808415907E-01  0.48318572034E+00  0.48582220211E+00  0.51109989000E-03 0.  1.
     -623    1    1    2    0    0 -0.12989904095E-02  0.29884298561E-01  0.40863749780E-02  0.17124000266E+03  0.17124000000E+03 0. -1.
     -611    1    1    2    0    0 -0.51511133005E-01  0.21167338239E-01  0.13105591866E+01  0.13117420081E+01  0.51109989000E-03 0.  1.
      611    1    1    2    0    0  0.44229202466E-01 -0.12432208936E-02  0.37021686944E+01  0.37024331285E+01  0.51109989000E-03 0. -1.
</event>
<event>
 6   3  0.2312675E+03  0.9118800E+02  0.7818608E-02  0.1180000E+00
       11   -1    0    0    0    0  0.00000000000E+00  0.00000000000E+00  0.54999999763E+01  0.55000000000E+01  0.51109989000E-03 0.  1.
     -623   -1    0    0    0    0  0.00000000000E+00  0.00000000000E+00  0.93234578044E-11  0.17124000000E+03  0.17124000000E+03 0.  1.
       11    1    1    2    0    0 -0.14764537455E-01 -0.24217750107E-02  0.90606051622E-01  0.91834494467E-01  0.51109989000E-03 0.  1.
     -623    1    1    2    0    0  0.12014845790E-01 -0.86548162475E-02  0.27167051898E-02  0.17124000066E+03  0.17124000000E+03 0.  1.
     -611    1    1    2    0    0 -0.39823870219E-01  0.52547491782E-01  0.32501093992E+01  0.32507781449E+01  0.51109989000E-03 0. -1.
      611    1    1    2    0    0  0.42573561884E-01 -0.41470900524E-01  0.21565678202E+01  0.21573866988E+01  0.51109989000E-03 0.  1.
</event>
<event>
 6   3  0.2312675E+03  0.9118800E+02  0.7818608E-02  0.1180000E+00
       11   -1    0    0    0    0  0.00000000000E+00  0.00000000000E+00  0.54999999763E+01  0.55000000000E+01  0.51109989000E-03 0. -1.
     -623   -1    0    0    0    0  0.00000000000E+00  0.00000000000E+00  0.93234578044E-11  0.17124000000E+03  0.17124000000E+03 0. -1.
       11    1    1    2    0    0 -0.10006285046E-02 -0.72762629867E-02  0.56427841386E+00  0.56432644350E+00  0.51109989000E-03 0. -1.
     -623    1    1    2    0    0  0.60027717913E-01  0.17339767754E-01  0.42313649932E-03  0.17124001140E+03  0.17124000000E+03 0. -1.
     -611    1    1    2    0    0 -0.32020271400E-01 -0.64450429161E-02  0.26825043156E+01  0.26827032077E+01  0.51109989000E-03 0. -1.
      611    1    1    2    0    0 -0.27006817991E-01 -0.36184618473E-02  0.22527941088E+01  0.22529589475E+01  0.51109989000E-03 0. -1.
</event>
<event>
 6   3  0.2312675E+03  0.9118800E+02  0.7818608E-02  0.1180000E+00
       11   -1    0    0    0    0  0.00000000000E+00  0.00000000000E+00  0.54999999763E+01  0.55000000000E+01  0.51109989000E-03 0.  1.
     -623   -1    0    0    0    0  0.00000000000E+00  0.00000000000E+00  0.93234578044E-11  0.17124000000E+03  0.17124000000E+03 0. -1.
       11    1    1    2    0    0 -0.13015737462E-01  0.69682187941E-03  0.61945063360E-01  0.63303610325E-01  0.51109989000E-03 0.  1.
     -623    1    1    2    0    0 -0.52494484476E-01  0.98760479343E-04  0.17620477146E-02  0.17124000806E+03  0.17124000000E+03 0. -1.
     -611    1    1    2    0    0  0.33563555884E-01 -0.16575227431E-02  0.27598679325E+01  0.27600725581E+01  0.51109989000E-03 0.  1.
      611    1    1    2    0    0  0.31946666024E-01  0.86194038468E-03  0.26764249302E+01  0.26766157738E+01  0.51109989000E-03 0.  1.
</event>
<event>
 6   3  0.2312675E+03  0.9118800E+02  0.7818608E-02  0.1180000E+00
       11   -1    0    0    0    0  0.00000000000E+00  0.00000000000E+00  0.54999999763E+01  0.55000000000E+01  0.51109989000E-03 0. -1.
     -623   -1    0    0    0    0  0.00000000000E+00  0.00000000000E+00  0.93234578044E-11  0.17124000000E+03  0.17124000000E+03 0. -1.
       11    1    1    2    0    0  0.17548935391E-02 -0.60161126373E-04  0.20095805521E-03  0.18398037755E-02  0.51109989000E-03 0. -1.
     -623    1    1    2    0    0  0.56033052185E-02  0.45320112439E-02  0.24379336316E-02  0.17124000017E+03  0.17124000000E+03 0. -1.
     -611    1    1    2    0    0 -0.44818091350E-01 -0.24656658271E-01  0.30526692413E+01  0.30530978317E+01  0.51109989000E-03 0.  1.
      611    1    1    2    0    0  0.37459892592E-01  0.20184808153E-01  0.24446918433E+01  0.24450621956E+01  0.51109989000E-03 0. -1.
</event>
<event>
 6   3  0.2312675E+03  0.9118800E+02  0.7818608E-02  0.1180000E+00
       11   -1    0    0    0    0  0.00000000000E+00  0.00000000000E+00  0.54999999763E+01  0.55000000000E+01  0.51109989000E-03 0. -1.
     -623   -1    0    0    0    0  0.00000000000E+00  0.00000000000E+00  0.93234578044E-11  0.17124000000E+03  0.17124000000E+03 0. -1.
       11    1    1    2    0    0 -0.48190981613E-01 -0.32771494358E-01  0.98999677520E+00  0.99171075303E+00  0.51109989000E-03 0. -1.
     -623    1    1    2    0    0 -0.21137400133E-03  0.41570464966E-02  0.20648543355E-02  0.17124000006E+03  0.17124000000E+03 0. -1.
     -611    1    1    2    0    0  0.13486200485E-01  0.80235240090E-02  0.12797670297E+01  0.12798633388E+01  0.51109989000E-03 0. -1.
      611    1    1    2    0    0  0.34916155118E-01  0.20590923845E-01  0.32281713159E+01  0.32284258440E+01  0.51109989000E-03 0. -1.
</event>
<event>
 6   3  0.2312675E+03  0.9118800E+02  0.7818608E-02  0.1180000E+00
       11   -1    0    0    0    0  0.00000000000E+00  0.00000000000E+00  0.54999999763E+01  0.55000000000E+01  0.51109989000E-03 0.  1.
     -623   -1    0    0    0    0  0.00000000000E+00  0.00000000000E+00  0.93234578044E-11  0.17124000000E+03  0.17124000000E+03 0. -1.
       11    1    1    2    0    0  0.41090022608E-01  0.17641042252E-01  0.16684128018E+00  0.17273062938E+00  0.51109989000E-03 0.  1.
     -623    1    1    2    0    0  0.31689778146E-01  0.18472389216E-01  0.65146342356E-02  0.17124000405E+03  0.17124000000E+03 0. -1.
     -611    1    1    2    0    0 -0.52342638845E-01 -0.27705503149E-01  0.38182352659E+01  0.38186945615E+01  0.51109989000E-03 0.  1.
      611    1    1    2    0    0 -0.20437161915E-01 -0.84079283219E-02  0.15084087964E+01  0.15085707571E+01  0.51109989000E-03 0. -1.
</event>
<event>
 6   3  0.2312675E+03  0.9118800E+02  0.7818608E-02  0.1180000E+00
       11   -1    0    0    0    0  0.00000000000E+00  0.00000000000E+00  0.54999999763E+01  0.55000000000E+01  0.51109989000E-03 0. -1.
     -623   -1    0    0    0    0  0.00000000000E+00  0.00000000000E+00  0.93234578044E-11  0.17124000000E+03  0.17124000000E+03 0. -1.
       11    1    1    2    0    0 -0.36238370044E-01 -0.46610378863E-02  0.50851915089E+00  0.50983029802E+00  0.51109989000E-03 0. -1.
     -623    1    1    2    0    0 -0.12669561764E-01 -0.26090285982E-01  0.15229254767E-01  0.17124000313E+03  0.17124000000E+03 0. -1.
     -611    1    1    2    0    0  0.12408447321E+00 -0.13913440550E+00  0.24115116574E+01  0.24187071080E+01  0.51109989000E-03 0. -1.
      611    1    1    2    0    0 -0.75176541405E-01  0.16988572937E+00  0.25647399132E+01  0.25714594605E+01  0.51109989000E-03 0.  1.
</event>
<event>
 6   3  0.2949366E+03  0.9118800E+02  0.7818608E-02  0.1180000E+00
       11   -1    0    0    0    0  0.00000000000E+00  0.00000000000E+00  0.54999999763E+01  0.55000000000E+01  0.51109989000E-03 0.  1.
     -623   -1    0    0    0    0  0.00000000000E+00  0.00000000000E+00  0.93234578044E-11  0.17124000000E+03  0.17124000000E+03 0. -1.
       11    1    1    2    0    0 -0.11061431523E-02  0.76913515500E-03  0.54678599035E-02  0.56545412353E-02  0.51109989000E-03 0.  1.
     -623    1    1    2    0    0  0.52078311561E-03 -0.46187195955E-03  0.70932538953E-03  0.17124000000E+03  0.17124000000E+03 0. -1.
     -611    1    1    2    0    0 -0.34900443678E-01  0.13042852307E-01  0.23770288992E+01  0.23773209304E+01  0.51109989000E-03 0.  1.
      611    1    1    2    0    0  0.35485803715E-01 -0.13350115503E-01  0.31167938917E+01  0.31170245255E+01  0.51109989000E-03 0. -1.
</event>
<event>
 6   3  0.2312675E+03  0.9118800E+02  0.7818608E-02  0.1180000E+00
       11   -1    0    0    0    0  0.00000000000E+00  0.00000000000E+00  0.54999999763E+01  0.55000000000E+01  0.51109989000E-03 0. -1.
     -623   -1    0    0    0    0  0.00000000000E+00  0.00000000000E+00  0.93234578044E-11  0.17124000000E+03  0.17124000000E+03 0. -1.
       11    1    1    2    0    0 -0.14079922263E-02  0.81372932649E-03  0.46205352544E-01  0.46236786484E-01  0.51109989000E-03 0. -1.
     -623    1    1    2    0    0  0.19987445688E-02  0.22344411328E-02  0.15766070990E-02  0.17124000003E+03  0.17124000000E+03 0. -1.
     -611    1    1    2    0    0  0.63506676344E-01 -0.63497326659E-03  0.32080236031E+01  0.32086522405E+01  0.51109989000E-03 0. -1.
      611    1    1    2    0    0 -0.64097428687E-01 -0.24131971927E-02  0.22441944135E+01  0.22451109395E+01  0.51109989000E-03 0.  1.
</event>
<event>
 6   3  0.2312675E+03  0.9118800E+02  0.7818608E-02  0.1180000E+00
       11   -1    0    0    0    0  0.00000000000E+00  0.00000000000E+00  0.54999999763E+01  0.55000000000E+01  0.51109989000E-03 0. -1.
     -623   -1    0    0    0    0  0.00000000000E+00  0.00000000000E+00  0.93234578044E-11  0.17124000000E+03  0.17124000000E+03 0.  1.
       11    1    1    2    0    0  0.49373785168E-02 -0.13402540557E-02  0.26095522725E+00  0.26100587319E+00  0.51109989000E-03 0. -1.
     -623    1    1    2    0    0 -0.59618501106E-01 -0.17603985748E-01  0.39741725141E-03  0.17124001128E+03  0.17124000000E+03 0.  1.
     -611    1    1    2    0    0  0.43520002871E-01  0.20297137274E-01  0.42862002496E+01  0.42864692703E+01  0.51109989000E-03 0. -1.
      611    1    1    2    0    0  0.11161119678E-01 -0.13528974816E-02  0.95244707849E+00  0.95251356918E+00  0.51109989000E-03 0.  1.
</event>
<event>
 6   3  0.2312675E+03  0.9118800E+02  0.7818608E-02  0.1180000E+00
       11   -1    0    0    0    0  0.00000000000E+00  0.00000000000E+00  0.54999999763E+01  0.55000000000E+01  0.51109989000E-03 0.  1.
     -623   -1    0    0    0    0  0.00000000000E+00  0.00000000000E+00  0.93234578044E-11  0.17124000000E+03  0.17124000000E+03 0.  1.
       11    1    1    2    0    0 -0.14037627968E-01 -0.10032074111E-01  0.45138851093E+00  0.45171843723E+00  0.51109989000E-03 0.  1.
     -623    1    1    2    0    0 -0.60823627319E-01  0.16379033002E-01  0.90147084085E-03  0.17124001159E+03  0.17124000000E+03 0.  1.
     -611    1    1    2    0    0  0.83807934043E-02 -0.11003508492E-02  0.61762912980E+00  0.61768717947E+00  0.51109989000E-03 0. -1.
      611    1    1    2    0    0  0.66480461887E-01 -0.52466080422E-02  0.44300808650E+01  0.44305827958E+01  0.51109989000E-03 0.  1.
</event>
<event>
 6   3  0.2312675E+03  0.9118800E+02  0.7818608E-02  0.1180000E+00
       11   -1    0    0    0    0  0.00000000000E+00  0.00000000000E+00  0.54999999763E+01  0.55000000000E+01  0.51109989000E-03 0.  1.
     -623   -1    0    0    0    0  0.00000000000E+00  0.00000000000E+00  0.93234578044E-11  0.17124000000E+03  0.17124000000E+03 0.  1.
       11    1    1    2    0    0 -0.33924225401E-03  0.16299401813E-02 -0.21115360637E-03  0.17543087655E-02  0.51109989000E-03 0.  1.
     -623    1    1    2    0    0 -0.22525647215E-02 -0.11913147530E-03  0.25206096034E-02  0.17124000003E+03  0.17124000000E+03 0.  1.
     -611    1    1    2    0    0 -0.29549266485E-01  0.23093741725E-01  0.28101855713E+01  0.28104358535E+01  0.51109989000E-03 0. -1.
      611    1    1    2    0    0  0.32141073461E-01 -0.24604550431E-01  0.26875049490E+01  0.26878098044E+01  0.51109989000E-03 0.  1.
</event>
<event>
 6   3  0.3353272E+03  0.9118800E+02  0.7818608E-02  0.1180000E+00
       11   -1    0    0    0    0  0.00000000000E+00  0.00000000000E+00  0.54999999763E+01  0.55000000000E+01  0.51109989000E-03 0. -1.
     -623   -1    0    0    0    0  0.00000000000E+00  0.00000000000E+00  0.93234578044E-11  0.17124000000E+03  0.17124000000E+03 0.  1.
       11    1    1    2    0    0  0.32612476627E-02 -0.19638486242E-02  0.10842082793E-01  0.11502365849E-01  0.51109989000E-03 0. -1.
     -623    1    1    2    0    0 -0.53387679105E-03  0.26700569719E-02  0.19999112045E-02  0.17124000003E+03  0.17124000000E+03 0.  1.
     -611    1    1    2    0    0  0.44026842696E-01  0.13815885976E-01  0.43955198812E+01  0.43957621102E+01  0.51109989000E-03 0. -1.
      611    1    1    2    0    0 -0.46754213568E-01 -0.14522094323E-01  0.10916381011E+01  0.10927354907E+01  0.51109989000E-03 0.  1.
</event>
<event>
 6   3  0.2312675E+03  0.9118800E+02  0.7818608E-02  0.1180000E+00
       11   -1    0    0    0    0  0.00000000000E+00  0.00000000000E+00  0.54999999763E+01  0.55000000000E+01  0.51109989000E-03 0. -1.
     -623   -1    0    0    0    0  0.00000000000E+00  0.00000000000E+00  0.93234578044E-11  0.17124000000E+03  0.17124000000E+03 0.  1.
       11    1    1    2    0    0 -0.16592300308E-01  0.21860404382E-01  0.52312802314E+00  0.52384766061E+00  0.51109989000E-03 0. -1.
     -623    1    1    2    0    0 -0.91296823675E-02  0.10101661192E-01  0.18699699454E-02  0.17124000055E+03  0.17124000000E+03 0.  1.
     -611    1    1    2    0    0  0.50851806665E-01 -0.53538245319E-01  0.34372564382E+01  0.34380494955E+01  0.51109989000E-03 0.  1.
      611    1    1    2    0    0 -0.25129823990E-01  0.21576179744E-01  0.15377455450E+01  0.15381022925E+01  0.51109989000E-03 0. -1.
</event>
<event>
 6   3  0.2312675E+03  0.9118800E+02  0.7818608E-02  0.1180000E+00
       11   -1    0    0    0    0  0.00000000000E+00  0.00000000000E+00  0.54999999763E+01  0.55000000000E+01  0.51109989000E-03 0.  1.
     -623   -1    0    0    0    0  0.00000000000E+00  0.00000000000E+00  0.93234578044E-11  0.17124000000E+03  0.17124000000E+03 0.  1.
       11    1    1    2    0    0 -0.17225268516E-01  0.40287822104E-02  0.26529135367E-01  0.31890393662E-01  0.51109989000E-03 0.  1.
     -623    1    1    2    0    0  0.44255009821E-01 -0.22250557238E-01  0.14440998051E-01  0.17124000777E+03  0.17124000000E+03 0.  1.
     -611    1    1    2    0    0  0.91701648693E-01  0.80672508505E-02  0.45918321549E+01  0.45927548458E+01  0.51109989000E-03 0.  1.
      611    1    1    2    0    0 -0.11873139000E+00  0.10154524177E-01  0.86719768792E+00  0.87534698748E+00  0.51109989000E-03 0. -1.
</event>
<event>
 6   3  0.2312675E+03  0.9118800E+02  0.7818608E-02  0.1180000E+00
       11   -1    0    0    0    0  0.00000000000E+00  0.00000000000E+00  0.54999999763E+01  0.55000000000E+01  0.51109989000E-03 0.  1.
     -623   -1    0    0    0    0  0.00000000000E+00  0.00000000000E+00  0.93234578044E-11  0.17124000000E+03  0.17124000000E+03 0.  1.
       11    1    1    2    0    0  0.36109920999E-01  0.51504675816E-01  0.28341551183E+00  0.29031236900E+00  0.51109989000E-03 0.  1.
     -623    1    1    2    0    0  0.41796080622E-01  0.12309264087E-01  0.78772958275E-02  0.17124000572E+03  0.17124000000E+03 0.  1.
     -611    1    1    2    0    0 -0.63506267546E-01 -0.51076055977E-01  0.41536418811E+01  0.41544413520E+01  0.51109989000E-03 0.  1.
      611    1    1    2    0    0 -0.14399734070E-01 -0.12737883922E-01  0.10550652872E+01  0.10552405544E+01  0.51109989000E-03 0.  1.
</event>
<event>
 6   3  0.2312675E+03  0.9118800E+02  0.7818608E-02  0.1180000E+00
       11   -1    0    0    0    0  0.00000000000E+00  0.00000000000E+00  0.54999999763E+01  0.55000000000E+01  0.51109989000E-03 0. -1.
     -623   -1    0    0    0    0  0.00000000000E+00  0.00000000000E+00  0.93234578044E-11  0.17124000000E+03  0.17124000000E+03 0. -1.
       11    1    1    2    0    0  0.11156678106E-01 -0.11105346653E-01  0.17640148082E+00  0.17710320112E+00  0.51109989000E-03 0. -1.
     -623    1    1    2    0    0 -0.11720041117E-03  0.71517076108E-02  0.11455069638E-02  0.17124000015E+03  0.17124000000E+03 0. -1.
     -611    1    1    2    0    0 -0.34899042774E-01 -0.14191292500E-01  0.34187210272E+01  0.34189286420E+01  0.51109989000E-03 0. -1.
      611    1    1    2    0    0  0.23859565079E-01  0.18144931542E-01  0.19037319611E+01  0.19039680035E+01  0.51109989000E-03 0.  1.
</event>
<event>
 6   3  0.2312675E+03  0.9118800E+02  0.7818608E-02  0.1180000E+00
       11   -1    0    0    0    0  0.00000000000E+00  0.00000000000E+00  0.54999999763E+01  0.55000000000E+01  0.51109989000E-03 0. -1.
     -623   -1    0    0    0    0  0.00000000000E+00  0.00000000000E+00  0.93234578044E-11  0.17124000000E+03  0.17124000000E+03 0. -1.
       11    1    1    2    0    0  0.19742718833E-02  0.26051019487E-02  0.35231948843E-01  0.35386943185E-01  0.51109989000E-03 0. -1.
     -623    1    1    2    0    0 -0.24136236863E-02 -0.62851495498E-04  0.82910581216E-03  0.17124000002E+03  0.17124000000E+03 0. -1.
     -611    1    1    2    0    0 -0.41551459910E-01  0.56212915285E-02  0.22656734803E+01  0.22660614960E+01  0.51109989000E-03 0.  1.
      611    1    1    2    0    0  0.41990811713E-01 -0.81635419817E-02  0.31982654412E+01  0.31985515418E+01  0.51109989000E-03 0. -1.
</event>
<event>
 6   3  0.2312675E+03  0.9118800E+02  0.7818608E-02  0.1180000E+00
       11   -1    0    0    0    0  0.00000000000E+00  0.00000000000E+00  0.54999999763E+01  0.55000000000E+01  0.51109989000E-03 0. -1.
     -623   -1    0    0    0    0  0.00000000000E+00  0.00000000000E+00  0.93234578044E-11  0.17124000000E+03  0.17124000000E+03 0.  1.
       11    1    1    2    0    0  0.25401256547E-02 -0.23184503146E-02  0.43376782772E-01  0.43515904644E-01  0.51109989000E-03 0. -1.
     -623    1    1    2    0    0 -0.44155994485E-02 -0.11375019238E-02  0.10683941930E-02  0.17124000006E+03  0.17124000000E+03 0.  1.
     -611    1    1    2    0    0 -0.49037035494E-01  0.71255474534E-02  0.25690183412E+01  0.25694962352E+01  0.51109989000E-03 0. -1.
      611    1    1    2    0    0  0.50912509288E-01 -0.36695952150E-02  0.28865364580E+01  0.28869877960E+01  0.51109989000E-03 0.  1.
</event>
<event>
 6   3  0.2312675E+03  0.9118800E+02  0.7818608E-02  0.1180000E+00
       11   -1    0    0    0    0  0.00000000000E+00  0.00000000000E+00  0.54999999763E+01  0.55000000000E+01  0.51109989000E-03 0. -1.
     -623   -1    0    0    0    0  0.00000000000E+00  0.00000000000E+00  0.93234578044E-11  0.17124000000E+03  0.17124000000E+03 0.  1.
       11    1    1    2    0    0  0.88783164192E-02 -0.37804814708E-02  0.10100764958E+01  0.10101227179E+01  0.51109989000E-03 0. -1.
     -623    1    1    2    0    0  0.38147418732E-01 -0.11084988752E-01  0.32184092907E-03  0.17124000461E+03  0.17124000000E+03 0.  1.
     -611    1    1    2    0    0 -0.29626792408E-01  0.91254463132E-02  0.28234456190E+01  0.28236158459E+01  0.51109989000E-03 0. -1.
      611    1    1    2    0    0 -0.17398942752E-01  0.57400239123E-02  0.16661560215E+01  0.16662568290E+01  0.51109989000E-03 0. -1.
</event>
<event>
 6   3  0.2312675E+03  0.9118800E+02  0.7818608E-02  0.1180000E+00
       11   -1    0    0    0    0  0.00000000000E+00  0.00000000000E+00  0.54999999763E+01  0.55000000000E+01  0.51109989000E-03 0. -1.
     -623   -1    0    0    0    0  0.00000000000E+00  0.00000000000E+00  0.93234578044E-11  0.17124000000E+03  0.17124000000E+03 0. -1.
       11    1    1    2    0    0 -0.54884276814E-01  0.44024681343E-01  0.79626914970E+00  0.79937180110E+00  0.51109989000E-03 0. -1.
     -623    1    1    2    0    0  0.89076847946E-03 -0.21358695049E-01  0.34689467652E-02  0.17124000137E+03  0.17124000000E+03 0. -1.
     -611    1    1    2    0    0  0.40608143068E-01 -0.16846156702E-01  0.35446791389E+01  0.35449518012E+01  0.51109989000E-03 0. -1.
      611    1    1    2    0    0  0.13385365362E-01 -0.58198296328E-02  0.11555827493E+01  0.11556750365E+01  0.51109989000E-03 0.  1.
</event>
<event>
 6   3  0.2312675E+03  0.9118800E+02  0.7818608E-02  0.1180000E+00
       11   -1    0    0    0    0  0.00000000000E+00  0.00000000000E+00  0.54999999763E+01  0.55000000000E+01  0.51109989000E-03 0. -1.
     -623   -1    0    0    0    0  0.00000000000E+00  0.00000000000E+00  0.93234578044E-11  0.17124000000E+03  0.17124000000E+03 0. -1.
       11    1    1    2    0    0 -0.30345044884E-03 -0.19915904943E-02  0.30219095953E-02  0.36676525969E-02  0.51109989000E-03 0. -1.
     -623    1    1    2    0    0 -0.78839144072E-02  0.33834420541E-02  0.18288148928E-02  0.17124000022E+03  0.17124000000E+03 0. -1.
     -611    1    1    2    0    0  0.60507686545E-01  0.47244133755E-02  0.32321336994E+01  0.32327035144E+01  0.51109989000E-03 0. -1.
      611    1    1    2    0    0 -0.52320321689E-01 -0.61162649353E-02  0.22630155524E+01  0.22636286083E+01  0.51109989000E-03 0.  1.
</event>
<event>
 6   3  0.2312675E+03  0.9118800E+02  0.7818608E-02  0.1180000E+00
       11   -1    0    0    0    0  0.00000000000E+00  0.00000000000E+00  0.54999999763E+01  0.55000000000E+01  0.51109989000E-03 0. -1.
     -623   -1    0    0    0    0  0.00000000000E+00  0.00000000000E+00  0.93234578044E-11  0.17124000000E+03  0.17124000000E+03 0. -1.
       11    1    1    2    0    0 -0.99326236010E-06  0.30878127235E-03  0.21150241430E-01  0.21158669205E-01  0.51109989000E-03 0.  1.
     -623    1    1    2    0    0  0.55498717674E-01 -0.79689335468E-02  0.30441071126E-03  0.17124000918E+03  0.17124000000E+03 0. -1.
     -611    1    1    2    0    0 -0.12617628805E-01  0.23398905804E-02  0.12204235110E+01  0.12204910844E+01  0.51109989000E-03 0.  1.
      611    1    1    2    0    0 -0.42880095626E-01  0.53202616969E-02  0.42581218150E+01  0.42583410691E+01  0.51109989000E-03 0. -1.
</event>
<event>
 6   3  0.2312675E+03  0.9118800E+02  0.7818608E-02  0.1180000E+00
       11   -1    0    0    0    0  0.00000000000E+00  0.00000000000E+00  0.54999999763E+01  0.55000000000E+01  0.51109989000E-03 0.  1.
     -623   -1    0    0    0    0  0.00000000000E+00  0.00000000000E+00  0.93234578044E-11  0.17124000000E+03  0.17124000000E+03 0.  1.
       11    1    1    2    0    0  0.20241635552E-01 -0.64300901455E-02  0.49386309847E+00  0.49431982675E+00  0.51109989000E-03 0.  1.
     -623    1    1    2    0    0 -0.14220763468E-01  0.87701441126E-02  0.15073222695E-02  0.17124000082E+03  0.17124000000E+03 0.  1.
     -611    1    1    2    0    0  0.41891245500E-01 -0.20007024992E-02  0.35770465175E+01  0.35772924019E+01  0.51109989000E-03 0.  1.
      611    1    1    2    0    0 -0.47912117585E-01 -0.33935146786E-03  0.14275830380E+01  0.14283869496E+01  0.51109989000E-03 0. -1.
</event>
<event>
 6   3  0.2312675E+03  0.9118800E+02  0.7818608E-02  0.1180000E+00
       11   -1    0    0    0    0  0.00000000000E+00  0.00000000000E+00  0.54999999763E+01  0.55000000000E+01  0.51109989000E-03 0.  1.
     -623   -1    0    0    0    0  0.00000000000E+00  0.00000000000E+00  0.93234578044E-11  0.17124000000E+03  0.17124000000E+03 0. -1.
       11    1    1    2    0    0  0.18278504441E-01 -0.22702591930E-01  0.62338220198E-01  0.68817340296E-01  0.51109989000E-03 0.  1.
     -623    1    1    2    0    0 -0.41947954846E-01  0.22592843815E-01  0.99189075708E-02  0.17124000692E+03  0.17124000000E+03 0. -1.
     -611    1    1    2    0    0  0.91509946853E-01 -0.53597190022E-01  0.31808319093E+01  0.31825993505E+01  0.51109989000E-03 0.  1.
      611    1    1    2    0    0 -0.67840496447E-01  0.53706938137E-01  0.22469109392E+01  0.22485763936E+01  0.51109989000E-03 0. -1.
</event>
<event>
 6   3  0.2312675E+03  0.9118800E+02  0.7818608E-02  0.1180000E+00
       11   -1    0    0    0    0  0.00000000000E+00  0.00000000000E+00  0.54999999763E+01  0.55000000000E+01  0.51109989000E-03 0.  1.
     -623   -1    0    0    0    0  0.00000000000E+00  0.00000000000E+00  0.93234578044E-11  0.17124000000E+03  0.17124000000E+03 0. -1.
       11    1    1    2    0    0 -0.99900791961E-01 -0.38583061837E-01  0.74725956663E+00  0.75489465625E+00  0.51109989000E-03 0.  1.
     -623    1    1    2    0    0 -0.58620654681E-02 -0.24943493439E-02  0.10818628718E-01  0.17124000046E+03  0.17124000000E+03 0. -1.
     -611    1    1    2    0    0  0.58422417417E-01  0.86992329644E-01  0.24613651672E+01  0.24635948514E+01  0.51109989000E-03 0. -1.
      611    1    1    2    0    0  0.47340440012E-01 -0.45914918464E-01  0.22805566137E+01  0.22815100321E+01  0.51109989000E-03 0.  1.
</event>
<event>
 6   3  0.2312675E+03  0.9118800E+02  0.7818608E-02  0.1180000E+00
       11   -1    0    0    0    0  0.00000000000E+00  0.00000000000E+00  0.54999999763E+01  0.55000000000E+01  0.51109989000E-03 0. -1.
     -623   -1    0    0    0    0  0.00000000000E+00  0.00000000000E+00  0.93234578044E-11  0.17124000000E+03  0.17124000000E+03 0. -1.
       11    1    1    2    0    0  0.33395522286E-02 -0.89355829958E-02  0.27348260392E-01  0.28968704185E-01  0.51109989000E-03 0. -1.
     -623    1    1    2    0    0 -0.12567249069E-01  0.14092566646E-01  0.33531989081E-02  0.17124000107E+03  0.17124000000E+03 0. -1.
     -611    1    1    2    0    0 -0.45470003768E-01 -0.48948760939E-01  0.29574135464E+01  0.29581681237E+01  0.51109989000E-03 0. -1.
      611    1    1    2    0    0  0.54697700608E-01  0.43791777289E-01  0.25118849706E+01  0.25128620983E+01  0.51109989000E-03 0.  1.
</event>
<event>
 6   3  0.2312675E+03  0.9118800E+02  0.7818608E-02  0.1180000E+00
       11   -1    0    0    0    0  0.00000000000E+00  0.00000000000E+00  0.54999999763E+01  0.55000000000E+01  0.51109989000E-03 0.  1.
     -623   -1    0    0    0    0  0.00000000000E+00  0.00000000000E+00  0.93234578044E-11  0.17124000000E+03  0.17124000000E+03 0. -1.
       11    1    1    2    0    0 -0.29106689858E-01 -0.28877807913E-02  0.84756113278E+00  0.84806584278E+00  0.51109989000E-03 0.  1.
     -623    1    1    2    0    0  0.91325384070E-01  0.95454958566E-02  0.95045511524E-03  0.17124002462E+03  0.17124000000E+03 0. -1.
     -611    1    1    2    0    0 -0.10796369638E-01 -0.12097316095E-02  0.78386214220E+00  0.78393758951E+00  0.51109989000E-03 0.  1.
      611    1    1    2    0    0 -0.51422324537E-01 -0.54479834517E-02  0.38676262433E+01  0.38679719434E+01  0.51109989000E-03 0.  1.
</event>
<event>
 6   3  0.2312675E+03  0.9118800E+02  0.7818608E-02  0.1180000E+00
       11   -1    0    0    0    0  0.00000000000E+00  0.00000000000E+00  0.54999999763E+01  0.55000000000E+01  0.51109989000E-03 0.  1.
     -623   -1    0    0    0    0  0.00000000000E+00  0.00000000000E+00  0.93234578044E-11  0.17124000000E+03  0.17124000000E+03 0.  1.
       11    1    1    2    0    0  0.59706512690E-02  0.13142359188E-01  0.14565475400E+00  0.14636918687E+00  0.51109989000E-03 0.  1.
     -623    1    1    2    0    0 -0.16707963871E-02  0.49116682315E-02  0.21654753849E-02  0.17124000009E+03  0.17124000000E+03 0.  1.
     -611    1    1    2    0    0  0.50872181576E-01 -0.36228723056E-01  0.20872050801E+01  0.20881393169E+01  0.51109989000E-03 0. -1.
      611    1    1    2    0    0 -0.55172036458E-01  0.18174695636E-01  0.32649746669E+01  0.32654914040E+01  0.51109989000E-03 0.  1.
</event>
<event>
 6   3  0.2312675E+03  0.9118800E+02  0.7818608E-02  0.1180000E+00
       11   -1    0    0    0    0  0.00000000000E+00  0.00000000000E+00  0.54999999763E+01  0.55000000000E+01  0.51109989000E-03 0.  1.
     -623   -1    0    0    0    0  0.00000000000E+00  0.00000000000E+00  0.93234578044E-11  0.17124000000E+03  0.17124000000E+03 0. -1.
       11    1    1    2    0    0 -0.26048044621E-01  0.28868843100E-01  0.76462821823E+00  0.76561640791E+00  0.51109989000E-03 0.  1.
     -623    1    1    2    0    0 -0.41484511035E-01 -0.31915454195E-01  0.15336071710E-02  0.17124000801E+03  0.17124000000E+03 0. -1.
     -611    1    1    2    0    0  0.45456375689E-01  0.12092089664E-01  0.28855349934E+01  0.28859183911E+01  0.51109989000E-03 0.  1.
      611    1    1    2    0    0  0.22076179966E-01 -0.90454785687E-02  0.18483031574E+01  0.18484571949E+01  0.51109989000E-03 0. -1.
</event>
<event>
 6   3  0.2312675E+03  0.9118800E+02  0.7818608E-02  0.1180000E+00
       11   -1    0    0    0    0  0.00000000000E+00  0.00000000000E+00  0.54999999763E+01  0.55000000000E+01  0.51109989000E-03 0. -1.
     -623   -1    0    0    0    0  0.00000000000E+00  0.00000000000E+00  0.93234578044E-11  0.17124000000E+03  0.17124000000E+03 0. -1.
       11    1    1    2    0    0 -0.39425302300E-02  0.91670902590E-02  0.91454347451E-01  0.91998575963E-01  0.51109989000E-03 0. -1.
     -623    1    1    2    0    0  0.93177082952E-03  0.22760943698E-01  0.53199762568E-02  0.17124000160E+03  0.17124000000E+03 0. -1.
     -611    1    1    2    0    0  0.48922363187E-01  0.36880406678E-01  0.46221512439E+01  0.46225572949E+01  0.51109989000E-03 0. -1.
      611    1    1    2    0    0 -0.45911603787E-01 -0.68808440635E-01  0.78107440862E+00  0.78544253125E+00  0.51109989000E-03 0.  1.
</event>
<event>
 6   3  0.2312675E+03  0.9118800E+02  0.7818608E-02  0.1180000E+00
       11   -1    0    0    0    0  0.00000000000E+00  0.00000000000E+00  0.54999999763E+01  0.55000000000E+01  0.51109989000E-03 0.  1.
     -623   -1    0    0    0    0  0.00000000000E+00  0.00000000000E+00  0.93234578044E-11  0.17124000000E+03  0.17124000000E+03 0. -1.
       11    1    1    2    0    0 -0.22963052189E-01  0.71163345561E-02  0.26003648322E+00  0.26114589373E+00  0.51109989000E-03 0.  1.
     -623    1    1    2    0    0  0.20108560160E-01 -0.20244341174E-02  0.30817030061E-02  0.17124000122E+03  0.17124000000E+03 0. -1.
     -611    1    1    2    0    0 -0.49316654521E-01  0.20245975136E-01  0.42078998319E+01  0.42082375514E+01  0.51109989000E-03 0.  1.
      611    1    1    2    0    0  0.52171146549E-01 -0.25337875574E-01  0.10289819581E+01  0.10306153345E+01  0.51109989000E-03 0. -1.
</event>
<event>
 6   3  0.2312675E+03  0.9118800E+02  0.7818608E-02  0.1180000E+00
       11   -1    0    0    0    0  0.00000000000E+00  0.00000000000E+00  0.54999999763E+01  0.55000000000E+01  0.51109989000E-03 0.  1.
     -623   -1    0    0    0    0  0.00000000000E+00  0.00000000000E+00  0.93234578044E-11  0.17124000000E+03  0.17124000000E+03 0.  1.
       11    1    1    2    0    0 -0.29026155822E-01 -0.36219640593E-01  0.13466934075E+00  0.14244463011E+00  0.51109989000E-03 0.  1.
     -623    1    1    2    0    0  0.24118629996E-01  0.75473153362E-01  0.12797601567E-01  0.17124001881E+03  0.17124000000E+03 0.  1.
     -611    1    1    2    0    0  0.79708098414E-01 -0.77591966165E-01  0.43697256216E+01  0.43711412884E+01  0.51109989000E-03 0.  1.
      611    1    1    2    0    0 -0.74800572587E-01  0.38338453395E-01  0.98280741237E+00  0.98639527254E+00  0.51109989000E-03 0. -1.
</event>
<event>
 6   3  0.2312675E+03  0.9118800E+02  0.7818608E-02  0.1180000E+00
       11   -1    0    0    0    0  0.00000000000E+00  0.00000000000E+00  0.54999999763E+01  0.55000000000E+01  0.51109989000E-03 0. -1.
     -623   -1    0    0    0    0  0.00000000000E+00  0.00000000000E+00  0.93234578044E-11  0.17124000000E+03  0.17124000000E+03 0. -1.
       11    1    1    2    0    0 -0.35875312017E-01  0.25247985405E-01  0.69238934680E-01  0.81968226027E-01  0.51109989000E-03 0. -1.
     -623    1    1    2    0    0 -0.45712229807E-02 -0.69576640618E-02  0.13391304550E-01  0.17124000073E+03  0.17124000000E+03 0. -1.
     -611    1    1    2    0    0  0.58020726053E-01 -0.27403743264E-01  0.38256085731E+01  0.38261467021E+01  0.51109989000E-03 0. -1.
      611    1    1    2    0    0 -0.17574191055E-01  0.91134219210E-02  0.15917611639E+01  0.15918843459E+01  0.51109989000E-03 0.  1.
</event>
<event>
 6   3  0.2312675E+03  0.9118800E+02  0.7818608E-02  0.1180000E+00
       11   -1    0    0    0    0  0.00000000000E+00  0.00000000000E+00  0.54999999763E+01  0.55000000000E+01  0.51109989000E-03 0.  1.
     -623   -1    0    0    0    0  0.00000000000E+00  0.00000000000E+00  0.93234578044E-11  0.17124000000E+03  0.17124000000E+03 0. -1.
       11    1    1    2    0    0  0.80207762811E-02 -0.59824039046E-02  0.22239204832E-02  0.10262994399E-01  0.51109989000E-03 0.  1.
     -623    1    1    2    0    0 -0.10543849238E-01 -0.51329007030E-02  0.86245166846E-02  0.17124000062E+03  0.17124000000E+03 0. -1.
     -611    1    1    2    0    0  0.40264312715E-01 -0.64566945813E-03  0.25232959381E+01  0.25236173015E+01  0.51109989000E-03 0. -1.
      611    1    1    2    0    0 -0.37741239758E-01  0.11760974066E-01  0.29658556010E+01  0.29661190854E+01  0.51109989000E-03 0.  1.
</event>
<event>
 6   3  0.2312675E+03  0.9118800E+02  0.7818608E-02  0.1180000E+00
       11   -1    0    0    0    0  0.00000000000E+00  0.00000000000E+00  0.54999999763E+01  0.55000000000E+01  0.51109989000E-03 0. -1.
     -623   -1    0    0    0    0  0.00000000000E+00  0.00000000000E+00  0.93234578044E-11  0.17124000000E+03  0.17124000000E+03 0.  1.
       11    1    1    2    0    0  0.54371981304E-01  0.25707737837E-03  0.78982309795E+00  0.79169259546E+00  0.51109989000E-03 0. -1.
     -623    1    1    2    0    0  0.12113688199E-01  0.55428568500E-02  0.23575177734E-02  0.17124000053E+03  0.17124000000E+03 0.  1.
     -611    1    1    2    0    0 -0.48130126171E-01  0.35504215655E-03  0.35332978685E+01  0.35336257193E+01  0.51109989000E-03 0. -1.
      611    1    1    2    0    0 -0.18355543331E-01 -0.61549763849E-02  0.11745214920E+01  0.11746811508E+01  0.51109989000E-03 0.  1.
</event>
<event>
 6   3  0.2312675E+03  0.9118800E+02  0.7818608E-02  0.1180000E+00
       11   -1    0    0    0    0  0.00000000000E+00  0.00000000000E+00  0.54999999763E+01  0.55000000000E+01  0.51109989000E-03 0.  1.
     -623   -1    0    0    0    0  0.00000000000E+00  0.00000000000E+00  0.93234578044E-11  0.17124000000E+03  0.17124000000E+03 0. -1.
       11    1    1    2    0    0 -0.49994785358E-02 -0.11960012535E-02  0.34334368252E-01  0.34720818985E-01  0.51109989000E-03 0.  1.
     -623    1    1    2    0    0  0.26534355685E-02  0.18754021157E-02  0.10058491127E-02  0.17124000003E+03  0.17124000000E+03 0. -1.
     -611    1    1    2    0    0  0.37182215451E-01 -0.18414908327E-01  0.33610863044E+01  0.33613424450E+01  0.51109989000E-03 0.  1.
      611    1    1    2    0    0 -0.34836172484E-01  0.17735507465E-01  0.21035734544E+01  0.21039367021E+01  0.51109989000E-03 0. -1.
</event>
<event>
 6   3  0.2312675E+03  0.9118800E+02  0.7818608E-02  0.1180000E+00
       11   -1    0    0    0    0  0.00000000000E+00  0.00000000000E+00  0.54999999763E+01  0.55000000000E+01  0.51109989000E-03 0.  1.
     -623   -1    0    0    0    0  0.00000000000E+00  0.00000000000E+00  0.93234578044E-11  0.17124000000E+03  0.17124000000E+03 0.  1.
       11    1    1    2    0    0  0.79799243732E-01 -0.87201688442E-03  0.60584678126E+00  0.61108040658E+00  0.51109989000E-03 0.  1.
     -623    1    1    2    0    0 -0.41740414115E-02  0.35831945511E-02  0.58204389726E-02  0.17124000019E+03  0.17124000000E+03 0.  1.
     -611    1    1    2    0    0 -0.43337318499E-01 -0.14237574436E-03  0.28080579675E+01  0.28083924144E+01  0.51109989000E-03 0. -1.
      611    1    1    2    0    0 -0.32287883837E-01 -0.25688019229E-02  0.20802747896E+01  0.20805269927E+01  0.51109989000E-03 0. -1.
</event>
<event>
 6   3  0.2312675E+03  0.9118800E+02  0.7818608E-02  0.1180000E+00
       11   -1    0    0    0    0  0.00000000000E+00  0.00000000000E+00  0.54999999763E+01  0.55000000000E+01  0.51109989000E-03 0. -1.
     -623   -1    0    0    0    0  0.00000000000E+00  0.00000000000E+00  0.93234578044E-11  0.17124000000E+03  0.17124000000E+03 0. -1.
       11    1    1    2    0    0  0.23196347818E-01 -0.58867217308E-03  0.84961160758E+00  0.84992856291E+00  0.51109989000E-03 0. -1.
     -623    1    1    2    0    0 -0.78198983031E-01 -0.49069475895E-01  0.94257621687E-03  0.17124002489E+03  0.17124000000E+03 0. -1.
     -611    1    1    2    0    0  0.20941001658E-01  0.20821907853E-01  0.15763330999E+01  0.15766097743E+01  0.51109989000E-03 0.  1.
      611    1    1    2    0    0  0.34061633552E-01  0.28836240213E-01  0.30731126923E+01  0.30734367741E+01  0.51109989000E-03 0. -1.
</event>
<event>
 6   3  0.2312675E+03  0.9118800E+02  0.7818608E-02  0.1180000E+00
       11   -1    0    0    0    0  0.00000000000E+00  0.00000000000E+00  0.54999999763E+01  0.55000000000E+01  0.51109989000E-03 0.  1.
     -623   -1    0    0    0    0  0.00000000000E+00  0.00000000000E+00  0.93234578044E-11  0.17124000000E+03  0.17124000000E+03 0. -1.
       11    1    1    2    0    0  0.93304288484E-02 -0.94310512977E-03  0.13704183425E+00  0.13736328442E+00  0.51109989000E-03 0.  1.
     -623    1    1    2    0    0  0.11859532151E-01 -0.38735864474E-02  0.27529810869E-02  0.17124000048E+03  0.17124000000E+03 0. -1.
     -611    1    1    2    0    0 -0.76596986583E-01 -0.58239078046E-02  0.44617185334E+01  0.44623798077E+01  0.51109989000E-03 0.  1.
      611    1    1    2    0    0  0.55407025584E-01  0.10640599382E-01  0.89848662752E+00  0.90025643119E+00  0.51109989000E-03 0. -1.
</event>
<event>
 6   3  0.2312675E+03  0.9118800E+02  0.7818608E-02  0.1180000E+00
       11   -1    0    0    0    0  0.00000000000E+00  0.00000000000E+00  0.54999999763E+01  0.55000000000E+01  0.51109989000E-03 0.  1.
     -623   -1    0    0    0    0  0.00000000000E+00  0.00000000000E+00  0.93234578044E-11  0.17124000000E+03  0.17124000000E+03 0. -1.
       11    1    1    2    0    0  0.14714435030E-01  0.58496010244E-01  0.54685369576E+00  0.55017044959E+00  0.51109989000E-03 0.  1.
     -623    1    1    2    0    0 -0.34564435793E-01  0.44092935448E-01  0.78821833859E-02  0.17124000935E+03  0.17124000000E+03 0. -1.
     -611    1    1    2    0    0 -0.63082083659E-01 -0.58638115152E-01  0.10842535461E+01  0.10876689713E+01  0.51109989000E-03 0. -1.
      611    1    1    2    0    0  0.82932084421E-01 -0.43950830540E-01  0.38610105510E+01  0.38621512325E+01  0.51109989000E-03 0.  1.
</event>
<event>
 6   3  0.2312675E+03  0.9118800E+02  0.7818608E-02  0.1180000E+00
       11   -1    0    0    0    0  0.00000000000E+00  0.00000000000E+00  0.54999999763E+01  0.55000000000E+01  0.51109989000E-03 0. -1.
     -623   -1    0    0    0    0  0.00000000000E+00  0.00000000000E+00  0.93234578044E-11  0.17124000000E+03  0.17124000000E+03 0.  1.
       11    1    1    2    0    0  0.54942345057E-01  0.59816175365E-01  0.96088065517E+00  0.96430728029E+00  0.51109989000E-03 0. -1.
     -623    1    1    2    0    0  0.37257433685E-02 -0.16739901847E-01  0.40293523005E-02  0.17124000091E+03  0.17124000000E+03 0.  1.
     -611    1    1    2    0    0 -0.27671035853E-01 -0.15217588356E-01  0.22515098603E+01  0.22517313724E+01  0.51109989000E-03 0. -1.
      611    1    1    2    0    0 -0.30997052573E-01 -0.27858685162E-01  0.22835801085E+01  0.22839604412E+01  0.51109989000E-03 0.  1.
</event>
<event>
 6   3  0.2312675E+03  0.9118800E+02  0.7818608E-02  0.1180000E+00
       11   -1    0    0    0    0  0.00000000000E+00  0.00000000000E+00  0.54999999763E+01  0.55000000000E+01  0.51109989000E-03 0.  1.
     -623   -1    0    0    0    0  0.00000000000E+00  0.00000000000E+00  0.93234578044E-11  0.17124000000E+03  0.17124000000E+03 0.  1.
       11    1    1    2    0    0 -0.63647976216E-02  0.27505133158E-01  0.39817113785E+00  0.39917109018E+00  0.51109989000E-03 0.  1.
     -623    1    1    2    0    0  0.63942809245E-02 -0.23666702104E-02  0.54982222128E-02  0.17124000022E+03  0.17124000000E+03 0.  1.
     -611    1    1    2    0    0  0.31428677170E-01  0.84985736467E-01  0.30035377295E+01  0.30049042399E+01  0.51109989000E-03 0.  1.
      611    1    1    2    0    0 -0.31458160473E-01 -0.11012419941E+00  0.20927928867E+01  0.20959244459E+01  0.51109989000E-03 0. -1.
</event>
<event>
 6   3  0.2312675E+03  0.9118800E+02  0.7818608E-02  0.1180000E+00
       11   -1    0    0    0    0  0.00000000000E+00  0.00000000000E+00  0.54999999763E+01  0.55000000000E+01  0.51109989000E-03 0.  1.
     -623   -1    0    0    0    0  0.00000000000E+00  0.00000000000E+00  0.93234578044E-11  0.17124000000E+03  0.17124000000E+03 0.  1.
       11    1    1    2    0    0  0.57129026980E-01 -0.31002725777E-01  0.35193488310E+00  0.35788729776E+00  0.51109989000E-03 0.  1.
     -623    1    1    2    0    0 -0.46544167496E-02 -0.43452130987E-02  0.63424454813E-02  0.17124000024E+03  0.17124000000E+03 0.  1.
     -611    1    1    2    0    0 -0.39245981044E-01  0.27514936753E-01  0.38925007028E+01  0.38927958207E+01  0.51109989000E-03 0.  1.
      611    1    1    2    0    0 -0.13228629192E-01  0.78330021260E-02  0.12492219454E+01  0.12493166462E+01  0.51109989000E-03 0.  1.
</event>
<event>
 6   3  0.2312675E+03  0.9118800E+02  0.7818608E-02  0.1180000E+00
       11   -1    0    0    0    0  0.00000000000E+00  0.00000000000E+00  0.54999999763E+01  0.55000000000E+01  0.51109989000E-03 0. -1.
     -623   -1    0    0    0    0  0.00000000000E+00  0.00000000000E+00  0.93234578044E-11  0.17124000000E+03  0.17124000000E+03 0. -1.
       11    1    1    2    0    0  0.20076671616E-02  0.16272877513E-02  0.15327346557E-01  0.15552092091E-01  0.51109989000E-03 0. -1.
     -623    1    1    2    0    0 -0.25557867415E-02 -0.25281085237E-02  0.81333206144E-03  0.17124000004E+03  0.17124000000E+03 0. -1.
     -611    1    1    2    0    0  0.38772647351E-01 -0.98559394308E-02  0.24104920765E+01  0.24108240852E+01  0.51109989000E-03 0.  1.
      611    1    1    2    0    0 -0.38224527771E-01  0.10756760203E-01  0.30733672212E+01  0.30736237830E+01  0.51109989000E-03 0. -1.
</event>
<event>
 6   3  0.2312675E+03  0.9118800E+02  0.7818608E-02  0.1180000E+00
       11   -1    0    0    0    0  0.00000000000E+00  0.00000000000E+00  0.54999999763E+01  0.55000000000E+01  0.51109989000E-03 0.  1.
     -623   -1    0    0    0    0  0.00000000000E+00  0.00000000000E+00  0.93234578044E-11  0.17124000000E+03  0.17124000000E+03 0.  1.
       11    1    1    2    0    0 -0.85079832244E-01 -0.53895135933E-01  0.80713626787E+00  0.81339564768E+00  0.51109989000E-03 0.  1.
     -623    1    1    2    0    0 -0.72530819685E-02  0.98548626022E-03  0.74772849235E-02  0.17124000032E+03  0.17124000000E+03 0.  1.
     -611    1    1    2    0    0  0.62084572576E-01  0.32316667550E-01  0.29262092889E+01  0.29270462799E+01  0.51109989000E-03 0.  1.
      611    1    1    2    0    0  0.30248341638E-01  0.20592982124E-01  0.17591771347E+01  0.17595577528E+01  0.51109989000E-03 0. -1.
</event>
<event>
 6   3  0.2312675E+03  0.9118800E+02  0.7818608E-02  0.1180000E+00
       11   -1    0    0    0    0  0.00000000000E+00  0.00000000000E+00  0.54999999763E+01  0.55000000000E+01  0.51109989000E-03 0.  1.
     -623   -1    0    0    0    0  0.00000000000E+00  0.00000000000E+00  0.93234578044E-11  0.17124000000E+03  0.17124000000E+03 0. -1.
       11    1    1    2    0    0 -0.34411566722E-01  0.32015874963E-01  0.97159498055E+00  0.97273132962E+00  0.51109989000E-03 0.  1.
     -623    1    1    2    0    0  0.56265895363E-02 -0.20113777033E-01  0.15404986552E-02  0.17124000128E+03  0.17124000000E+03 0. -1.
     -611    1    1    2    0    0  0.40605225830E-01 -0.45843265631E-03  0.37976892496E+01  0.37979063827E+01  0.51109989000E-03 0.  1.
      611    1    1    2    0    0 -0.11820248644E-01 -0.11443665273E-01  0.72917524746E+00  0.72936100697E+00  0.51109989000E-03 0. -1.
</event>
<event>
 6   3  0.2312675E+03  0.9118800E+02  0.7818608E-02  0.1180000E+00
       11   -1    0    0    0    0  0.00000000000E+00  0.00000000000E+00  0.54999999763E+01  0.55000000000E+01  0.51109989000E-03 0. -1.
     -623   -1    0    0    0    0  0.00000000000E+00  0.00000000000E+00  0.93234578044E-11  0.17124000000E+03  0.17124000000E+03 0. -1.
       11    1    1    2    0    0  0.13152219638E-02 -0.28284551596E-02  0.18012602093E-01  0.18287838162E-01  0.51109989000E-03 0. -1.
     -623    1    1    2    0    0 -0.42198868715E-03  0.14766955938E-02  0.12699717771E-02  0.17124000001E+03  0.17124000000E+03 0. -1.
     -611    1    1    2    0    0 -0.35332952106E-01 -0.35962310243E-01  0.20549727311E+01  0.20555911296E+01  0.51109989000E-03 0.  1.
      611    1    1    2    0    0  0.34439718829E-01  0.37314069809E-01  0.34257446712E+01  0.34261210206E+01  0.51109989000E-03 0. -1.
</event>
<event>
 6   3  0.2312675E+03  0.9118800E+02  0.7818608E-02  0.1180000E+00
       11   -1    0    0    0    0  0.00000000000E+00  0.00000000000E+00  0.54999999763E+01  0.55000000000E+01  0.51109989000E-03 0.  1.
     -623   -1    0    0    0    0  0.00000000000E+00  0.00000000000E+00  0.93234578044E-11  0.17124000000E+03  0.17124000000E+03 0.  1.
       11    1    1    2    0    0 -0.59322085168E-01 -0.76358707635E-02  0.74510718284E+00  0.74750410798E+00  0.51109989000E-03 0.  1.
     -623    1    1    2    0    0  0.46848966001E-02  0.25750615150E-03  0.27171270505E-02  0.17124000009E+03  0.17124000000E+03 0.  1.
     -611    1    1    2    0    0  0.11290311524E-01  0.10917694632E-02  0.10014591679E+01  0.10015235341E+01  0.51109989000E-03 0.  1.
      611    1    1    2    0    0  0.43346877071E-01  0.62865951525E-02  0.37507165008E+01  0.37509722744E+01  0.51109989000E-03 0.  1.
</event>
<event>
 6   3  0.2312675E+03  0.9118800E+02  0.7818608E-02  0.1180000E+00
       11   -1    0    0    0    0  0.00000000000E+00  0.00000000000E+00  0.54999999763E+01  0.55000000000E+01  0.51109989000E-03 0. -1.
     -623   -1    0    0    0    0  0.00000000000E+00  0.00000000000E+00  0.93234578044E-11  0.17124000000E+03  0.17124000000E+03 0.  1.
       11    1    1    2    0    0  0.57067683093E-01 -0.27077843532E-02  0.78847445452E+00  0.79054176310E+00  0.51109989000E-03 0. -1.
     -623    1    1    2    0    0 -0.40154917195E-02  0.29265766770E-02  0.23663421648E-02  0.17124000009E+03  0.17124000000E+03 0.  1.
     -611    1    1    2    0    0 -0.30643762499E-01 -0.32532557757E-03  0.27094557951E+01  0.27096291467E+01  0.51109989000E-03 0. -1.
      611    1    1    2    0    0 -0.22408428910E-01  0.10653325362E-03  0.19997033876E+01  0.19998290049E+01  0.51109989000E-03 0. -1.
</event>
<event>
 6   3  0.2312675E+03  0.9118800E+02  0.7818608E-02  0.1180000E+00
       11   -1    0    0    0    0  0.00000000000E+00  0.00000000000E+00  0.54999999763E+01  0.55000000000E+01  0.51109989000E-03 0.  1.
     -623   -1    0    0    0    0  0.00000000000E+00  0.00000000000E+00  0.93234578044E-11  0.17124000000E+03  0.17124000000E+03 0.  1.
       11    1    1    2    0    0  0.23923795995E-02 -0.62544347507E-02  0.16845693954E-02  0.69239028982E-02  0.51109989000E-03 0.  1.
     -623    1    1    2    0    0  0.92520393476E-02  0.87775494117E-01  0.10047032937E-01  0.17124002304E+03  0.17124000000E+03 0.  1.
     -611    1    1    2    0    0  0.47735610853E-01 -0.46551255386E-01  0.51393845092E+00  0.51824579157E+00  0.51109989000E-03 0. -1.
      611    1    1    2    0    0 -0.59380029800E-01 -0.34969803979E-01  0.49743299230E+01  0.49748072645E+01  0.51109989000E-03 0.  1.
</event>
<event>
 6   3  0.2312675E+03  0.9118800E+02  0.7818608E-02  0.1180000E+00
       11   -1    0    0    0    0  0.00000000000E+00  0.00000000000E+00  0.54999999763E+01  0.55000000000E+01  0.51109989000E-03 0.  1.
     -623   -1    0    0    0    0  0.00000000000E+00  0.00000000000E+00  0.93234578044E-11  0.17124000000E+03  0.17124000000E+03 0. -1.
       11    1    1    2    0    0 -0.16459284640E-02  0.14419751942E-01  0.86818690309E+00  0.86830835436E+00  0.51109989000E-03 0.  1.
     -623    1    1    2    0    0  0.28198609683E-01 -0.16646914790E-01  0.66015984576E-03  0.17124000313E+03  0.17124000000E+03 0. -1.
     -611    1    1    2    0    0  0.19195231643E-01  0.54325591557E-02  0.75285858969E+00  0.75312302243E+00  0.51109989000E-03 0. -1.
      611    1    1    2    0    0 -0.45747912862E-01 -0.32053963081E-02  0.38782943236E+01  0.38785654910E+01  0.51109989000E-03 0.  1.
</event>
<event>
 6   3  0.2312675E+03  0.9118800E+02  0.7818608E-02  0.1180000E+00
       11   -1    0    0    0    0  0.00000000000E+00  0.00000000000E+00  0.54999999763E+01  0.55000000000E+01  0.51109989000E-03 0.  1.
     -623   -1    0    0    0    0  0.00000000000E+00  0.00000000000E+00  0.93234578044E-11  0.17124000000E+03  0.17124000000E+03 0.  1.
       11    1    1    2    0    0  0.17359142864E-02  0.71659982611E-02  0.30030489852E-01  0.30926630488E-01  0.51109989000E-03 0.  1.
     -623    1    1    2    0    0 -0.31788169392E-02  0.14493936140E-03  0.18221945180E-02  0.17124000004E+03  0.17124000000E+03 0.  1.
     -611    1    1    2    0    0 -0.40266088017E-01 -0.28133770579E-01  0.36409586149E+01  0.36412899862E+01  0.51109989000E-03 0.  1.
      611    1    1    2    0    0  0.41708990670E-01  0.20822832956E-01  0.18271886770E+01  0.18277833440E+01  0.51109989000E-03 0. -1.
</event>
<event>
 6   3  0.2312675E+03  0.9118800E+02  0.7818608E-02  0.1180000E+00
       11   -1    0    0    0    0  0.00000000000E+00  0.00000000000E+00  0.54999999763E+01  0.55000000000E+01  0.51109989000E-03 0.  1.
     -623   -1    0    0    0    0  0.00000000000E+00  0.00000000000E+00  0.93234578044E-11  0.17124000000E+03  0.17124000000E+03 0. -1.
       11    1    1    2    0    0  0.20198434091E-01 -0.23599706470E-01  0.87613487612E+00  0.87668552244E+00  0.51109989000E-03 0.  1.
     -623    1    1    2    0    0 -0.11611809480E-02 -0.16882964335E-02  0.13558420087E-02  0.17124000002E+03  0.17124000000E+03 0. -1.
     -611    1    1    2    0    0  0.25467826922E-01 -0.30150756325E-03  0.69002376644E+00  0.69049385268E+00  0.51109989000E-03 0. -1.
      611    1    1    2    0    0 -0.44505080065E-01  0.25589510467E-01  0.39324854916E+01  0.39328206072E+01  0.51109989000E-03 0.  1.
</event>
<event>
 6   3  0.2312675E+03  0.9118800E+02  0.7818608E-02  0.1180000E+00
       11   -1    0    0    0    0  0.00000000000E+00  0.00000000000E+00  0.54999999763E+01  0.55000000000E+01  0.51109989000E-03 0.  1.
     -623   -1    0    0    0    0  0.00000000000E+00  0.00000000000E+00  0.93234578044E-11  0.17124000000E+03  0.17124000000E+03 0. -1.
       11    1    1    2    0    0 -0.34160710223E-01  0.11669106319E+00  0.44473285271E+00  0.46105458446E+00  0.51109989000E-03 0.  1.
     -623    1    1    2    0    0  0.16116887066E-01 -0.50441235011E-02  0.18723102688E-01  0.17124000186E+03  0.17124000000E+03 0. -1.
     -611    1    1    2    0    0  0.48735718496E-01 -0.11207415513E+00  0.43450864125E+01  0.43468048012E+01  0.51109989000E-03 0.  1.
      611    1    1    2    0    0 -0.30691895339E-01  0.42721544675E-03  0.69145760841E+00  0.69213875805E+00  0.51109989000E-03 0. -1.
</event>
<event>
 6   3  0.2312675E+03  0.9118800E+02  0.7818608E-02  0.1180000E+00
       11   -1    0    0    0    0  0.00000000000E+00  0.00000000000E+00  0.54999999763E+01  0.55000000000E+01  0.51109989000E-03 0.  1.
     -623   -1    0    0    0    0  0.00000000000E+00  0.00000000000E+00  0.93234578044E-11  0.17124000000E+03  0.17124000000E+03 0.  1.
       11    1    1    2    0    0 -0.17626015538E-02  0.20837234094E-01  0.21487475200E+00  0.21589052169E+00  0.51109989000E-03 0.  1.
     -623    1    1    2    0    0  0.15057566480E-01  0.55547203216E-02  0.15331989295E-02  0.17124000076E+03  0.17124000000E+03 0.  1.
     -611    1    1    2    0    0 -0.40299305933E-01 -0.92253028815E-02  0.32912589649E+01  0.32915186428E+01  0.51109989000E-03 0.  1.
      611    1    1    2    0    0  0.27004341007E-01 -0.17166651534E-01  0.19923330604E+01  0.19925900766E+01  0.51109989000E-03 0. -1.
</event>
<event>
 6   3  0.2312675E+03  0.9118800E+02  0.7818608E-02  0.1180000E+00
       11   -1    0    0    0    0  0.00000000000E+00  0.00000000000E+00  0.54999999763E+01  0.55000000000E+01  0.51109989000E-03 0. -1.
     -623   -1    0    0    0    0  0.00000000000E+00  0.00000000000E+00  0.93234578044E-11  0.17124000000E+03  0.17124000000E+03 0.  1.
       11    1    1    2    0    0  0.98684090845E-01  0.48216251782E-01  0.10778820254E+01  0.10834635566E+01  0.51109989000E-03 0. -1.
     -623    1    1    2    0    0  0.20129747254E-01 -0.78006882311E-01  0.72998217949E-02  0.17124001911E+03  0.17124000000E+03 0.  1.
     -611    1    1    2    0    0 -0.50556995192E-01  0.12558121478E-01  0.18602767246E+01  0.18610060369E+01  0.51109989000E-03 0.  1.
      611    1    1    2    0    0 -0.68256842954E-01  0.17232509063E-01  0.25545414063E+01  0.25555113018E+01  0.51109989000E-03 0. -1.
</event>
<event>
 6   3  0.2312675E+03  0.9118800E+02  0.7818608E-02  0.1180000E+00
       11   -1    0    0    0    0  0.00000000000E+00  0.00000000000E+00  0.54999999763E+01  0.55000000000E+01  0.51109989000E-03 0.  1.
     -623   -1    0    0    0    0  0.00000000000E+00  0.00000000000E+00  0.93234578044E-11  0.17124000000E+03  0.17124000000E+03 0.  1.
       11    1    1    2    0    0  0.68403835760E-01 -0.48499239700E-01  0.33119965337E+00  0.34165001480E+00  0.51109989000E-03 0.  1.
     -623    1    1    2    0    0 -0.15374012735E-01 -0.14555128854E-01  0.11110149964E-01  0.17124000167E+03  0.17124000000E+03 0.  1.
     -611    1    1    2    0    0 -0.29759869386E-01  0.34935485492E-01  0.28767088919E+01  0.28770749813E+01  0.51109989000E-03 0.  1.
      611    1    1    2    0    0 -0.23269953484E-01  0.28118882879E-01  0.22809812660E+01  0.22812733197E+01  0.51109989000E-03 0. -1.
</event>
<event>
 6   3  0.2312675E+03  0.9118800E+02  0.7818608E-02  0.1180000E+00
       11   -1    0    0    0    0  0.00000000000E+00  0.00000000000E+00  0.54999999763E+01  0.55000000000E+01  0.51109989000E-03 0.  1.
     -623   -1    0    0    0    0  0.00000000000E+00  0.00000000000E+00  0.93234578044E-11  0.17124000000E+03  0.17124000000E+03 0. -1.
       11    1    1    2    0    0 -0.10717086081E-01  0.66731464500E-02  0.10873313876E-01  0.16669642928E-01  0.51109989000E-03 0.  1.
     -623    1    1    2    0    0  0.10667423537E-01 -0.60250189777E-02  0.69854808691E-02  0.17124000058E+03  0.17124000000E+03 0. -1.
     -611    1    1    2    0    0  0.42406999954E-01 -0.38350460396E-01  0.25613553265E+01  0.25619934585E+01  0.51109989000E-03 0.  1.
      611    1    1    2    0    0 -0.42357337410E-01  0.37702332923E-01  0.29207858550E+01  0.29213363178E+01  0.51109989000E-03 0. -1.
</event>
<event>
 6   3  0.2312675E+03  0.9118800E+02  0.7818608E-02  0.1180000E+00
       11   -1    0    0    0    0  0.00000000000E+00  0.00000000000E+00  0.54999999763E+01  0.55000000000E+01  0.51109989000E-03 0. -1.
     -623   -1    0    0    0    0  0.00000000000E+00  0.00000000000E+00  0.93234578044E-11  0.17124000000E+03  0.17124000000E+03 0. -1.
       11    1    1    2    0    0 -0.56750898812E-01  0.37553176930E-01  0.61455624945E+00  0.61831266409E+00  0.51109989000E-03 0. -1.
     -623    1    1    2    0    0 -0.18616375738E-01 -0.22365807838E-01  0.43759112150E-02  0.17124000253E+03  0.17124000000E+03 0. -1.
     -611    1    1    2    0    0  0.15857242690E-01 -0.76463414567E-02  0.11432900217E+01  0.11434256659E+01  0.51109989000E-03 0.  1.
      611    1    1    2    0    0  0.59510031861E-01 -0.75410276357E-02  0.37377777940E+01  0.37382591415E+01  0.51109989000E-03 0. -1.
</event>
<event>
 6   3  0.2312675E+03  0.9118800E+02  0.7818608E-02  0.1180000E+00
       11   -1    0    0    0    0  0.00000000000E+00  0.00000000000E+00  0.54999999763E+01  0.55000000000E+01  0.51109989000E-03 0.  1.
     -623   -1    0    0    0    0  0.00000000000E+00  0.00000000000E+00  0.93234578044E-11  0.17124000000E+03  0.17124000000E+03 0.  1.
       11    1    1    2    0    0 -0.22797391850E-01 -0.17509281231E-01  0.32667668738E+00  0.32793934699E+00  0.51109989000E-03 0.  1.
     -623    1    1    2    0    0 -0.50501125625E-01 -0.99634672645E-01  0.33105488839E-02  0.17124003646E+03  0.17124000000E+03 0.  1.
     -611    1    1    2    0    0  0.89667193874E-02  0.23401375880E-02  0.73715792260E+00  0.73721634707E+00  0.51109989000E-03 0. -1.
      611    1    1    2    0    0  0.64331798088E-01  0.11480381629E+00  0.44328548174E+01  0.44348078414E+01  0.51109989000E-03 0.  1.
</event>
<event>
 6   3  0.2312675E+03  0.9118800E+02  0.7818608E-02  0.1180000E+00
       11   -1    0    0    0    0  0.00000000000E+00  0.00000000000E+00  0.54999999763E+01  0.55000000000E+01  0.51109989000E-03 0. -1.
     -623   -1    0    0    0    0  0.00000000000E+00  0.00000000000E+00  0.93234578044E-11  0.17124000000E+03  0.17124000000E+03 0.  1.
       11    1    1    2    0    0  0.19052020883E-01  0.38594768088E-02  0.41398155968E+00  0.41443801472E+00  0.51109989000E-03 0. -1.
     -623    1    1    2    0    0  0.57693775705E-01  0.21254147025E-01  0.11087888788E-02  0.17124001104E+03  0.17124000000E+03 0.  1.
     -611    1    1    2    0    0 -0.22227634898E-01 -0.69911514653E-02  0.14534150375E+01  0.14536018975E+01  0.51109989000E-03 0. -1.
      611    1    1    2    0    0 -0.54518161803E-01 -0.18122472405E-01  0.36314945977E+01  0.36319490536E+01  0.51109989000E-03 0. -1.
</event>
<event>
 6   3  0.2312675E+03  0.9118800E+02  0.7818608E-02  0.1180000E+00
       11   -1    0    0    0    0  0.00000000000E+00  0.00000000000E+00  0.54999999763E+01  0.55000000000E+01  0.51109989000E-03 0. -1.
     -623   -1    0    0    0    0  0.00000000000E+00  0.00000000000E+00  0.93234578044E-11  0.17124000000E+03  0.17124000000E+03 0. -1.
       11    1    1    2    0    0 -0.11410212349E-01 -0.41536469112E-02  0.68756889809E-01  0.69822753081E-01  0.51109989000E-03 0. -1.
     -623    1    1    2    0    0  0.14980077087E-01 -0.66697964476E-02  0.17960166450E-02  0.17124000079E+03  0.17124000000E+03 0. -1.
     -611    1    1    2    0    0 -0.42997511686E-01  0.89743747330E-02  0.37885150992E+01  0.37887697533E+01  0.51109989000E-03 0.  1.
      611    1    1    2    0    0  0.39427646948E-01  0.18490686258E-02  0.16409319705E+01  0.16414066990E+01  0.51109989000E-03 0. -1.
</event>
<event>
 6   3  0.2312675E+03  0.9118800E+02  0.7818608E-02  0.1180000E+00
       11   -1    0    0    0    0  0.00000000000E+00  0.00000000000E+00  0.54999999763E+01  0.55000000000E+01  0.51109989000E-03 0. -1.
     -623   -1    0    0    0    0  0.00000000000E+00  0.00000000000E+00  0.93234578044E-11  0.17124000000E+03  0.17124000000E+03 0. -1.
       11    1    1    2    0    0 -0.25394003694E-02 -0.57841629203E-03  0.19208438087E-01  0.19390936968E-01  0.51109989000E-03 0. -1.
     -623    1    1    2    0    0  0.17005769013E-02  0.40198218137E-03  0.68899020535E-03  0.17124000001E+03  0.17124000000E+03 0. -1.
     -611    1    1    2    0    0  0.32170898771E-01  0.19445826897E-01  0.26092854202E+01  0.26095562404E+01  0.51109989000E-03 0. -1.
      611    1    1    2    0    0 -0.31332075303E-01 -0.19269392786E-01  0.28708171278E+01  0.28710528123E+01  0.51109989000E-03 0.  1.
</event>
<event>
 6   3  0.2312675E+03  0.9118800E+02  0.7818608E-02  0.1180000E+00
       11   -1    0    0    0    0  0.00000000000E+00  0.00000000000E+00  0.54999999763E+01  0.55000000000E+01  0.51109989000E-03 0. -1.
     -623   -1    0    0    0    0  0.00000000000E+00  0.00000000000E+00  0.93234578044E-11  0.17124000000E+03  0.17124000000E+03 0.  1.
       11    1    1    2    0    0 -0.69504593297E-01 -0.25517331891E-01  0.78333982318E+00  0.78683134313E+00  0.51109989000E-03 0. -1.
     -623    1    1    2    0    0  0.43236137223E-02  0.12712049849E-01  0.39606994684E-02  0.17124000057E+03  0.17124000000E+03 0.  1.
     -611    1    1    2    0    0  0.33898779976E-01  0.59101043286E-02  0.24840833772E+01  0.24843217470E+01  0.51109989000E-03 0. -1.
      611    1    1    2    0    0  0.31282199608E-01  0.68951777154E-02  0.22286160771E+01  0.22288463383E+01  0.51109989000E-03 0.  1.
</event>
<event>
 6   3  0.2312675E+03  0.9118800E+02  0.7818608E-02  0.1180000E+00
       11   -1    0    0    0    0  0.00000000000E+00  0.00000000000E+00  0.54999999763E+01  0.55000000000E+01  0.51109989000E-03 0. -1.
     -623   -1    0    0    0    0  0.00000000000E+00  0.00000000000E+00  0.93234578044E-11  0.17124000000E+03  0.17124000000E+03 0. -1.
       11    1    1    2    0    0 -0.90020354796E-02  0.21902645932E-01  0.64210035346E+00  0.64253707106E+00  0.51109989000E-03 0. -1.
     -623    1    1    2    0    0  0.11551293795E-01  0.27477258020E-02  0.16155611784E-02  0.17124000042E+03  0.17124000000E+03 0. -1.
     -611    1    1    2    0    0  0.49254355243E-01  0.34125597152E-03  0.23940977582E+01  0.23946044444E+01  0.51109989000E-03 0.  1.
      611    1    1    2    0    0 -0.51803613558E-01 -0.24991627706E-01  0.24621863034E+01  0.24628580653E+01  0.51109989000E-03 0. -1.
</event>
<event>
 6   3  0.2312675E+03  0.9118800E+02  0.7818608E-02  0.1180000E+00
       11   -1    0    0    0    0  0.00000000000E+00  0.00000000000E+00  0.54999999763E+01  0.55000000000E+01  0.51109989000E-03 0. -1.
     -623   -1    0    0    0    0  0.00000000000E+00  0.00000000000E+00  0.93234578044E-11  0.17124000000E+03  0.17124000000E+03 0. -1.
       11    1    1    2    0    0 -0.13966452057E-01  0.47810247742E-01  0.68552571842E+00  0.68733300038E+00  0.51109989000E-03 0. -1.
     -623    1    1    2    0    0  0.32606986984E-01 -0.24284335116E-01  0.34677419470E-02  0.17124000486E+03  0.17124000000E+03 0. -1.
     -611    1    1    2    0    0 -0.66551747780E-01 -0.95425246083E-02  0.18241999832E+01  0.18254385870E+01  0.51109989000E-03 0.  1.
      611    1    1    2    0    0  0.47911212853E-01 -0.13983388017E-01  0.29868065327E+01  0.29872235512E+01  0.51109989000E-03 0. -1.
</event>
<event>
 6   3  0.2312675E+03  0.9118800E+02  0.7818608E-02  0.1180000E+00
       11   -1    0    0    0    0  0.00000000000E+00  0.00000000000E+00  0.54999999763E+01  0.55000000000E+01  0.51109989000E-03 0.  1.
     -623   -1    0    0    0    0  0.00000000000E+00  0.00000000000E+00  0.93234578044E-11  0.17124000000E+03  0.17124000000E+03 0.  1.
       11    1    1    2    0    0  0.34812056375E-01 -0.17501204860E-01  0.43340499378E+00  0.43515321589E+00  0.51109989000E-03 0.  1.
     -623    1    1    2    0    0 -0.40443162737E-01 -0.87300365809E-02  0.42650584638E-02  0.17124000505E+03  0.17124000000E+03 0.  1.
     -611    1    1    2    0    0  0.58986366565E-01  0.67044841931E-01  0.23904503900E+01  0.23921178337E+01  0.51109989000E-03 0. -1.
      611    1    1    2    0    0 -0.53355260203E-01 -0.40813600491E-01  0.26718795340E+01  0.26727238988E+01  0.51109989000E-03 0.  1.
</event>
<event>
 6   3  0.2312675E+03  0.9118800E+02  0.7818608E-02  0.1180000E+00
       11   -1    0    0    0    0  0.00000000000E+00  0.00000000000E+00  0.54999999763E+01  0.55000000000E+01  0.51109989000E-03 0. -1.
     -623   -1    0    0    0    0  0.00000000000E+00  0.00000000000E+00  0.93234578044E-11  0.17124000000E+03  0.17124000000E+03 0. -1.
       11    1    1    2    0    0  0.81232911451E-01 -0.41200432930E-01  0.90003349768E+00  0.90463076431E+00  0.51109989000E-03 0. -1.
     -623    1    1    2    0    0 -0.14678009272E-02 -0.70259766093E-02  0.55483414741E-02  0.17124000024E+03  0.17124000000E+03 0. -1.
     -611    1    1    2    0    0 -0.55042861976E-01  0.31446291557E-01  0.32593400106E+01  0.32599564647E+01  0.51109989000E-03 0. -1.
      611    1    1    2    0    0 -0.24722248553E-01  0.16780117985E-01  0.13350781268E+01  0.13354125310E+01  0.51109989000E-03 0.  1.
</event>
<event>
 6   3  0.2312675E+03  0.9118800E+02  0.7818608E-02  0.1180000E+00
       11   -1    0    0    0    0  0.00000000000E+00  0.00000000000E+00  0.54999999763E+01  0.55000000000E+01  0.51109989000E-03 0. -1.
     -623   -1    0    0    0    0  0.00000000000E+00  0.00000000000E+00  0.93234578044E-11  0.17124000000E+03  0.17124000000E+03 0. -1.
       11    1    1    2    0    0 -0.75981663951E-01 -0.54682429150E-01  0.84361372270E+00  0.84879193897E+00  0.51109989000E-03 0. -1.
     -623    1    1    2    0    0  0.13459451208E-01  0.72054342967E-02  0.58708655828E-02  0.17124000078E+03  0.17124000000E+03 0. -1.
     -611    1    1    2    0    0  0.42643829437E-01  0.38055865640E-01  0.29917188344E+01  0.29922647929E+01  0.51109989000E-03 0. -1.
      611    1    1    2    0    0  0.19878383305E-01  0.94211292136E-02  0.16587965536E+01  0.16589424870E+01  0.51109989000E-03 0.  1.
</event>
<event>
 6   3  0.2312675E+03  0.9118800E+02  0.7818608E-02  0.1180000E+00
       11   -1    0    0    0    0  0.00000000000E+00  0.00000000000E+00  0.54999999763E+01  0.55000000000E+01  0.51109989000E-03 0. -1.
     -623   -1    0    0    0    0  0.00000000000E+00  0.00000000000E+00  0.93234578044E-11  0.17124000000E+03  0.17124000000E+03 0. -1.
       11    1    1    2    0    0  0.37720417197E-02 -0.18935162944E-01  0.35526974229E+00  0.35579435030E+00  0.51109989000E-03 0. -1.
     -623    1    1    2    0    0 -0.35891440903E-02 -0.39981997874E-02  0.16169649774E-02  0.17124000009E+03  0.17124000000E+03 0. -1.
     -611    1    1    2    0    0 -0.37117460929E-01  0.41016084973E-01  0.18271443355E+01  0.18279815943E+01  0.51109989000E-03 0. -1.
      611    1    1    2    0    0  0.36934563299E-01 -0.18082722242E-01  0.33159689335E+01  0.33162239634E+01  0.51109989000E-03 0.  1.
</event>
<event>
 6   3  0.2312675E+03  0.9118800E+02  0.7818608E-02  0.1180000E+00
       11   -1    0    0    0    0  0.00000000000E+00  0.00000000000E+00  0.54999999763E+01  0.55000000000E+01  0.51109989000E-03 0.  1.
     -623   -1    0    0    0    0  0.00000000000E+00  0.00000000000E+00  0.93234578044E-11  0.17124000000E+03  0.17124000000E+03 0.  1.
       11    1    1    2    0    0 -0.17143465717E-01  0.78919512681E-02  0.67558983376E-01  0.70147407433E-01  0.51109989000E-03 0.  1.
     -623    1    1    2    0    0 -0.44741097493E-01 -0.49000985998E-01  0.31127473218E-02  0.17124001288E+03  0.17124000000E+03 0.  1.
     -611    1    1    2    0    0  0.19287937537E-01  0.12014614458E-01  0.18537546749E+01  0.18538940184E+01  0.51109989000E-03 0. -1.
      611    1    1    2    0    0  0.42596625678E-01  0.29094420275E-01  0.35755735711E+01  0.35759456905E+01  0.51109989000E-03 0.  1.
</event>
<event>
 6   3  0.2312675E+03  0.9118800E+02  0.7818608E-02  0.1180000E+00
       11   -1    0    0    0    0  0.00000000000E+00  0.00000000000E+00  0.54999999763E+01  0.55000000000E+01  0.51109989000E-03 0. -1.
     -623   -1    0    0    0    0  0.00000000000E+00  0.00000000000E+00  0.93234578044E-11  0.17124000000E+03  0.17124000000E+03 0. -1.
       11    1    1    2    0    0  0.19203087087E-01 -0.12695330955E-01  0.23630984921E+00  0.23742901263E+00  0.51109989000E-03 0. -1.
     -623    1    1    2    0    0 -0.32532010032E-02 -0.53478508642E-02  0.19124966018E-02  0.17124000013E+03  0.17124000000E+03 0. -1.
     -611    1    1    2    0    0  0.28363960433E-01 -0.16560142690E-01  0.14081907871E+01  0.14085738556E+01  0.51109989000E-03 0.  1.
      611    1    1    2    0    0 -0.44313846516E-01  0.34603324509E-01  0.38535868434E+01  0.38539970067E+01  0.51109989000E-03 0. -1.
</event>
<event>
 6   3  0.2312675E+03  0.9118800E+02  0.7818608E-02  0.1180000E+00
       11   -1    0    0    0    0  0.00000000000E+00  0.00000000000E+00  0.54999999763E+01  0.55000000000E+01  0.51109989000E-03 0.  1.
     -623   -1    0    0    0    0  0.00000000000E+00  0.00000000000E+00  0.93234578044E-11  0.17124000000E+03  0.17124000000E+03 0.  1.
       11    1    1    2    0    0  0.59385603370E-01 -0.20178121371E-01  0.99880576230E+00  0.10007732103E+01  0.51109989000E-03 0.  1.
     -623    1    1    2    0    0  0.27068082484E-02  0.85291410209E-03  0.25477237715E-02  0.17124000004E+03  0.17124000000E+03 0.  1.
     -611    1    1    2    0    0 -0.35788370787E-01 -0.49624893330E-02  0.24699386385E+01  0.24702029417E+01  0.51109989000E-03 0. -1.
      611    1    1    2    0    0 -0.26304040831E-01  0.24287696601E-01  0.20287078517E+01  0.20290238055E+01  0.51109989000E-03 0.  1.
</event>
<event>
 6   3  0.2312675E+03  0.9118800E+02  0.7818608E-02  0.1180000E+00
       11   -1    0    0    0    0  0.00000000000E+00  0.00000000000E+00  0.54999999763E+01  0.55000000000E+01  0.51109989000E-03 0.  1.
     -623   -1    0    0    0    0  0.00000000000E+00  0.00000000000E+00  0.93234578044E-11  0.17124000000E+03  0.17124000000E+03 0.  1.
       11    1    1    2    0    0 -0.91833302605E-01  0.29766571579E-01  0.91581183494E+00  0.92088597692E+00  0.51109989000E-03 0.  1.
     -623    1    1    2    0    0  0.16529094602E-01 -0.21491714234E-02  0.57830682136E-02  0.17124000091E+03  0.17124000000E+03 0.  1.
     -611    1    1    2    0    0  0.46346720341E-01 -0.13397235494E-01  0.27806717517E+01  0.27810902819E+01  0.51109989000E-03 0.  1.
      611    1    1    2    0    0  0.28957487665E-01 -0.14220164663E-01  0.17977333216E+01  0.17980228325E+01  0.51109989000E-03 0. -1.
</event>
<event>
 6   3  0.2312675E+03  0.9118800E+02  0.7818608E-02  0.1180000E+00
       11   -1    0    0    0    0  0.00000000000E+00  0.00000000000E+00  0.54999999763E+01  0.55000000000E+01  0.51109989000E-03 0. -1.
     -623   -1    0    0    0    0  0.00000000000E+00  0.00000000000E+00  0.93234578044E-11  0.17124000000E+03  0.17124000000E+03 0. -1.
       11    1    1    2    0    0 -0.11040115148E-01  0.85758329181E-02  0.80098181728E-01  0.81310571219E-01  0.51109989000E-03 0. -1.
     -623    1    1    2    0    0 -0.16063816890E-03 -0.12079305000E-01  0.30327733461E-02  0.17124000045E+03  0.17124000000E+03 0. -1.
     -611    1    1    2    0    0  0.71371594930E-01 -0.20419723227E-01  0.32752418532E+01  0.32760830770E+01  0.51109989000E-03 0. -1.
      611    1    1    2    0    0 -0.60170841613E-01  0.23923195309E-01  0.21416271680E+01  0.21426058988E+01  0.51109989000E-03 0.  1.
</event>
<event>
 6   3  0.2312675E+03  0.9118800E+02  0.7818608E-02  0.1180000E+00
       11   -1    0    0    0    0  0.00000000000E+00  0.00000000000E+00  0.54999999763E+01  0.55000000000E+01  0.51109989000E-03 0. -1.
     -623   -1    0    0    0    0  0.00000000000E+00  0.00000000000E+00  0.93234578044E-11  0.17124000000E+03  0.17124000000E+03 0. -1.
       11    1    1    2    0    0  0.21716802068E-02  0.51906623819E-03  0.33976427327E-02  0.40976607860E-02  0.51109989000E-03 0. -1.
     -623    1    1    2    0    0 -0.43638678457E-02  0.90822688993E-03  0.14974263799E-02  0.17124000006E+03  0.17124000000E+03 0. -1.
     -611    1    1    2    0    0 -0.37371116875E-01  0.20754831827E-01  0.36034879493E+01  0.36037415315E+01  0.51109989000E-03 0. -1.
      611    1    1    2    0    0  0.39563304514E-01 -0.22182124955E-01  0.18916169579E+01  0.18921607432E+01  0.51109989000E-03 0.  1.
</event>
<event>
 6   3  0.2312675E+03  0.9118800E+02  0.7818608E-02  0.1180000E+00
       11   -1    0    0    0    0  0.00000000000E+00  0.00000000000E+00  0.54999999763E+01  0.55000000000E+01  0.51109989000E-03 0.  1.
     -623   -1    0    0    0    0  0.00000000000E+00  0.00000000000E+00  0.93234578044E-11  0.17124000000E+03  0.17124000000E+03 0.  1.
       11    1    1    2    0    0  0.47174996235E-01  0.31158720232E-04  0.10752814135E+01  0.10763158741E+01  0.51109989000E-03 0.  1.
     -623    1    1    2    0    0 -0.28105968143E-02  0.13781797067E-02  0.12573369130E-02  0.17124000003E+03  0.17124000000E+03 0.  1.
     -611    1    1    2    0    0 -0.17088353809E-01 -0.21836175886E-03  0.17009664549E+01  0.17010523805E+01  0.51109989000E-03 0.  1.
      611    1    1    2    0    0 -0.27276045592E-01 -0.11909766675E-02  0.27224947689E+01  0.27226317101E+01  0.51109989000E-03 0.  1.
</event>
<event>
 6   3  0.2312675E+03  0.9118800E+02  0.7818608E-02  0.1180000E+00
       11   -1    0    0    0    0  0.00000000000E+00  0.00000000000E+00  0.54999999763E+01  0.55000000000E+01  0.51109989000E-03 0.  1.
     -623   -1    0    0    0    0  0.00000000000E+00  0.00000000000E+00  0.93234578044E-11  0.17124000000E+03  0.17124000000E+03 0.  1.
       11    1    1    2    0    0 -0.94139306696E-01  0.17450100591E-01  0.87867227219E+00  0.88387325914E+00  0.51109989000E-03 0.  1.
     -623    1    1    2    0    0  0.42689782801E-02  0.10577315533E-01  0.61616888279E-02  0.17124000049E+03  0.17124000000E+03 0.  1.
     -611    1    1    2    0    0  0.28745311439E-01 -0.89445801879E-02  0.14556900428E+01  0.14560013943E+01  0.51109989000E-03 0.  1.
      611    1    1    2    0    0  0.61125016924E-01 -0.19082835920E-01  0.31594759698E+01  0.31601248531E+01  0.51109989000E-03 0.  1.
</event>
<event>
 6   3  0.2312675E+03  0.9118800E+02  0.7818608E-02  0.1180000E+00
       11   -1    0    0    0    0  0.00000000000E+00  0.00000000000E+00  0.54999999763E+01  0.55000000000E+01  0.51109989000E-03 0.  1.
     -623   -1    0    0    0    0  0.00000000000E+00  0.00000000000E+00  0.93234578044E-11  0.17124000000E+03  0.17124000000E+03 0. -1.
       11    1    1    2    0    0  0.11083401768E-01 -0.14962815549E-02  0.27574717569E-01  0.29760828708E-01  0.51109989000E-03 0.  1.
     -623    1    1    2    0    0 -0.34950269518E-01  0.80733764388E-02  0.70423622501E-02  0.17124000390E+03  0.17124000000E+03 0. -1.
     -611    1    1    2    0    0  0.12107356512E+00 -0.16203029704E-01  0.21973091028E+01  0.22007019109E+01  0.51109989000E-03 0. -1.
      611    1    1    2    0    0 -0.97206697375E-01  0.96259348198E-02  0.32680737937E+01  0.32695333585E+01  0.51109989000E-03 0.  1.
</event>
<event>
 6   3  0.2312675E+03  0.9118800E+02  0.7818608E-02  0.1180000E+00
       11   -1    0    0    0    0  0.00000000000E+00  0.00000000000E+00  0.54999999763E+01  0.55000000000E+01  0.51109989000E-03 0.  1.
     -623   -1    0    0    0    0  0.00000000000E+00  0.00000000000E+00  0.93234578044E-11  0.17124000000E+03  0.17124000000E+03 0. -1.
       11    1    1    2    0    0  0.84987015718E-02 -0.36902437195E-02  0.63729774499E-01  0.64401795068E-01  0.51109989000E-03 0.  1.
     -623    1    1    2    0    0 -0.27153344873E-02  0.58646090919E-02  0.20187524422E-02  0.17124000013E+03  0.17124000000E+03 0. -1.
     -611    1    1    2    0    0  0.41358433167E-01  0.69411769791E-02  0.80055866876E+00  0.80165649956E+00  0.51109989000E-03 0. -1.
      611    1    1    2    0    0 -0.47141800251E-01 -0.91155423515E-02  0.46336927805E+01  0.46339415715E+01  0.51109989000E-03 0.  1.
</event>
<event>
 6   3  0.2312675E+03  0.9118800E+02  0.7818608E-02  0.1180000E+00
       11   -1    0    0    0    0  0.00000000000E+00  0.00000000000E+00  0.54999999763E+01  0.55000000000E+01  0.51109989000E-03 0.  1.
     -623   -1    0    0    0    0  0.00000000000E+00  0.00000000000E+00  0.93234578044E-11  0.17124000000E+03  0.17124000000E+03 0.  1.
       11    1    1    2    0    0  0.17999655786E-01  0.24988372359E-01  0.10722431456E+01  0.10726854296E+01  0.51109989000E-03 0.  1.
     -623    1    1    2    0    0  0.27428308723E-01  0.16652576322E-02  0.75802416699E-03  0.17124000221E+03  0.17124000000E+03 0.  1.
     -611    1    1    2    0    0 -0.14213194332E-01 -0.83795091195E-02  0.13484946793E+01  0.13485957113E+01  0.51109989000E-03 0.  1.
      611    1    1    2    0    0 -0.31214770177E-01 -0.18274120871E-01  0.30785041272E+01  0.30787166527E+01  0.51109989000E-03 0.  1.
</event>
<event>
 6   3  0.2312675E+03  0.9118800E+02  0.7818608E-02  0.1180000E+00
       11   -1    0    0    0    0  0.00000000000E+00  0.00000000000E+00  0.54999999763E+01  0.55000000000E+01  0.51109989000E-03 0. -1.
     -623   -1    0    0    0    0  0.00000000000E+00  0.00000000000E+00  0.93234578044E-11  0.17124000000E+03  0.17124000000E+03 0. -1.
       11    1    1    2    0    0  0.99033947156E-01 -0.76161287630E-01  0.79992272108E+00  0.80962021056E+00  0.51109989000E-03 0. -1.
     -623    1    1    2    0    0  0.12887655039E+00 -0.16657905397E-01  0.16208032432E-01  0.17124005007E+03  0.17124000000E+03 0. -1.
     -611    1    1    2    0    0 -0.19156890478E+00  0.78135592045E-01  0.39297754808E+01  0.39352178347E+01  0.51109989000E-03 0. -1.
      611    1    1    2    0    0 -0.36341592900E-01  0.14683601039E-01  0.75409374476E+00  0.75511188351E+00  0.51109989000E-03 0. -1.
</event>
<event>
 6   3  0.2312675E+03  0.9118800E+02  0.7818608E-02  0.1180000E+00
       11   -1    0    0    0    0  0.00000000000E+00  0.00000000000E+00  0.54999999763E+01  0.55000000000E+01  0.51109989000E-03 0.  1.
     -623   -1    0    0    0    0  0.00000000000E+00  0.00000000000E+00  0.93234578044E-11  0.17124000000E+03  0.17124000000E+03 0. -1.
       11    1    1    2    0    0 -0.19231172844E-01 -0.20427654643E-01  0.79303573537E+00  0.79353201944E+00  0.51109989000E-03 0.  1.
     -623    1    1    2    0    0 -0.41343576646E-01  0.13814552758E-01  0.10261612372E-02  0.17124000555E+03  0.17124000000E+03 0. -1.
     -611    1    1    2    0    0  0.43606821667E-01  0.24846055078E-03  0.41493348756E+01  0.41495640479E+01  0.51109989000E-03 0.  1.
      611    1    1    2    0    0  0.16967927823E-01  0.63646413344E-02  0.55660320408E+00  0.55689838144E+00  0.51109989000E-03 0. -1.
</event>
<event>
 6   3  0.2312675E+03  0.9118800E+02  0.7818608E-02  0.1180000E+00
       11   -1    0    0    0    0  0.00000000000E+00  0.00000000000E+00  0.54999999763E+01  0.55000000000E+01  0.51109989000E-03 0.  1.
     -623   -1    0    0    0    0  0.00000000000E+00  0.00000000000E+00  0.93234578044E-11  0.17124000000E+03  0.17124000000E+03 0.  1.
       11    1    1    2    0    0  0.51757721967E-01 -0.15386664240E-01  0.37265602161E+00  0.37654798218E+00  0.51109989000E-03 0.  1.
     -623    1    1    2    0    0  0.23854844946E-01  0.51651742825E-02  0.44626672856E-02  0.17124000180E+03  0.17124000000E+03 0.  1.
     -611    1    1    2    0    0 -0.10714634024E-01  0.62951405113E-03  0.72904768300E+00  0.72912686480E+00  0.51109989000E-03 0. -1.
      611    1    1    2    0    0 -0.64897932892E-01  0.95919759069E-02  0.43938336046E+01  0.43943233556E+01  0.51109989000E-03 0.  1.
</event>
<event>
 6   3  0.2312675E+03  0.9118800E+02  0.7818608E-02  0.1180000E+00
       11   -1    0    0    0    0  0.00000000000E+00  0.00000000000E+00  0.54999999763E+01  0.55000000000E+01  0.51109989000E-03 0. -1.
     -623   -1    0    0    0    0  0.00000000000E+00  0.00000000000E+00  0.93234578044E-11  0.17124000000E+03  0.17124000000E+03 0.  1.
       11    1    1    2    0    0 -0.40455796584E-02 -0.37101664074E-02  0.24599118182E-03  0.55184947497E-02  0.51109989000E-03 0. -1.
     -623    1    1    2    0    0  0.20772863774E-02 -0.24042520340E-02  0.97640784308E-02  0.17124000031E+03  0.17124000000E+03 0.  1.
     -611    1    1    2    0    0  0.11170235443E+00  0.99669254831E-02  0.26685788508E+01  0.26709343122E+01  0.51109989000E-03 0.  1.
      611    1    1    2    0    0 -0.10973406115E+00 -0.38525070417E-02  0.28214110558E+01  0.28235468852E+01  0.51109989000E-03 0. -1.
</event>
<event>
 6   3  0.2312675E+03  0.9118800E+02  0.7818608E-02  0.1180000E+00
       11   -1    0    0    0    0  0.00000000000E+00  0.00000000000E+00  0.54999999763E+01  0.55000000000E+01  0.51109989000E-03 0.  1.
     -623   -1    0    0    0    0  0.00000000000E+00  0.00000000000E+00  0.93234578044E-11  0.17124000000E+03  0.17124000000E+03 0. -1.
       11    1    1    2    0    0  0.62113706205E-02  0.25846255154E-02  0.34871251208E+00  0.34877777842E+00  0.51109989000E-03 0.  1.
     -623    1    1    2    0    0 -0.76323453843E-01 -0.29336873263E-01  0.63154663809E-03  0.17124001952E+03  0.17124000000E+03 0. -1.
     -611    1    1    2    0    0  0.33784558730E-01  0.12815204994E-01  0.25019184431E+01  0.25021794066E+01  0.51109989000E-03 0.  1.
      611    1    1    2    0    0  0.36327524524E-01  0.13937042765E-01  0.26487374766E+01  0.26490232939E+01  0.51109989000E-03 0. -1.
</event>
<event>
 6   3  0.2312675E+03  0.9118800E+02  0.7818608E-02  0.1180000E+00
       11   -1    0    0    0    0  0.00000000000E+00  0.00000000000E+00  0.54999999763E+01  0.55000000000E+01  0.51109989000E-03 0.  1.
     -623   -1    0    0    0    0  0.00000000000E+00  0.00000000000E+00  0.93234578044E-11  0.17124000000E+03  0.17124000000E+03 0.  1.
       11    1    1    2    0    0 -0.73027599417E-02 -0.17885066066E-01  0.92020549683E+00  0.92040840039E+00  0.51109989000E-03 0.  1.
     -623    1    1    2    0    0  0.49839664478E-02  0.22155380261E-01  0.62741285730E-03  0.17124000151E+03  0.17124000000E+03 0.  1.
     -611    1    1    2    0    0  0.30807403969E-01 -0.13701603807E-02  0.30410970297E+01  0.30412534223E+01  0.51109989000E-03 0. -1.
      611    1    1    2    0    0 -0.28488610475E-01 -0.29001538154E-02  0.15380700371E+01  0.15383366706E+01  0.51109989000E-03 0.  1.
</event>
<event>
 6   3  0.2312675E+03  0.9118800E+02  0.7818608E-02  0.1180000E+00
       11   -1    0    0    0    0  0.00000000000E+00  0.00000000000E+00  0.54999999763E+01  0.55000000000E+01  0.51109989000E-03 0. -1.
     -623   -1    0    0    0    0  0.00000000000E+00  0.00000000000E+00  0.93234578044E-11  0.17124000000E+03  0.17124000000E+03 0. -1.
       11    1    1    2    0    0 -0.51842209838E-02 -0.41445014899E-02  0.40849315993E-01  0.41388173190E-01  0.51109989000E-03 0. -1.
     -623    1    1    2    0    0  0.84794355334E-01 -0.12096652811E+00  0.26218916803E-02  0.17124006374E+03  0.17124000000E+03 0. -1.
     -611    1    1    2    0    0 -0.61136643729E-01  0.10107868265E+00  0.43104814298E+01  0.43120998373E+01  0.51109989000E-03 0. -1.
      611    1    1    2    0    0 -0.18473490622E-01  0.24032346947E-01  0.11460473389E+01  0.11464482490E+01  0.51109989000E-03 0. -1.
</event>
<event>
 6   3  0.2312675E+03  0.9118800E+02  0.7818608E-02  0.1180000E+00
       11   -1    0    0    0    0  0.00000000000E+00  0.00000000000E+00  0.54999999763E+01  0.55000000000E+01  0.51109989000E-03 0.  1.
     -623   -1    0    0    0    0  0.00000000000E+00  0.00000000000E+00  0.93234578044E-11  0.17124000000E+03  0.17124000000E+03 0. -1.
       11    1    1    2    0    0  0.53997476800E-01  0.53854173615E-02  0.10339123450E+01  0.10353355633E+01  0.51109989000E-03 0.  1.
     -623    1    1    2    0    0 -0.16248760499E-02  0.23422312103E-02  0.17373180995E-02  0.17124000003E+03  0.17124000000E+03 0. -1.
     -611    1    1    2    0    0 -0.20330430683E-01 -0.34313091559E-02  0.17292513904E+01  0.17293743761E+01  0.51109989000E-03 0.  1.
      611    1    1    2    0    0 -0.32042170070E-01 -0.42963394166E-02  0.27350989231E+01  0.27352900284E+01  0.51109989000E-03 0.  1.
</event>
<event>
 6   3  0.2312675E+03  0.9118800E+02  0.7818608E-02  0.1180000E+00
       11   -1    0    0    0    0  0.00000000000E+00  0.00000000000E+00  0.54999999763E+01  0.55000000000E+01  0.51109989000E-03 0.  1.
     -623   -1    0    0    0    0  0.00000000000E+00  0.00000000000E+00  0.93234578044E-11  0.17124000000E+03  0.17124000000E+03 0.  1.
       11    1    1    2    0    0  0.21319169855E-01 -0.62321544076E-02  0.96591354593E+00  0.96616902568E+00  0.51109989000E-03 0.  1.
     -623    1    1    2    0    0 -0.11522190066E+00  0.42850099292E-01  0.14206723634E-02  0.17124004413E+03  0.17124000000E+03 0.  1.
     -611    1    1    2    0    0  0.23459292084E-01 -0.81957632915E-02  0.11148186630E+01  0.11150957006E+01  0.51109989000E-03 0. -1.
      611    1    1    2    0    0  0.70443439169E-01 -0.28422181761E-01  0.34178471165E+01  0.34186911636E+01  0.51109989000E-03 0.  1.
</event>
<event>
 6   3  0.2312675E+03  0.9118800E+02  0.7818608E-02  0.1180000E+00
       11   -1    0    0    0    0  0.00000000000E+00  0.00000000000E+00  0.54999999763E+01  0.55000000000E+01  0.51109989000E-03 0. -1.
     -623   -1    0    0    0    0  0.00000000000E+00  0.00000000000E+00  0.93234578044E-11  0.17124000000E+03  0.17124000000E+03 0. -1.
       11    1    1    2    0    0  0.96308563169E-03  0.23795678333E-02  0.22789562326E-02  0.34705535027E-02  0.51109989000E-03 0. -1.
     -623    1    1    2    0    0 -0.50532653743E-02 -0.36207683858E-02  0.20932372049E-02  0.17124000013E+03  0.17124000000E+03 0. -1.
     -611    1    1    2    0    0  0.42349436426E-01 -0.24994390128E-01  0.35903615276E+01  0.35906983101E+01  0.51109989000E-03 0. -1.
      611    1    1    2    0    0 -0.38259256683E-01  0.26235590680E-01  0.19052662552E+01  0.19058310107E+01  0.51109989000E-03 0.  1.
</event>
<event>
 6   3  0.2312675E+03  0.9118800E+02  0.7818608E-02  0.1180000E+00
       11   -1    0    0    0    0  0.00000000000E+00  0.00000000000E+00  0.54999999763E+01  0.55000000000E+01  0.51109989000E-03 0. -1.
     -623   -1    0    0    0    0  0.00000000000E+00  0.00000000000E+00  0.93234578044E-11  0.17124000000E+03  0.17124000000E+03 0. -1.
       11    1    1    2    0    0 -0.13111829915E-01 -0.75864522869E-02  0.17321096819E+00  0.17387287041E+00  0.51109989000E-03 0. -1.
     -623    1    1    2    0    0  0.23603105301E-02 -0.59111807631E-02  0.15627569483E-02  0.17124000013E+03  0.17124000000E+03 0. -1.
     -611    1    1    2    0    0 -0.33026528218E-01  0.23616954561E-01  0.12637098869E+01  0.12643620730E+01  0.51109989000E-03 0.  1.
      611    1    1    2    0    0  0.43778047603E-01 -0.10119321511E-01  0.40615163642E+01  0.40617649311E+01  0.51109989000E-03 0. -1.
</event>
<event>
 6   3  0.2312675E+03  0.9118800E+02  0.7818608E-02  0.1180000E+00
       11   -1    0    0    0    0  0.00000000000E+00  0.00000000000E+00  0.54999999763E+01  0.55000000000E+01  0.51109989000E-03 0. -1.
     -623   -1    0    0    0    0  0.00000000000E+00  0.00000000000E+00  0.93234578044E-11  0.17124000000E+03  0.17124000000E+03 0.  1.
       11    1    1    2    0    0 -0.99372851967E-01  0.70778900901E-01  0.10221742883E+01  0.10294295281E+01  0.51109989000E-03 0. -1.
     -623    1    1    2    0    0 -0.22374574556E-01 -0.16549355859E-01  0.92527634489E-02  0.17124000251E+03  0.17124000000E+03 0.  1.
     -611    1    1    2    0    0  0.31363380095E-01 -0.17835930520E-01  0.12444060213E+01  0.12449290699E+01  0.51109989000E-03 0.  1.
      611    1    1    2    0    0  0.90384046430E-01 -0.36393614523E-01  0.32241669033E+01  0.32256388906E+01  0.51109989000E-03 0. -1.
</event>
<event>
 6   3  0.2312675E+03  0.9118800E+02  0.7818608E-02  0.1180000E+00
       11   -1    0    0    0    0  0.00000000000E+00  0.00000000000E+00  0.54999999763E+01  0.55000000000E+01  0.51109989000E-03 0.  1.
     -623   -1    0    0    0    0  0.00000000000E+00  0.00000000000E+00  0.93234578044E-11  0.17124000000E+03  0.17124000000E+03 0. -1.
       11    1    1    2    0    0 -0.64777936475E-02 -0.20129181473E-01  0.50795409459E+00  0.50839430484E+00  0.51109989000E-03 0.  1.
     -623    1    1    2    0    0  0.33327927104E-01  0.67544177666E-02  0.99073837746E-03  0.17124000338E+03  0.17124000000E+03 0. -1.
     -611    1    1    2    0    0 -0.43614094534E-01  0.25967152524E-01  0.40215321608E+01  0.40218525164E+01  0.51109989000E-03 0.  1.
      611    1    1    2    0    0  0.16763961077E-01 -0.12592388818E-01  0.96952298269E+00  0.96974979960E+00  0.51109989000E-03 0. -1.
</event>
<event>
 6   3  0.2312675E+03  0.9118800E+02  0.7818608E-02  0.1180000E+00
       11   -1    0    0    0    0  0.00000000000E+00  0.00000000000E+00  0.54999999763E+01  0.55000000000E+01  0.51109989000E-03 0. -1.
     -623   -1    0    0    0    0  0.00000000000E+00  0.00000000000E+00  0.93234578044E-11  0.17124000000E+03  0.17124000000E+03 0. -1.
       11    1    1    2    0    0  0.10389670209E+00 -0.20431334173E-02  0.70969292977E+00  0.71726077188E+00  0.51109989000E-03 0. -1.
     -623    1    1    2    0    0 -0.33033743102E-01 -0.47901340403E-02  0.81117286126E-02  0.17124000345E+03  0.17124000000E+03 0. -1.
     -611    1    1    2    0    0 -0.57166033103E-01  0.23980857770E-02  0.39771687751E+01  0.39775803490E+01  0.51109989000E-03 0. -1.
      611    1    1    2    0    0 -0.13696925888E-01  0.44351816807E-02  0.80502654287E+00  0.80515543379E+00  0.51109989000E-03 0.  1.
</event>
<event>
 6   3  0.2312675E+03  0.9118800E+02  0.7818608E-02  0.1180000E+00
       11   -1    0    0    0    0  0.00000000000E+00  0.00000000000E+00  0.54999999763E+01  0.55000000000E+01  0.51109989000E-03 0. -1.
     -623   -1    0    0    0    0  0.00000000000E+00  0.00000000000E+00  0.93234578044E-11  0.17124000000E+03  0.17124000000E+03 0.  1.
       11    1    1    2    0    0  0.10240426491E+00  0.92832811637E-01  0.81662525651E+00  0.82824008306E+00  0.51109989000E-03 0. -1.
     -623    1    1    2    0    0 -0.11870396497E-01  0.17376885058E-01  0.13796887529E-01  0.17124000185E+03  0.17124000000E+03 0.  1.
     -611    1    1    2    0    0 -0.16831676963E-01 -0.23453227284E-01  0.95057219243E+00  0.95101057485E+00  0.51109989000E-03 0.  1.
      611    1    1    2    0    0 -0.73702191452E-01 -0.86756469410E-01  0.37190056397E+01  0.37207474931E+01  0.51109989000E-03 0. -1.
</event>
<event>
 6   3  0.2312675E+03  0.9118800E+02  0.7818608E-02  0.1180000E+00
       11   -1    0    0    0    0  0.00000000000E+00  0.00000000000E+00  0.54999999763E+01  0.55000000000E+01  0.51109989000E-03 0.  1.
     -623   -1    0    0    0    0  0.00000000000E+00  0.00000000000E+00  0.93234578044E-11  0.17124000000E+03  0.17124000000E+03 0.  1.
       11    1    1    2    0    0 -0.30095349580E-02 -0.14222215805E-02  0.64759400470E-02  0.72992491036E-02  0.51109989000E-03 0.  1.
     -623    1    1    2    0    0  0.35118426346E-02  0.51974590845E-02  0.28180869870E-02  0.17124000014E+03  0.17124000000E+03 0.  1.
     -611    1    1    2    0    0  0.46187919292E-01 -0.39796038717E-01  0.43844723633E+01  0.43848962604E+01  0.51109989000E-03 0. -1.
      611    1    1    2    0    0 -0.46690226969E-01  0.36020801213E-01  0.11062335860E+01  0.11078043525E+01  0.51109989000E-03 0.  1.
</event>
<event>
 6   3  0.2312675E+03  0.9118800E+02  0.7818608E-02  0.1180000E+00
       11   -1    0    0    0    0  0.00000000000E+00  0.00000000000E+00  0.54999999763E+01  0.55000000000E+01  0.51109989000E-03 0.  1.
     -623   -1    0    0    0    0  0.00000000000E+00  0.00000000000E+00  0.93234578044E-11  0.17124000000E+03  0.17124000000E+03 0. -1.
       11    1    1    2    0    0 -0.11117612882E-01 -0.88700789096E-02  0.44617362141E+00  0.44640053907E+00  0.51109989000E-03 0.  1.
     -623    1    1    2    0    0  0.88554868358E-01  0.26347372193E-01  0.87549224541E-03  0.17124002493E+03  0.17124000000E+03 0. -1.
     -611    1    1    2    0    0 -0.28046350517E-01 -0.62804155928E-02  0.18345633525E+01  0.18347885428E+01  0.51109989000E-03 0.  1.
      611    1    1    2    0    0 -0.49390904937E-01 -0.11196877686E-01  0.32183875087E+01  0.32187859900E+01  0.51109989000E-03 0.  1.
</event>
<event>
 6   3  0.2312675E+03  0.9118800E+02  0.7818608E-02  0.1180000E+00
       11   -1    0    0    0    0  0.00000000000E+00  0.00000000000E+00  0.54999999763E+01  0.55000000000E+01  0.51109989000E-03 0.  1.
     -623   -1    0    0    0    0  0.00000000000E+00  0.00000000000E+00  0.93234578044E-11  0.17124000000E+03  0.17124000000E+03 0. -1.
       11    1    1    2    0    0  0.15610972183E-01  0.17678238751E-01  0.53340176485E-01  0.58323736407E-01  0.51109989000E-03 0.  1.
     -623    1    1    2    0    0 -0.12507242849E-01 -0.26830138330E-01  0.95543351243E-02  0.17124000283E+03  0.17124000000E+03 0. -1.
     -611    1    1    2    0    0  0.85137468302E-01  0.22721941436E-01  0.43549233074E+01  0.43558147286E+01  0.51109989000E-03 0.  1.
      611    1    1    2    0    0 -0.88241197636E-01 -0.13570041857E-01  0.10821821572E+01  0.10858587098E+01  0.51109989000E-03 0. -1.
</event>
<event>
 6   3  0.2312675E+03  0.9118800E+02  0.7818608E-02  0.1180000E+00
       11   -1    0    0    0    0  0.00000000000E+00  0.00000000000E+00  0.54999999763E+01  0.55000000000E+01  0.51109989000E-03 0. -1.
     -623   -1    0    0    0    0  0.00000000000E+00  0.00000000000E+00  0.93234578044E-11  0.17124000000E+03  0.17124000000E+03 0.  1.
       11    1    1    2    0    0 -0.22658371513E-03  0.33808188569E-03  0.28699690830E-04  0.65397730175E-03  0.51109989000E-03 0. -1.
     -623    1    1    2    0    0  0.23292865849E-02  0.11597890410E-03  0.12596929158E-02  0.17124000002E+03  0.17124000000E+03 0.  1.
     -611    1    1    2    0    0  0.37516073709E-01 -0.13333894010E-01  0.32953209674E+01  0.32955615285E+01  0.51109989000E-03 0. -1.
      611    1    1    2    0    0 -0.39618776579E-01  0.12879833221E-01  0.22033906163E+01  0.22037844737E+01  0.51109989000E-03 0.  1.
</event>
<event>
 6   3  0.2312675E+03  0.9118800E+02  0.7818608E-02  0.1180000E+00
       11   -1    0    0    0    0  0.00000000000E+00  0.00000000000E+00  0.54999999763E+01  0.55000000000E+01  0.51109989000E-03 0.  1.
     -623   -1    0    0    0    0  0.00000000000E+00  0.00000000000E+00  0.93234578044E-11  0.17124000000E+03  0.17124000000E+03 0. -1.
       11    1    1    2    0    0 -0.46082683138E-01  0.35793071498E-02  0.51603083951E+00  0.51809701183E+00  0.51109989000E-03 0.  1.
     -623    1    1    2    0    0 -0.13881161162E-01 -0.11725966117E-01  0.24364050711E-02  0.17124000098E+03  0.17124000000E+03 0. -1.
     -611    1    1    2    0    0  0.96418357931E-02  0.68573602226E-04  0.73564666171E+00  0.73571002562E+00  0.51109989000E-03 0. -1.
      611    1    1    2    0    0  0.50322008503E-01  0.80780853642E-02  0.42458860696E+01  0.42461919808E+01  0.51109989000E-03 0.  1.
</event>
<event>
 6   3  0.2312675E+03  0.9118800E+02  0.7818608E-02  0.1180000E+00
       11   -1    0    0    0    0  0.00000000000E+00  0.00000000000E+00  0.54999999763E+01  0.55000000000E+01  0.51109989000E-03 0. -1.
     -623   -1    0    0    0    0  0.00000000000E+00  0.00000000000E+00  0.93234578044E-11  0.17124000000E+03  0.17124000000E+03 0. -1.
       11    1    1    2    0    0  0.82907175259E-02  0.38452712716E-02  0.96182350292E+00  0.96186705636E+00  0.51109989000E-03 0. -1.
     -623    1    1    2    0    0 -0.62603025404E-01 -0.16014224723E-01  0.39743770311E-03  0.17124001219E+03  0.17124000000E+03 0. -1.
     -611    1    1    2    0    0  0.40439264099E-01  0.84108642353E-02  0.33664887601E+01  0.33667421805E+01  0.51109989000E-03 0. -1.
      611    1    1    2    0    0  0.13873043573E-01  0.37580891636E-02  0.11712902574E+01  0.11713785524E+01  0.51109989000E-03 0. -1.
</event>
<event>
 6   3  0.2312675E+03  0.9118800E+02  0.7818608E-02  0.1180000E+00
       11   -1    0    0    0    0  0.00000000000E+00  0.00000000000E+00  0.54999999763E+01  0.55000000000E+01  0.51109989000E-03 0.  1.
     -623   -1    0    0    0    0  0.00000000000E+00  0.00000000000E+00  0.93234578044E-11  0.17124000000E+03  0.17124000000E+03 0.  1.
       11    1    1    2    0    0  0.47497852286E-01 -0.46039557915E-02  0.10458009879E+01  0.10468893017E+01  0.51109989000E-03 0.  1.
     -623    1    1    2    0    0  0.70158725593E-02 -0.73899374160E-02  0.14440547364E-02  0.17124000031E+03  0.17124000000E+03 0.  1.
     -611    1    1    2    0    0 -0.13356663080E-01 -0.68952601388E-04  0.10857196691E+01  0.10858019462E+01  0.51109989000E-03 0. -1.
      611    1    1    2    0    0 -0.41157061763E-01  0.12062845808E-01  0.33670352643E+01  0.33673084427E+01  0.51109989000E-03 0.  1.
</event>
<event>
 6   3  0.2312675E+03  0.9118800E+02  0.7818608E-02  0.1180000E+00
       11   -1    0    0    0    0  0.00000000000E+00  0.00000000000E+00  0.54999999763E+01  0.55000000000E+01  0.51109989000E-03 0.  1.
     -623   -1    0    0    0    0  0.00000000000E+00  0.00000000000E+00  0.93234578044E-11  0.17124000000E+03  0.17124000000E+03 0. -1.
       11    1    1    2    0    0  0.38159582597E-02 -0.46999842596E-01  0.13420320082E+00  0.14224734470E+00  0.51109989000E-03 0.  1.
     -623    1    1    2    0    0  0.16391817249E-01 -0.90626718278E-03  0.92349562012E-02  0.17124000104E+03  0.17124000000E+03 0. -1.
     -611    1    1    2    0    0  0.40482503940E-01  0.14525961881E-01  0.23333108875E+01  0.23337073071E+01  0.51109989000E-03 0. -1.
      611    1    1    2    0    0 -0.60690279448E-01  0.33380147897E-01  0.30232509318E+01  0.30240443122E+01  0.51109989000E-03 0.  1.
</event>
<event>
 6   3  0.2312675E+03  0.9118800E+02  0.7818608E-02  0.1180000E+00
       11   -1    0    0    0    0  0.00000000000E+00  0.00000000000E+00  0.54999999763E+01  0.55000000000E+01  0.51109989000E-03 0.  1.
     -623   -1    0    0    0    0  0.00000000000E+00  0.00000000000E+00  0.93234578044E-11  0.17124000000E+03  0.17124000000E+03 0. -1.
       11    1    1    2    0    0  0.31992378649E-01 -0.18594628274E-02  0.18288758730E+00  0.18567471746E+00  0.51109989000E-03 0.  1.
     -623    1    1    2    0    0 -0.32157576795E-01 -0.35167162253E-01  0.45761982444E-02  0.17124000669E+03  0.17124000000E+03 0. -1.
     -611    1    1    2    0    0  0.36745088396E-01 -0.37848396515E-01  0.16862655663E+01  0.16870905500E+01  0.51109989000E-03 0. -1.
      611    1    1    2    0    0 -0.36579890250E-01  0.74875021596E-01  0.36262706244E+01  0.36272280408E+01  0.51109989000E-03 0.  1.
</event>
<event>
 6   3  0.2312675E+03  0.9118800E+02  0.7818608E-02  0.1180000E+00
       11   -1    0    0    0    0  0.00000000000E+00  0.00000000000E+00  0.54999999763E+01  0.55000000000E+01  0.51109989000E-03 0.  1.
     -623   -1    0    0    0    0  0.00000000000E+00  0.00000000000E+00  0.93234578044E-11  0.17124000000E+03  0.17124000000E+03 0.  1.
       11    1    1    2    0    0  0.56313702990E-01 -0.10793556222E-01  0.58940068459E+00  0.59218338563E+00  0.51109989000E-03 0.  1.
     -623    1    1    2    0    0  0.54182918018E-01  0.50063213832E-02  0.40391240117E-02  0.17124000869E+03  0.17124000000E+03 0.  1.
     -611    1    1    2    0    0 -0.52259092380E-01  0.23893770653E-02  0.23458525320E+01  0.23464358259E+01  0.51109989000E-03 0.  1.
      611    1    1    2    0    0 -0.58237528580E-01  0.33978577714E-02  0.25607076335E+01  0.25613720934E+01  0.51109989000E-03 0.  1.
</event>
<event>
 6   3  0.2312675E+03  0.9118800E+02  0.7818608E-02  0.1180000E+00
       11   -1    0    0    0    0  0.00000000000E+00  0.00000000000E+00  0.54999999763E+01  0.55000000000E+01  0.51109989000E-03 0. -1.
     -623   -1    0    0    0    0  0.00000000000E+00  0.00000000000E+00  0.93234578044E-11  0.17124000000E+03  0.17124000000E+03 0.  1.
       11    1    1    2    0    0 -0.67933745642E-02  0.10375192530E-01  0.10290030276E+00  0.10364616775E+00  0.51109989000E-03 0. -1.
     -623    1    1    2    0    0  0.27560057621E-02  0.32870939956E-02  0.16273286689E-02  0.17124000006E+03  0.17124000000E+03 0.  1.
     -611    1    1    2    0    0  0.41657648797E-01 -0.22363912467E-01  0.16361726181E+01  0.16368557058E+01  0.51109989000E-03 0.  1.
      611    1    1    2    0    0 -0.37620279995E-01  0.87016259412E-02  0.37592997266E+01  0.37594980649E+01  0.51109989000E-03 0. -1.
</event>
<event>
 6   3  0.2312675E+03  0.9118800E+02  0.7818608E-02  0.1180000E+00
       11   -1    0    0    0    0  0.00000000000E+00  0.00000000000E+00  0.54999999763E+01  0.55000000000E+01  0.51109989000E-03 0. -1.
     -623   -1    0    0    0    0  0.00000000000E+00  0.00000000000E+00  0.93234578044E-11  0.17124000000E+03  0.17124000000E+03 0.  1.
       11    1    1    2    0    0 -0.26760873125E-01  0.14265935800E-01  0.52544420313E+00  0.52631885115E+00  0.51109989000E-03 0. -1.
     -623    1    1    2    0    0 -0.46374763284E-01 -0.47317194697E-02  0.14826381689E-02  0.17124000635E+03  0.17124000000E+03 0.  1.
     -611    1    1    2    0    0  0.50353842053E-01  0.44308274877E-02  0.31420390760E+01  0.31424456969E+01  0.51109989000E-03 0. -1.
      611    1    1    2    0    0  0.22781794356E-01 -0.13965043818E-01  0.18310340589E+01  0.18312291005E+01  0.51109989000E-03 0. -1.
</event>
<event>
 6   3  0.2312675E+03  0.9118800E+02  0.7818608E-02  0.1180000E+00
       11   -1    0    0    0    0  0.00000000000E+00  0.00000000000E+00  0.54999999763E+01  0.55000000000E+01  0.51109989000E-03 0.  1.
     -623   -1    0    0    0    0  0.00000000000E+00  0.00000000000E+00  0.93234578044E-11  0.17124000000E+03  0.17124000000E+03 0. -1.
       11    1    1    2    0    0 -0.39042658462E-01 -0.22353577623E-01  0.95816788487E+00  0.95922362795E+00  0.51109989000E-03 0.  1.
     -623    1    1    2    0    0 -0.17093924811E-01  0.20681249627E-01  0.14053496316E-02  0.17124000211E+03  0.17124000000E+03 0. -1.
     -611    1    1    2    0    0  0.40062390817E-01  0.87246323929E-03  0.32450239054E+01  0.32452713545E+01  0.51109989000E-03 0.  1.
      611    1    1    2    0    0  0.16074192434E-01  0.79986475607E-03  0.12954028345E+01  0.12955029079E+01  0.51109989000E-03 0.  1.
</event>
<event>
 6   3  0.2312675E+03  0.9118800E+02  0.7818608E-02  0.1180000E+00
       11   -1    0    0    0    0  0.00000000000E+00  0.00000000000E+00  0.54999999763E+01  0.55000000000E+01  0.51109989000E-03 0.  1.
     -623   -1    0    0    0    0  0.00000000000E+00  0.00000000000E+00  0.93234578044E-11  0.17124000000E+03  0.17124000000E+03 0.  1.
       11    1    1    2    0    0  0.35981757784E-01  0.27869970335E-01  0.47830650546E+00  0.48046726895E+00  0.51109989000E-03 0.  1.
     -623    1    1    2    0    0  0.22179692248E-01 -0.28646341282E-01  0.25019604411E-02  0.17124000385E+03  0.17124000000E+03 0.  1.
     -611    1    1    2    0    0 -0.52200401528E-01  0.47863394783E-03  0.45086762956E+01  0.45089785219E+01  0.51109989000E-03 0.  1.
      611    1    1    2    0    0 -0.59610484441E-02  0.29773699816E-03  0.51051520956E+00  0.51055035321E+00  0.51109989000E-03 0.  1.
</event>
<event>
 6   3  0.2312675E+03  0.9118800E+02  0.7818608E-02  0.1180000E+00
       11   -1    0    0    0    0  0.00000000000E+00  0.00000000000E+00  0.54999999763E+01  0.55000000000E+01  0.51109989000E-03 0. -1.
     -623   -1    0    0    0    0  0.00000000000E+00  0.00000000000E+00  0.93234578044E-11  0.17124000000E+03  0.17124000000E+03 0.  1.
       11    1    1    2    0    0 -0.38785679821E-02  0.62355117670E-02  0.28511068484E+00  0.28520569547E+00  0.51109989000E-03 0. -1.
     -623    1    1    2    0    0 -0.45726360665E-02 -0.50154565445E-02  0.16559060253E-02  0.17124000014E+03  0.17124000000E+03 0.  1.
     -611    1    1    2    0    0 -0.57150040525E-01  0.12683733405E-01  0.19794589404E+01  0.19803244588E+01  0.51109989000E-03 0.  1.
      611    1    1    2    0    0  0.65601244574E-01 -0.13903788627E-01  0.32337744450E+01  0.32344697032E+01  0.51109989000E-03 0. -1.
</event>
<event>
 6   3  0.2312675E+03  0.9118800E+02  0.7818608E-02  0.1180000E+00
       11   -1    0    0    0    0  0.00000000000E+00  0.00000000000E+00  0.54999999763E+01  0.55000000000E+01  0.51109989000E-03 0.  1.
     -623   -1    0    0    0    0  0.00000000000E+00  0.00000000000E+00  0.93234578044E-11  0.17124000000E+03  0.17124000000E+03 0.  1.
       11    1    1    2    0    0  0.89319332258E-02 -0.22288802884E-01  0.22847313346E+00  0.22973202673E+00  0.51109989000E-03 0.  1.
     -623    1    1    2    0    0  0.69623923494E-01  0.12068141148E-01  0.18910140822E-02  0.17124001459E+03  0.17124000000E+03 0.  1.
     -611    1    1    2    0    0 -0.63240254086E-01  0.30031171544E-02  0.43625887185E+01  0.43630481245E+01  0.51109989000E-03 0.  1.
      611    1    1    2    0    0 -0.15315602634E-01  0.72175445815E-02  0.90704711029E+00  0.90720525910E+00  0.51109989000E-03 0. -1.
</event>
<event>
 6   3  0.2312675E+03  0.9118800E+02  0.7818608E-02  0.1180000E+00
       11   -1    0    0    0    0  0.00000000000E+00  0.00000000000E+00  0.54999999763E+01  0.55000000000E+01  0.51109989000E-03 0. -1.
     -623   -1    0    0    0    0  0.00000000000E+00  0.00000000000E+00  0.93234578044E-11  0.17124000000E+03  0.17124000000E+03 0. -1.
       11    1    1    2    0    0 -0.16050335097E-01 -0.14905402653E-01  0.57216789939E-01  0.61268316111E-01  0.51109989000E-03 0. -1.
     -623    1    1    2    0    0 -0.92408468121E-02  0.59557814109E-02  0.55667466891E-02  0.17124000044E+03  0.17124000000E+03 0. -1.
     -611    1    1    2    0    0  0.52086006781E-01 -0.20087186736E-01  0.47811566179E+01  0.47814825435E+01  0.51109989000E-03 0. -1.
      611    1    1    2    0    0 -0.26794824872E-01  0.29036807979E-01  0.65605982172E+00  0.65724869703E+00  0.51109989000E-03 0.  1.
</event>
<event>
 6   3  0.2312675E+03  0.9118800E+02  0.7818608E-02  0.1180000E+00
       11   -1    0    0    0    0  0.00000000000E+00  0.00000000000E+00  0.54999999763E+01  0.55000000000E+01  0.51109989000E-03 0.  1.
     -623   -1    0    0    0    0  0.00000000000E+00  0.00000000000E+00  0.93234578044E-11  0.17124000000E+03  0.17124000000E+03 0.  1.
       11    1    1    2    0    0  0.30809320026E-02  0.45517644651E-02  0.66989096027E-01  0.67216150673E-01  0.51109989000E-03 0.  1.
     -623    1    1    2    0    0 -0.45270752865E-02  0.26511710131E-03  0.11389991169E-02  0.17124000006E+03  0.17124000000E+03 0.  1.
     -611    1    1    2    0    0  0.43866746865E-01  0.79274377483E-02  0.14998157013E+01  0.15004781021E+01  0.51109989000E-03 0. -1.
      611    1    1    2    0    0 -0.42420603581E-01 -0.12744319315E-01  0.39320561799E+01  0.39323056835E+01  0.51109989000E-03 0.  1.
</event>
<event>
 6   3  0.2312675E+03  0.9118800E+02  0.7818608E-02  0.1180000E+00
       11   -1    0    0    0    0  0.00000000000E+00  0.00000000000E+00  0.54999999763E+01  0.55000000000E+01  0.51109989000E-03 0.  1.
     -623   -1    0    0    0    0  0.00000000000E+00  0.00000000000E+00  0.93234578044E-11  0.17124000000E+03  0.17124000000E+03 0.  1.
       11    1    1    2    0    0  0.59192814805E-02 -0.12757860024E-01  0.18885089472E+00  0.18937455623E+00  0.51109989000E-03 0.  1.
     -623    1    1    2    0    0  0.34246496935E-02  0.11154974799E-02  0.12574457841E-02  0.17124000004E+03  0.17124000000E+03 0.  1.
     -611    1    1    2    0    0 -0.44096166591E-01 -0.12601987896E-01  0.28365038237E+01  0.28368745980E+01  0.51109989000E-03 0.  1.
      611    1    1    2    0    0  0.34752235417E-01  0.24244350441E-01  0.24733878120E+01  0.24737508032E+01  0.51109989000E-03 0. -1.
</event>
<event>
 6   3  0.2312675E+03  0.9118800E+02  0.7818608E-02  0.1180000E+00
       11   -1    0    0    0    0  0.00000000000E+00  0.00000000000E+00  0.54999999763E+01  0.55000000000E+01  0.51109989000E-03 0. -1.
     -623   -1    0    0    0    0  0.00000000000E+00  0.00000000000E+00  0.93234578044E-11  0.17124000000E+03  0.17124000000E+03 0. -1.
       11    1    1    2    0    0  0.52887874546E-01 -0.17164210464E-01  0.34169553805E+00  0.34619046686E+00  0.51109989000E-03 0. -1.
     -623    1    1    2    0    0  0.28476603674E-01 -0.20721912847E-01  0.53484695279E-02  0.17124000371E+03  0.17124000000E+03 0. -1.
     -611    1    1    2    0    0 -0.16387013288E-01  0.43053247375E-02  0.52931892483E+00  0.52959027128E+00  0.51109989000E-03 0.  1.
      611    1    1    2    0    0 -0.64977464931E-01  0.33580798573E-01  0.46236370438E+01  0.46242155568E+01  0.51109989000E-03 0. -1.
</event>
<event>
 6   3  0.2312675E+03  0.9118800E+02  0.7818608E-02  0.1180000E+00
       11   -1    0    0    0    0  0.00000000000E+00  0.00000000000E+00  0.54999999763E+01  0.55000000000E+01  0.51109989000E-03 0.  1.
     -623   -1    0    0    0    0  0.00000000000E+00  0.00000000000E+00  0.93234578044E-11  0.17124000000E+03  0.17124000000E+03 0. -1.
       11    1    1    2    0    0  0.20837116600E-01 -0.36899392482E-02  0.39471470034E+00  0.39528187027E+00  0.51109989000E-03 0.  1.
     -623    1    1    2    0    0  0.43540890489E-03  0.75433806350E-02  0.13159692914E-02  0.17124000017E+03  0.17124000000E+03 0. -1.
     -611    1    1    2    0    0  0.23891250989E-01 -0.17878477666E-01  0.92563188696E+00  0.92611288903E+00  0.51109989000E-03 0. -1.
      611    1    1    2    0    0 -0.45163776494E-01  0.14025036279E-01  0.41783374195E+01  0.41786050688E+01  0.51109989000E-03 0.  1.
</event>
<event>
 6   3  0.2312675E+03  0.9118800E+02  0.7818608E-02  0.1180000E+00
       11   -1    0    0    0    0  0.00000000000E+00  0.00000000000E+00  0.54999999763E+01  0.55000000000E+01  0.51109989000E-03 0.  1.
     -623   -1    0    0    0    0  0.00000000000E+00  0.00000000000E+00  0.93234578044E-11  0.17124000000E+03  0.17124000000E+03 0. -1.
       11    1    1    2    0    0  0.23568486984E-01 -0.67209580869E-02  0.42155617553E+00  0.42226829766E+00  0.51109989000E-03 0.  1.
     -623    1    1    2    0    0 -0.15549490386E-01  0.14078777661E-01  0.37423913402E-02  0.17124000133E+03  0.17124000000E+03 0. -1.
     -611    1    1    2    0    0  0.48115650098E-01  0.24104888090E-01  0.43070799933E+01  0.43074162199E+01  0.51109989000E-03 0.  1.
      611    1    1    2    0    0 -0.56134646696E-01 -0.31462707664E-01  0.76762141606E+00  0.77031415679E+00  0.51109989000E-03 0. -1.
</event>
<event>
 6   3  0.2312675E+03  0.9118800E+02  0.7818608E-02  0.1180000E+00
       11   -1    0    0    0    0  0.00000000000E+00  0.00000000000E+00  0.54999999763E+01  0.55000000000E+01  0.51109989000E-03 0.  1.
     -623   -1    0    0    0    0  0.00000000000E+00  0.00000000000E+00  0.93234578044E-11  0.17124000000E+03  0.17124000000E+03 0.  1.
       11    1    1    2    0    0  0.13095522551E-01 -0.40697400815E-02  0.10379492169E+01  0.10380399287E+01  0.51109989000E-03 0.  1.
     -623    1    1    2    0    0  0.47125402261E-01 -0.10002913541E-02  0.52048826477E-03  0.17124000649E+03  0.17124000000E+03 0.  1.
     -611    1    1    2    0    0 -0.47188639564E-01  0.78139735687E-02  0.32952389985E+01  0.32955861610E+01  0.51109989000E-03 0.  1.
      611    1    1    2    0    0 -0.13032285245E-01 -0.27439421333E-02  0.11662912723E+01  0.11663674218E+01  0.51109989000E-03 0. -1.
</event>
<event>
 6   3  0.2312675E+03  0.9118800E+02  0.7818608E-02  0.1180000E+00
       11   -1    0    0    0    0  0.00000000000E+00  0.00000000000E+00  0.54999999763E+01  0.55000000000E+01  0.51109989000E-03 0. -1.
     -623   -1    0    0    0    0  0.00000000000E+00  0.00000000000E+00  0.93234578044E-11  0.17124000000E+03  0.17124000000E+03 0.  1.
       11    1    1    2    0    0 -0.75390557474E-01  0.15000194556E-01  0.91947202536E+00  0.92267968908E+00  0.51109989000E-03 0. -1.
     -623    1    1    2    0    0  0.18083129341E-01  0.27740951628E-02  0.36305485568E-02  0.17124000102E+03  0.17124000000E+03 0.  1.
     -611    1    1    2    0    0  0.48882733906E-01 -0.20862919924E-01  0.38902481830E+01  0.38906112591E+01  0.51109989000E-03 0. -1.
      611    1    1    2    0    0  0.84246942261E-02  0.30886302050E-02  0.68664921931E+00  0.68670803600E+00  0.51109989000E-03 0.  1.
</event>
<event>
 6   3  0.2312675E+03  0.9118800E+02  0.7818608E-02  0.1180000E+00
       11   -1    0    0    0    0  0.00000000000E+00  0.00000000000E+00  0.54999999763E+01  0.55000000000E+01  0.51109989000E-03 0. -1.
     -623   -1    0    0    0    0  0.00000000000E+00  0.00000000000E+00  0.93234578044E-11  0.17124000000E+03  0.17124000000E+03 0.  1.
       11    1    1    2    0    0  0.13713776529E-02  0.33355285666E-02  0.34112767500E-02  0.49904368194E-02  0.51109989000E-03 0. -1.
     -623    1    1    2    0    0 -0.33039289417E-02  0.52014522782E-03  0.24227792523E-02  0.17124000005E+03  0.17124000000E+03 0.  1.
     -611    1    1    2    0    0  0.46000459038E-01  0.61843241579E-02  0.19352796224E+01  0.19358361930E+01  0.51109989000E-03 0.  1.
      611    1    1    2    0    0 -0.44067907749E-01 -0.10039997952E-01  0.35588862979E+01  0.35591733204E+01  0.51109989000E-03 0. -1.
</event>
<event>
 6   3  0.2312675E+03  0.9118800E+02  0.7818608E-02  0.1180000E+00
       11   -1    0    0    0    0  0.00000000000E+00  0.00000000000E+00  0.54999999763E+01  0.55000000000E+01  0.51109989000E-03 0. -1.
     -623   -1    0    0    0    0  0.00000000000E+00  0.00000000000E+00  0.93234578044E-11  0.17124000000E+03  0.17124000000E+03 0. -1.
       11    1    1    2    0    0 -0.23617284435E-01  0.21517644675E-01  0.13692676330E+00  0.14060577828E+00  0.51109989000E-03 0. -1.
     -623    1    1    2    0    0  0.29645812452E-01 -0.43121320732E-01  0.61317468236E-02  0.17124000811E+03  0.17124000000E+03 0. -1.
     -611    1    1    2    0    0  0.58489592892E-01 -0.29203261483E-01  0.13284903093E+01  0.13300979761E+01  0.51109989000E-03 0.  1.
      611    1    1    2    0    0 -0.64518120909E-01  0.50806937540E-01  0.40284511568E+01  0.40292881402E+01  0.51109989000E-03 0. -1.
</event>
<event>
 6   3  0.2312675E+03  0.9118800E+02  0.7818608E-02  0.1180000E+00
       11   -1    0    0    0    0  0.00000000000E+00  0.00000000000E+00  0.54999999763E+01  0.55000000000E+01  0.51109989000E-03 0.  1.
     -623   -1    0    0    0    0  0.00000000000E+00  0.00000000000E+00  0.93234578044E-11  0.17124000000E+03  0.17124000000E+03 0. -1.
       11    1    1    2    0    0  0.32571670856E-01  0.97644007703E-01  0.65989402182E+00  0.66787397556E+00  0.51109989000E-03 0.  1.
     -623    1    1    2    0    0  0.18431831996E-01 -0.17032473713E-01  0.89298080967E-02  0.17124000207E+03  0.17124000000E+03 0. -1.
     -611    1    1    2    0    0 -0.91307231823E-02 -0.10059088388E-01  0.75051756886E+00  0.75064068485E+00  0.51109989000E-03 0. -1.
      611    1    1    2    0    0 -0.41872779669E-01 -0.70552445600E-01  0.40806585773E+01  0.40814832676E+01  0.51109989000E-03 0.  1.
</event>
<event>
 6   3  0.2312675E+03  0.9118800E+02  0.7818608E-02  0.1180000E+00
       11   -1    0    0    0    0  0.00000000000E+00  0.00000000000E+00  0.54999999763E+01  0.55000000000E+01  0.51109989000E-03 0. -1.
     -623   -1    0    0    0    0  0.00000000000E+00  0.00000000000E+00  0.93234578044E-11  0.17124000000E+03  0.17124000000E+03 0.  1.
       11    1    1    2    0    0 -0.72101339550E-01  0.27463693719E-01  0.98245513853E+00  0.98548019670E+00  0.51109989000E-03 0. -1.
     -623    1    1    2    0    0  0.82304799847E-02 -0.16381159378E-01  0.34957409448E-02  0.17124000102E+03  0.17124000000E+03 0.  1.
     -611    1    1    2    0    0  0.28465898700E-01 -0.67814767707E-02  0.18669468422E+01  0.18671762286E+01  0.51109989000E-03 0. -1.
      611    1    1    2    0    0  0.35404960869E-01 -0.43010575710E-02  0.26471022549E+01  0.26473425580E+01  0.51109989000E-03 0.  1.
</event>
<event>
 6   3  0.2312675E+03  0.9118800E+02  0.7818608E-02  0.1180000E+00
       11   -1    0    0    0    0  0.00000000000E+00  0.00000000000E+00  0.54999999763E+01  0.55000000000E+01  0.51109989000E-03 0. -1.
     -623   -1    0    0    0    0  0.00000000000E+00  0.00000000000E+00  0.93234578044E-11  0.17124000000E+03  0.17124000000E+03 0.  1.
       11    1    1    2    0    0  0.37545982581E-02 -0.34943909575E-02  0.57285497069E+00  0.57287816021E+00  0.51109989000E-03 0. -1.
     -623    1    1    2    0    0  0.52520193900E-01  0.16284130858E-01  0.37016216485E-03  0.17124000883E+03  0.17124000000E+03 0.  1.
     -611    1    1    2    0    0 -0.44805896334E-01 -0.99844973488E-02  0.39188879552E+01  0.39191568385E+01  0.51109989000E-03 0. -1.
      611    1    1    2    0    0 -0.11468895762E-01 -0.28052425379E-02  0.10078868828E+01  0.10079561671E+01  0.51109989000E-03 0. -1.
</event>
<event>
 6   3  0.2312675E+03  0.9118800E+02  0.7818608E-02  0.1180000E+00
       11   -1    0    0    0    0  0.00000000000E+00  0.00000000000E+00  0.54999999763E+01  0.55000000000E+01  0.51109989000E-03 0.  1.
     -623   -1    0    0    0    0  0.00000000000E+00  0.00000000000E+00  0.93234578044E-11  0.17124000000E+03  0.17124000000E+03 0.  1.
       11    1    1    2    0    0 -0.22022491638E-01  0.81280866289E-02  0.42122677537E+00  0.42188068626E+00  0.51109989000E-03 0.  1.
     -623    1    1    2    0    0  0.11461876230E+00  0.26595238812E-02  0.15490821202E-02  0.17124003839E+03  0.17124000000E+03 0.  1.
     -611    1    1    2    0    0 -0.61143063447E-01 -0.81846065537E-02  0.33032004526E+01  0.33037764684E+01  0.51109989000E-03 0.  1.
      611    1    1    2    0    0 -0.31453207217E-01 -0.26030039576E-02  0.17740236662E+01  0.17743044580E+01  0.51109989000E-03 0. -1.
</event>
<event>
 6   3  0.2844912E+03  0.9118800E+02  0.7818608E-02  0.1180000E+00
       11   -1    0    0    0    0  0.00000000000E+00  0.00000000000E+00  0.54999999763E+01  0.55000000000E+01  0.51109989000E-03 0. -1.
     -623   -1    0    0    0    0  0.00000000000E+00  0.00000000000E+00  0.93234578044E-11  0.17124000000E+03  0.17124000000E+03 0.  1.
       11    1    1    2    0    0 -0.39463531605E-02  0.10271187517E-01  0.46368597814E-01  0.47658987427E-01  0.51109989000E-03 0. -1.
     -623    1    1    2    0    0  0.30739273414E-02 -0.11380066777E-01  0.16272347484E-02  0.17124000041E+03  0.17124000000E+03 0.  1.
     -611    1    1    2    0    0 -0.29740233821E-01 -0.38039236582E-03  0.24808667618E+01  0.24810450978E+01  0.51109989000E-03 0.  1.
      611    1    1    2    0    0  0.30612659640E-01  0.14892716261E-02  0.29711373818E+01  0.29712955012E+01  0.51109989000E-03 0. -1.
</event>
<event>
 6   3  0.2312675E+03  0.9118800E+02  0.7818608E-02  0.1180000E+00
       11   -1    0    0    0    0  0.00000000000E+00  0.00000000000E+00  0.54999999763E+01  0.55000000000E+01  0.51109989000E-03 0.  1.
     -623   -1    0    0    0    0  0.00000000000E+00  0.00000000000E+00  0.93234578044E-11  0.17124000000E+03  0.17124000000E+03 0. -1.
       11    1    1    2    0    0 -0.59251134112E-01 -0.39789761344E-01  0.89302312415E+00  0.89587079621E+00  0.51109989000E-03 0.  1.
     -623    1    1    2    0    0  0.74637476341E-02  0.29205231584E-02  0.32877373152E-02  0.17124000022E+03  0.17124000000E+03 0. -1.
     -611    1    1    2    0    0  0.10711001281E-01  0.85276712800E-02  0.10540934347E+01  0.10541824685E+01  0.51109989000E-03 0. -1.
      611    1    1    2    0    0  0.41076385182E-01  0.28341566895E-01  0.35495956788E+01  0.35499465148E+01  0.51109989000E-03 0.  1.
</event>
<event>
 6   3  0.2312675E+03  0.9118800E+02  0.7818608E-02  0.1180000E+00
       11   -1    0    0    0    0  0.00000000000E+00  0.00000000000E+00  0.54999999763E+01  0.55000000000E+01  0.51109989000E-03 0.  1.
     -623   -1    0    0    0    0  0.00000000000E+00  0.00000000000E+00  0.93234578044E-11  0.17124000000E+03  0.17124000000E+03 0.  1.
       11    1    1    2    0    0 -0.99419969917E-02 -0.70561508277E-02  0.31192832361E+00  0.31216689905E+00  0.51109989000E-03 0.  1.
     -623    1    1    2    0    0 -0.58410048049E-01  0.22179291128E-01  0.72878280546E-03  0.17124001140E+03  0.17124000000E+03 0.  1.
     -611    1    1    2    0    0  0.96162341869E-02  0.67059359959E-03  0.68705746327E+00  0.68712527294E+00  0.51109989000E-03 0. -1.
      611    1    1    2    0    0  0.58735810855E-01 -0.15793733900E-01  0.45002854067E+01  0.45006964284E+01  0.51109989000E-03 0.  1.
</event>
<event>
 6   3  0.2312675E+03  0.9118800E+02  0.7818608E-02  0.1180000E+00
       11   -1    0    0    0    0  0.00000000000E+00  0.00000000000E+00  0.54999999763E+01  0.55000000000E+01  0.51109989000E-03 0.  1.
     -623   -1    0    0    0    0  0.00000000000E+00  0.00000000000E+00  0.93234578044E-11  0.17124000000E+03  0.17124000000E+03 0. -1.
       11    1    1    2    0    0 -0.61694042376E-02  0.42040444483E-02  0.15872066552E-01  0.17547628276E-01  0.51109989000E-03 0.  1.
     -623    1    1    2    0    0  0.88158565756E-02  0.70031930366E-03  0.22023810606E-02  0.17124000024E+03  0.17124000000E+03 0. -1.
     -611    1    1    2    0    0 -0.33020546617E-01  0.18301837670E-01  0.27090902500E+01  0.27093533468E+01  0.51109989000E-03 0. -1.
      611    1    1    2    0    0  0.30374094279E-01 -0.23206201422E-01  0.27728352787E+01  0.27730987825E+01  0.51109989000E-03 0.  1.
</event>
<event>
 6   3  0.2312675E+03  0.9118800E+02  0.7818608E-02  0.1180000E+00
       11   -1    0    0    0    0  0.00000000000E+00  0.00000000000E+00  0.54999999763E+01  0.55000000000E+01  0.51109989000E-03 0. -1.
     -623   -1    0    0    0    0  0.00000000000E+00  0.00000000000E+00  0.93234578044E-11  0.17124000000E+03  0.17124000000E+03 0.  1.
       11    1    1    2    0    0  0.19861685355E-01  0.17698699382E-01  0.91341841450E+00  0.91380588293E+00  0.51109989000E-03 0. -1.
     -623    1    1    2    0    0  0.33780065645E-01 -0.87536056449E-02  0.71824761015E-03  0.17124000356E+03  0.17124000000E+03 0.  1.
     -611    1    1    2    0    0 -0.87182713610E-02 -0.65862170701E-03  0.56768889508E+00  0.56775644854E+00  0.51109989000E-03 0.  1.
      611    1    1    2    0    0 -0.44923479640E-01 -0.82864720289E-02  0.40181744193E+01  0.40184341117E+01  0.51109989000E-03 0. -1.
</event>
<event>
 6   3  0.2312675E+03  0.9118800E+02  0.7818608E-02  0.1180000E+00
       11   -1    0    0    0    0  0.00000000000E+00  0.00000000000E+00  0.54999999763E+01  0.55000000000E+01  0.51109989000E-03 0.  1.
     -623   -1    0    0    0    0  0.00000000000E+00  0.00000000000E+00  0.93234578044E-11  0.17124000000E+03  0.17124000000E+03 0. -1.
       11    1    1    2    0    0  0.96067303304E-02 -0.23147238134E-01  0.75312259130E+00  0.75353963575E+00  0.51109989000E-03 0.  1.
     -623    1    1    2    0    0  0.61963164252E-01 -0.40339692940E-01  0.14027112520E-02  0.17124001597E+03  0.17124000000E+03 0. -1.
     -611    1    1    2    0    0 -0.21336542899E-01  0.23379372527E-01  0.15534048117E+01  0.15537273291E+01  0.51109989000E-03 0. -1.
      611    1    1    2    0    0 -0.50233351684E-01  0.40107558547E-01  0.31920698621E+01  0.31927170673E+01  0.51109989000E-03 0.  1.
</event>
<event>
 6   3  0.2312675E+03  0.9118800E+02  0.7818608E-02  0.1180000E+00
       11   -1    0    0    0    0  0.00000000000E+00  0.00000000000E+00  0.54999999763E+01  0.55000000000E+01  0.51109989000E-03 0.  1.
     -623   -1    0    0    0    0  0.00000000000E+00  0.00000000000E+00  0.93234578044E-11  0.17124000000E+03  0.17124000000E+03 0.  1.
       11    1    1    2    0    0  0.29343574636E-02 -0.12328570960E-01  0.81890275912E-01  0.82866655704E-01  0.51109989000E-03 0.  1.
     -623    1    1    2    0    0  0.18148242062E-01  0.89288401927E-02  0.17468744783E-02  0.17124000120E+03  0.17124000000E+03 0.  1.
     -611    1    1    2    0    0  0.32002924252E-01 -0.78168471242E-02  0.13252172742E+01  0.13256267858E+01  0.51109989000E-03 0.  1.
      611    1    1    2    0    0 -0.53085523779E-01  0.11216577891E-01  0.40911455517E+01  0.40915053551E+01  0.51109989000E-03 0. -1.
</event>
<event>
 6   3  0.2312675E+03  0.9118800E+02  0.7818608E-02  0.1180000E+00
       11   -1    0    0    0    0  0.00000000000E+00  0.00000000000E+00  0.54999999763E+01  0.55000000000E+01  0.51109989000E-03 0.  1.
     -623   -1    0    0    0    0  0.00000000000E+00  0.00000000000E+00  0.93234578044E-11  0.17124000000E+03  0.17124000000E+03 0.  1.
       11    1    1    2    0    0  0.41832952944E-01  0.13249569959E+00  0.91105565113E+00  0.92158980411E+00  0.51109989000E-03 0.  1.
     -623    1    1    2    0    0  0.12868732941E-01 -0.10634233223E-01  0.12484984375E-01  0.17124000127E+03  0.17124000000E+03 0.  1.
     -611    1    1    2    0    0 -0.16375833700E-01 -0.38512944355E-01  0.14518115609E+01  0.14524147082E+01  0.51109989000E-03 0. -1.
      611    1    1    2    0    0 -0.38325852210E-01 -0.83348522068E-01  0.31246477819E+01  0.31259942209E+01  0.51109989000E-03 0.  1.
</event>
<event>
 6   3  0.2312675E+03  0.9118800E+02  0.7818608E-02  0.1180000E+00
       11   -1    0    0    0    0  0.00000000000E+00  0.00000000000E+00  0.54999999763E+01  0.55000000000E+01  0.51109989000E-03 0. -1.
     -623   -1    0    0    0    0  0.00000000000E+00  0.00000000000E+00  0.93234578044E-11  0.17124000000E+03  0.17124000000E+03 0.  1.
       11    1    1    2    0    0  0.57962852404E-01  0.18833551329E-01  0.94130575864E+00  0.94327683497E+00  0.51109989000E-03 0. -1.
     -623    1    1    2    0    0  0.13630801166E-02 -0.24615916355E-02  0.24116257963E-02  0.17124000004E+03  0.17124000000E+03 0.  1.
     -611    1    1    2    0    0 -0.41193331949E-01 -0.15392712206E-01  0.35941311422E+01  0.35944001940E+01  0.51109989000E-03 0.  1.
      611    1    1    2    0    0 -0.18132600572E-01 -0.97924748771E-03  0.96215144963E+00  0.96232293092E+00  0.51109989000E-03 0. -1.
</event>
<event>
 6   3  0.2312675E+03  0.9118800E+02  0.7818608E-02  0.1180000E+00
       11   -1    0    0    0    0  0.00000000000E+00  0.00000000000E+00  0.54999999763E+01  0.55000000000E+01  0.51109989000E-03 0.  1.
     -623   -1    0    0    0    0  0.00000000000E+00  0.00000000000E+00  0.93234578044E-11  0.17124000000E+03  0.17124000000E+03 0. -1.
       11    1    1    2    0    0 -0.76099788694E-03  0.10244921871E-02 -0.48785505962E-03  0.14587418147E-02  0.51109989000E-03 0.  1.
     -623    1    1    2    0    0 -0.28008144923E-02 -0.23833498615E-02  0.26720154468E-02  0.17124000006E+03  0.17124000000E+03 0. -1.
     -611    1    1    2    0    0 -0.39283737168E-01 -0.13484229210E-01  0.32709735495E+01  0.32712372674E+01  0.51109989000E-03 0. -1.
      611    1    1    2    0    0  0.42845549547E-01  0.14843086884E-01  0.22268422664E+01  0.22273039305E+01  0.51109989000E-03 0.  1.
</event>
<event>
 6   3  0.2312675E+03  0.9118800E+02  0.7818608E-02  0.1180000E+00
       11   -1    0    0    0    0  0.00000000000E+00  0.00000000000E+00  0.54999999763E+01  0.55000000000E+01  0.51109989000E-03 0. -1.
     -623   -1    0    0    0    0  0.00000000000E+00  0.00000000000E+00  0.93234578044E-11  0.17124000000E+03  0.17124000000E+03 0. -1.
       11    1    1    2    0    0  0.79732645986E-02 -0.12029037148E-01  0.19825996659E+00  0.19878517615E+00  0.51109989000E-03 0. -1.
     -623    1    1    2    0    0 -0.73241723654E-03 -0.87135394419E-02  0.11485502942E-02  0.17124000023E+03  0.17124000000E+03 0. -1.
     -611    1    1    2    0    0  0.30999461296E-01 -0.73077675806E-02  0.15816010546E+01  0.15819217829E+01  0.51109989000E-03 0.  1.
      611    1    1    2    0    0 -0.38240308658E-01  0.28050344171E-01  0.37189904049E+01  0.37192928140E+01  0.51109989000E-03 0. -1.
</event>
<event>
 6   3  0.2312675E+03  0.9118800E+02  0.7818608E-02  0.1180000E+00
       11   -1    0    0    0    0  0.00000000000E+00  0.00000000000E+00  0.54999999763E+01  0.55000000000E+01  0.51109989000E-03 0.  1.
     -623   -1    0    0    0    0  0.00000000000E+00  0.00000000000E+00  0.93234578044E-11  0.17124000000E+03  0.17124000000E+03 0.  1.
       11    1    1    2    0    0  0.12115651697E-02  0.87345863244E-02  0.41135176600E+00  0.41144659132E+00  0.51109989000E-03 0.  1.
     -623    1    1    2    0    0 -0.73398253167E-01 -0.37053953006E-01  0.70575051937E-03  0.17124001974E+03  0.17124000000E+03 0.  1.
     -611    1    1    2    0    0  0.34392369873E-01  0.13158542181E-01  0.23689403418E+01  0.23692265799E+01  0.51109989000E-03 0.  1.
      611    1    1    2    0    0  0.37794318089E-01  0.15160824489E-01  0.27190021155E+01  0.27193070857E+01  0.51109989000E-03 0.  1.
</event>
<event>
 6   3  0.2312675E+03  0.9118800E+02  0.7818608E-02  0.1180000E+00
       11   -1    0    0    0    0  0.00000000000E+00  0.00000000000E+00  0.54999999763E+01  0.55000000000E+01  0.51109989000E-03 0.  1.
     -623   -1    0    0    0    0  0.00000000000E+00  0.00000000000E+00  0.93234578044E-11  0.17124000000E+03  0.17124000000E+03 0. -1.
       11    1    1    2    0    0 -0.63370838462E-02  0.14244445143E-01  0.34494562923E+00  0.34529814826E+00  0.51109989000E-03 0.  1.
     -623    1    1    2    0    0 -0.13745598571E-02 -0.14386494832E-02  0.13517772943E-02  0.17124000002E+03  0.17124000000E+03 0. -1.
     -611    1    1    2    0    0  0.43523936387E-01  0.22136123313E-01  0.31292232397E+01  0.31296042379E+01  0.51109989000E-03 0.  1.
      611    1    1    2    0    0 -0.35812292683E-01 -0.34941918972E-01  0.20244793302E+01  0.20250975970E+01  0.51109989000E-03 0. -1.
</event>
<event>
 6   3  0.2312675E+03  0.9118800E+02  0.7818608E-02  0.1180000E+00
       11   -1    0    0    0    0  0.00000000000E+00  0.00000000000E+00  0.54999999763E+01  0.55000000000E+01  0.51109989000E-03 0.  1.
     -623   -1    0    0    0    0  0.00000000000E+00  0.00000000000E+00  0.93234578044E-11  0.17124000000E+03  0.17124000000E+03 0. -1.
       11    1    1    2    0    0  0.28435115913E-01  0.10727071391E-02  0.27759054931E+00  0.27904566079E+00  0.51109989000E-03 0.  1.
     -623    1    1    2    0    0 -0.58544918169E-02  0.23028935253E-01  0.21638069967E-02  0.17124000166E+03  0.17124000000E+03 0. -1.
     -611    1    1    2    0    0 -0.50598920905E-01 -0.98785397598E-02  0.38588228458E+01  0.38591672487E+01  0.51109989000E-03 0.  1.
      611    1    1    2    0    0  0.28018296810E-01 -0.14223102632E-01  0.13614227741E+01  0.13617854283E+01  0.51109989000E-03 0. -1.
</event>
<event>
 6   3  0.2312675E+03  0.9118800E+02  0.7818608E-02  0.1180000E+00
       11   -1    0    0    0    0  0.00000000000E+00  0.00000000000E+00  0.54999999763E+01  0.55000000000E+01  0.51109989000E-03 0.  1.
     -623   -1    0    0    0    0  0.00000000000E+00  0.00000000000E+00  0.93234578044E-11  0.17124000000E+03  0.17124000000E+03 0.  1.
       11    1    1    2    0    0  0.39743193890E-02  0.30558418914E-02  0.32474697897E-02  0.59950535781E-02  0.51109989000E-03 0.  1.
     -623    1    1    2    0    0 -0.67101437308E-02 -0.88879767891E-03  0.47423563801E-02  0.17124000020E+03  0.17124000000E+03 0.  1.
     -611    1    1    2    0    0 -0.60890318481E-01 -0.26405054475E-01  0.15682008395E+01  0.15696047248E+01  0.51109989000E-03 0. -1.
      611    1    1    2    0    0  0.63626142823E-01  0.24238010263E-01  0.39238093106E+01  0.39244000222E+01  0.51109989000E-03 0.  1.
</event>
<event>
 6   3  0.2312675E+03  0.9118800E+02  0.7818608E-02  0.1180000E+00
       11   -1    0    0    0    0  0.00000000000E+00  0.00000000000E+00  0.54999999763E+01  0.55000000000E+01  0.51109989000E-03 0.  1.
     -623   -1    0    0    0    0  0.00000000000E+00  0.00000000000E+00  0.93234578044E-11  0.17124000000E+03  0.17124000000E+03 0.  1.
       11    1    1    2    0    0  0.86534547878E-02  0.78937712702E-02  0.68141543221E-01  0.69142787333E-01  0.51109989000E-03 0.  1.
     -623    1    1    2    0    0 -0.10932709493E-02  0.27123622386E-02  0.20009439469E-02  0.17124000004E+03  0.17124000000E+03 0.  1.
     -611    1    1    2    0    0  0.34293458370E-01  0.29970073115E-01  0.26063809224E+01  0.26067788591E+01  0.51109989000E-03 0. -1.
      611    1    1    2    0    0 -0.41853642208E-01 -0.40576206624E-01  0.28234765667E+01  0.28240783169E+01  0.51109989000E-03 0.  1.
</event>
<event>
 6   3  0.2312675E+03  0.9118800E+02  0.7818608E-02  0.1180000E+00
       11   -1    0    0    0    0  0.00000000000E+00  0.00000000000E+00  0.54999999763E+01  0.55000000000E+01  0.51109989000E-03 0. -1.
     -623   -1    0    0    0    0  0.00000000000E+00  0.00000000000E+00  0.93234578044E-11  0.17124000000E+03  0.17124000000E+03 0. -1.
       11    1    1    2    0    0 -0.58539945742E-02 -0.18831669845E-01  0.69653542853E+00  0.69681472822E+00  0.51109989000E-03 0. -1.
     -623    1    1    2    0    0  0.78995495871E-02  0.15944573147E-01  0.92402625976E-03  0.17124000093E+03  0.17124000000E+03 0. -1.
     -611    1    1    2    0    0  0.35822681089E-01  0.96610337904E-02  0.16976307032E+01  0.16980361792E+01  0.51109989000E-03 0.  1.
      611    1    1    2    0    0 -0.37868236101E-01 -0.67739370915E-02  0.31049098181E+01  0.31051481654E+01  0.51109989000E-03 0. -1.
</event>
<event>
 6   3  0.2312675E+03  0.9118800E+02  0.7818608E-02  0.1180000E+00
       11   -1    0    0    0    0  0.00000000000E+00  0.00000000000E+00  0.54999999763E+01  0.55000000000E+01  0.51109989000E-03 0. -1.
     -623   -1    0    0    0    0  0.00000000000E+00  0.00000000000E+00  0.93234578044E-11  0.17124000000E+03  0.17124000000E+03 0.  1.
       11    1    1    2    0    0 -0.10830831421E-01  0.50849703158E-02  0.31439229418E-01  0.33642981465E-01  0.51109989000E-03 0. -1.
     -623    1    1    2    0    0  0.86787316239E-02 -0.11485639729E-01  0.38604729650E-02  0.17124000065E+03  0.17124000000E+03 0.  1.
     -611    1    1    2    0    0  0.67875008081E-01 -0.35996021356E-02  0.28643692651E+01  0.28651756529E+01  0.51109989000E-03 0.  1.
      611    1    1    2    0    0 -0.65722908284E-01  0.10000271549E-01  0.26003310088E+01  0.26011807170E+01  0.51109989000E-03 0. -1.
</event>
<event>
 6   3  0.2312675E+03  0.9118800E+02  0.7818608E-02  0.1180000E+00
       11   -1    0    0    0    0  0.00000000000E+00  0.00000000000E+00  0.54999999763E+01  0.55000000000E+01  0.51109989000E-03 0. -1.
     -623   -1    0    0    0    0  0.00000000000E+00  0.00000000000E+00  0.93234578044E-11  0.17124000000E+03  0.17124000000E+03 0.  1.
       11    1    1    2    0    0 -0.66231645335E-01 -0.33193742120E-01  0.25239683014E+00  0.26304538857E+00  0.51109989000E-03 0. -1.
     -623    1    1    2    0    0  0.76788951820E-03  0.13461895557E-01  0.11190584381E-01  0.17124000090E+03  0.17124000000E+03 0.  1.
     -611    1    1    2    0    0  0.19989784709E-01  0.12858530368E-01  0.96201018327E+00  0.96230389547E+00  0.51109989000E-03 0.  1.
      611    1    1    2    0    0  0.45473971108E-01  0.68733161944E-02  0.42744023785E+01  0.42746498194E+01  0.51109989000E-03 0. -1.
</event>
<event>
 6   3  0.2312675E+03  0.9118800E+02  0.7818608E-02  0.1180000E+00
       11   -1    0    0    0    0  0.00000000000E+00  0.00000000000E+00  0.54999999763E+01  0.55000000000E+01  0.51109989000E-03 0. -1.
     -623   -1    0    0    0    0  0.00000000000E+00  0.00000000000E+00  0.93234578044E-11  0.17124000000E+03  0.17124000000E+03 0. -1.
       11    1    1    2    0    0 -0.79643503419E-01  0.44874975277E-01  0.51406326394E+00  0.52212848189E+00  0.51109989000E-03 0. -1.
     -623    1    1    2    0    0  0.19935617725E-01 -0.26453929756E-01  0.84654265150E-02  0.17124000341E+03  0.17124000000E+03 0. -1.
     -611    1    1    2    0    0  0.43611755482E-01 -0.16457781845E-01  0.36481166885E+01  0.36484145157E+01  0.51109989000E-03 0. -1.
      611    1    1    2    0    0  0.16096130213E-01 -0.19632636773E-02  0.13293545973E+01  0.13294535894E+01  0.51109989000E-03 0.  1.
</event>
<event>
 6   3  0.2312675E+03  0.9118800E+02  0.7818608E-02  0.1180000E+00
       11   -1    0    0    0    0  0.00000000000E+00  0.00000000000E+00  0.54999999763E+01  0.55000000000E+01  0.51109989000E-03 0. -1.
     -623   -1    0    0    0    0  0.00000000000E+00  0.00000000000E+00  0.93234578044E-11  0.17124000000E+03  0.17124000000E+03 0.  1.
       11    1    1    2    0    0  0.16135222662E-01 -0.35220667624E-01  0.71225444730E+00  0.71330743706E+00  0.51109989000E-03 0. -1.
     -623    1    1    2    0    0 -0.39493646333E-03 -0.42445751880E-02  0.15047279483E-02  0.17124000006E+03  0.17124000000E+03 0.  1.
     -611    1    1    2    0    0 -0.34129790925E-01  0.24209118749E-01  0.30890034267E+01  0.30892868685E+01  0.51109989000E-03 0. -1.
      611    1    1    2    0    0  0.18389504725E-01  0.15256124064E-01  0.16972373743E+01  0.16974056348E+01  0.51109989000E-03 0.  1.
</event>
<event>
 6   3  0.2312675E+03  0.9118800E+02  0.7818608E-02  0.1180000E+00
       11   -1    0    0    0    0  0.00000000000E+00  0.00000000000E+00  0.54999999763E+01  0.55000000000E+01  0.51109989000E-03 0.  1.
     -623   -1    0    0    0    0  0.00000000000E+00  0.00000000000E+00  0.93234578044E-11  0.17124000000E+03  0.17124000000E+03 0. -1.
       11    1    1    2    0    0 -0.36550844528E-01  0.20637180045E-02  0.90727739843E+00  0.90801583802E+00  0.51109989000E-03 0.  1.
     -623    1    1    2    0    0 -0.14678081640E-01 -0.11758099206E-01  0.10357812262E-02  0.17124000104E+03  0.17124000000E+03 0. -1.
     -611    1    1    2    0    0  0.36372409395E-01  0.65073251993E-02  0.32112357040E+01  0.32114483190E+01  0.51109989000E-03 0.  1.
      611    1    1    2    0    0  0.14856516794E-01  0.31870560063E-02  0.13804510944E+01  0.13805348089E+01  0.51109989000E-03 0.  1.
</event>
<event>
 6   3  0.2312675E+03  0.9118800E+02  0.7818608E-02  0.1180000E+00
       11   -1    0    0    0    0  0.00000000000E+00  0.00000000000E+00  0.54999999763E+01  0.55000000000E+01  0.51109989000E-03 0.  1.
     -623   -1    0    0    0    0  0.00000000000E+00  0.00000000000E+00  0.93234578044E-11  0.17124000000E+03  0.17124000000E+03 0. -1.
       11    1    1    2    0    0  0.99442344985E-02  0.53198308917E-02  0.49452990846E-01  0.50725219834E-01  0.51109989000E-03 0.  1.
     -623    1    1    2    0    0 -0.18815780702E-01  0.11236553905E-01  0.19676692166E-02  0.17124000141E+03  0.17124000000E+03 0. -1.
     -611    1    1    2    0    0 -0.26024825389E-01 -0.36990281285E-01  0.24040983215E+01  0.24045237726E+01  0.51109989000E-03 0.  1.
      611    1    1    2    0    0  0.34896371592E-01  0.20433896489E-01  0.30444809947E+01  0.30447495939E+01  0.51109989000E-03 0. -1.
</event>
<event>
 6   3  0.2312675E+03  0.9118800E+02  0.7818608E-02  0.1180000E+00
       11   -1    0    0    0    0  0.00000000000E+00  0.00000000000E+00  0.54999999763E+01  0.55000000000E+01  0.51109989000E-03 0. -1.
     -623   -1    0    0    0    0  0.00000000000E+00  0.00000000000E+00  0.93234578044E-11  0.17124000000E+03  0.17124000000E+03 0.  1.
       11    1    1    2    0    0  0.76418496903E-02 -0.38798837341E-02  0.18636500536E+00  0.18656266457E+00  0.51109989000E-03 0. -1.
     -623    1    1    2    0    0  0.43960175358E-02  0.13891624595E-02  0.68747660666E-03  0.17124000006E+03  0.17124000000E+03 0.  1.
     -611    1    1    2    0    0 -0.40524054306E-01  0.11700230005E-01  0.30485775929E+01  0.30488694127E+01  0.51109989000E-03 0.  1.
      611    1    1    2    0    0  0.28486187080E-01 -0.92095087303E-02  0.22643699015E+01  0.22645678594E+01  0.51109989000E-03 0. -1.
</event>
<event>
 6   3  0.2312675E+03  0.9118800E+02  0.7818608E-02  0.1180000E+00
       11   -1    0    0    0    0  0.00000000000E+00  0.00000000000E+00  0.54999999763E+01  0.55000000000E+01  0.51109989000E-03 0.  1.
     -623   -1    0    0    0    0  0.00000000000E+00  0.00000000000E+00  0.93234578044E-11  0.17124000000E+03  0.17124000000E+03 0. -1.
       11    1    1    2    0    0  0.79464582776E-03 -0.36802668374E-03  0.18906469745E-02  0.21453845136E-02  0.51109989000E-03 0. -1.
     -623    1    1    2    0    0  0.15334369591E-02 -0.29323817303E-02  0.13887009502E-02  0.17124000004E+03  0.17124000000E+03 0. -1.
     -611    1    1    2    0    0  0.51054334932E-01  0.18083216693E-01  0.32490941746E+01  0.32495456243E+01  0.51109989000E-03 0.  1.
      611    1    1    2    0    0 -0.53382417719E-01 -0.14782808279E-01  0.22476264537E+01  0.22483089535E+01  0.51109989000E-03 0. -1.
</event>
<event>
 6   3  0.2312675E+03  0.9118800E+02  0.7818608E-02  0.1180000E+00
       11   -1    0    0    0    0  0.00000000000E+00  0.00000000000E+00  0.54999999763E+01  0.55000000000E+01  0.51109989000E-03 0.  1.
     -623   -1    0    0    0    0  0.00000000000E+00  0.00000000000E+00  0.93234578044E-11  0.17124000000E+03  0.17124000000E+03 0. -1.
       11    1    1    2    0    0  0.20112442254E-02 -0.84046890498E-03  0.23955768722E+00  0.23956814943E+00  0.51109989000E-03 0.  1.
     -623    1    1    2    0    0  0.94357319755E-03  0.22423075027E-02  0.11210137443E-02  0.17124000002E+03  0.17124000000E+03 0. -1.
     -611    1    1    2    0    0 -0.45579415712E-01 -0.30177761040E-01  0.32089556942E+01  0.32094213013E+01  0.51109989000E-03 0. -1.
      611    1    1    2    0    0  0.42624598289E-01  0.28775922442E-01  0.20503655811E+01  0.20510105284E+01  0.51109989000E-03 0.  1.
</event>
<event>
 6   3  0.2312675E+03  0.9118800E+02  0.7818608E-02  0.1180000E+00
       11   -1    0    0    0    0  0.00000000000E+00  0.00000000000E+00  0.54999999763E+01  0.55000000000E+01  0.51109989000E-03 0. -1.
     -623   -1    0    0    0    0  0.00000000000E+00  0.00000000000E+00  0.93234578044E-11  0.17124000000E+03  0.17124000000E+03 0.  1.
       11    1    1    2    0    0 -0.92376982001E-04  0.79658910083E-03  0.16137629723E-02  0.18731101758E-02  0.51109989000E-03 0. -1.
     -623    1    1    2    0    0  0.67669808861E-03 -0.16782502271E-03  0.91968163470E-03  0.17124000000E+03  0.17124000000E+03 0.  1.
     -611    1    1    2    0    0 -0.42526030927E-01 -0.17029085121E-02  0.31171224680E+01  0.31174130469E+01  0.51109989000E-03 0.  1.
      611    1    1    2    0    0  0.41941709820E-01  0.10741444339E-02  0.23803440636E+01  0.23807138390E+01  0.51109989000E-03 0. -1.
</event>
<event>
 6   3  0.2312675E+03  0.9118800E+02  0.7818608E-02  0.1180000E+00
       11   -1    0    0    0    0  0.00000000000E+00  0.00000000000E+00  0.54999999763E+01  0.55000000000E+01  0.51109989000E-03 0. -1.
     -623   -1    0    0    0    0  0.00000000000E+00  0.00000000000E+00  0.93234578044E-11  0.17124000000E+03  0.17124000000E+03 0. -1.
       11    1    1    2    0    0  0.12496635110E-01 -0.19725591280E-01  0.12268036001E+00  0.12488393330E+00  0.51109989000E-03 0. -1.
     -623    1    1    2    0    0  0.72523367438E-02 -0.87595091312E-02  0.37457884926E-02  0.17124000042E+03  0.17124000000E+03 0. -1.
     -611    1    1    2    0    0  0.44220304525E-01  0.28885885949E-01  0.36017726211E+01  0.36021599222E+01  0.51109989000E-03 0.  1.
      611    1    1    2    0    0 -0.63969276378E-01 -0.40078553826E-03  0.17718012067E+01  0.17729557259E+01  0.51109989000E-03 0. -1.
</event>
<event>
 6   3  0.2312675E+03  0.9118800E+02  0.7818608E-02  0.1180000E+00
       11   -1    0    0    0    0  0.00000000000E+00  0.00000000000E+00  0.54999999763E+01  0.55000000000E+01  0.51109989000E-03 0. -1.
     -623   -1    0    0    0    0  0.00000000000E+00  0.00000000000E+00  0.93234578044E-11  0.17124000000E+03  0.17124000000E+03 0. -1.
       11    1    1    2    0    0 -0.24427434569E-01 -0.17884609674E-01  0.67137271493E+00  0.67205516321E+00  0.51109989000E-03 0. -1.
     -623    1    1    2    0    0  0.23893205590E-02  0.13116221020E-01  0.15078972536E-02  0.17124000053E+03  0.17124000000E+03 0. -1.
     -611    1    1    2    0    0 -0.29380197429E-01  0.75328224699E-03  0.88599798778E+00  0.88648545335E+00  0.51109989000E-03 0.  1.
      611    1    1    2    0    0  0.51418311440E-01  0.40151064071E-02  0.39411213763E+01  0.39414588578E+01  0.51109989000E-03 0. -1.
</event>
<event>
 6   3  0.2312675E+03  0.9118800E+02  0.7818608E-02  0.1180000E+00
       11   -1    0    0    0    0  0.00000000000E+00  0.00000000000E+00  0.54999999763E+01  0.55000000000E+01  0.51109989000E-03 0. -1.
     -623   -1    0    0    0    0  0.00000000000E+00  0.00000000000E+00  0.93234578044E-11  0.17124000000E+03  0.17124000000E+03 0.  1.
       11    1    1    2    0    0 -0.14162611617E-01 -0.18614860996E-01  0.69322214021E+00  0.69361681750E+00  0.51109989000E-03 0. -1.
     -623    1    1    2    0    0 -0.36137965500E-01  0.51939755587E-01  0.78598152341E-03  0.17124001169E+03  0.17124000000E+03 0.  1.
     -611    1    1    2    0    0  0.42266584052E-01 -0.27680671611E-01  0.40928154645E+01  0.40931273339E+01  0.51109989000E-03 0. -1.
      611    1    1    2    0    0  0.80339930639E-02 -0.56442229789E-02  0.71317638994E+00  0.71324415644E+00  0.51109989000E-03 0.  1.
</event>
<event>
 6   3  0.2312675E+03  0.9118800E+02  0.7818608E-02  0.1180000E+00
       11   -1    0    0    0    0  0.00000000000E+00  0.00000000000E+00  0.54999999763E+01  0.55000000000E+01  0.51109989000E-03 0.  1.
     -623   -1    0    0    0    0  0.00000000000E+00  0.00000000000E+00  0.93234578044E-11  0.17124000000E+03  0.17124000000E+03 0. -1.
       11    1    1    2    0    0  0.35003109620E-02  0.89249815574E-02  0.48365178359E+00  0.48374705835E+00  0.51109989000E-03 0.  1.
     -623    1    1    2    0    0 -0.65577500649E-01 -0.86219339339E-01  0.11094833045E-02  0.17124003427E+03  0.17124000000E+03 0. -1.
     -611    1    1    2    0    0  0.49400620498E-01  0.61159277429E-01  0.39608744988E+01  0.39616546966E+01  0.51109989000E-03 0.  1.
      611    1    1    2    0    0  0.12676569184E-01  0.16135080345E-01  0.10543642101E+01  0.10545639786E+01  0.51109989000E-03 0.  1.
</event>
<event>
 6   3  0.2312675E+03  0.9118800E+02  0.7818608E-02  0.1180000E+00
       11   -1    0    0    0    0  0.00000000000E+00  0.00000000000E+00  0.54999999763E+01  0.55000000000E+01  0.51109989000E-03 0. -1.
     -623   -1    0    0    0    0  0.00000000000E+00  0.00000000000E+00  0.93234578044E-11  0.17124000000E+03  0.17124000000E+03 0.  1.
       11    1    1    2    0    0 -0.72474399716E-02  0.33943437200E-02  0.58353233179E+00  0.58358743169E+00  0.51109989000E-03 0. -1.
     -623    1    1    2    0    0  0.57475455210E-01 -0.21084829490E-01  0.35508302185E-03  0.17124001094E+03  0.17124000000E+03 0.  1.
     -611    1    1    2    0    0 -0.21056817577E-01  0.64732564299E-02  0.20982955580E+01  0.20984112567E+01  0.51109989000E-03 0.  1.
      611    1    1    2    0    0 -0.29171197854E-01  0.11217229410E-01  0.28178170219E+01  0.28179903859E+01  0.51109989000E-03 0. -1.
</event>
<event>
 6   3  0.2312675E+03  0.9118800E+02  0.7818608E-02  0.1180000E+00
       11   -1    0    0    0    0  0.00000000000E+00  0.00000000000E+00  0.54999999763E+01  0.55000000000E+01  0.51109989000E-03 0.  1.
     -623   -1    0    0    0    0  0.00000000000E+00  0.00000000000E+00  0.93234578044E-11  0.17124000000E+03  0.17124000000E+03 0.  1.
       11    1    1    2    0    0 -0.26428305203E-02 -0.11617182987E-02  0.39942219677E+00  0.39943295638E+00  0.51109989000E-03 0.  1.
     -623    1    1    2    0    0 -0.70540280188E-01  0.80556708072E-02  0.55742950512E-03  0.17124001472E+03  0.17124000000E+03 0.  1.
     -611    1    1    2    0    0  0.24003237269E-01 -0.44424443263E-02  0.17173630095E+01  0.17175365668E+01  0.51109989000E-03 0.  1.
      611    1    1    2    0    0  0.49179873443E-01 -0.24515081826E-02  0.33826573407E+01  0.33830157576E+01  0.51109989000E-03 0. -1.
</event>
<event>
 6   3  0.2312675E+03  0.9118800E+02  0.7818608E-02  0.1180000E+00
       11   -1    0    0    0    0  0.00000000000E+00  0.00000000000E+00  0.54999999763E+01  0.55000000000E+01  0.51109989000E-03 0. -1.
     -623   -1    0    0    0    0  0.00000000000E+00  0.00000000000E+00  0.93234578044E-11  0.17124000000E+03  0.17124000000E+03 0. -1.
       11    1    1    2    0    0 -0.15777495744E-02 -0.70796338485E-02  0.50653619498E+00  0.50658838178E+00  0.51109989000E-03 0. -1.
     -623    1    1    2    0    0 -0.26237714591E-02 -0.21338413954E-03  0.11404272761E-02  0.17124000002E+03  0.17124000000E+03 0. -1.
     -611    1    1    2    0    0  0.45674545632E-01 -0.11798820429E-01  0.13929798908E+01  0.13937785382E+01  0.51109989000E-03 0.  1.
      611    1    1    2    0    0 -0.41473024599E-01  0.19091838417E-01  0.35993434633E+01  0.35996330561E+01  0.51109989000E-03 0. -1.
</event>
<event>
 6   3  0.2312675E+03  0.9118800E+02  0.7818608E-02  0.1180000E+00
       11   -1    0    0    0    0  0.00000000000E+00  0.00000000000E+00  0.54999999763E+01  0.55000000000E+01  0.51109989000E-03 0. -1.
     -623   -1    0    0    0    0  0.00000000000E+00  0.00000000000E+00  0.93234578044E-11  0.17124000000E+03  0.17124000000E+03 0. -1.
       11    1    1    2    0    0 -0.76338397900E-01  0.20357299290E-01  0.33213658742E+00  0.34140437103E+00  0.51109989000E-03 0. -1.
     -623    1    1    2    0    0  0.12236813696E-01  0.61388278520E-01  0.10331213965E-01  0.17124001175E+03  0.17124000000E+03 0. -1.
     -611    1    1    2    0    0  0.16401260922E-01 -0.26506797743E-01  0.15380403908E+01  0.15383563035E+01  0.51109989000E-03 0.  1.
      611    1    1    2    0    0  0.47700323282E-01 -0.55238780067E-01  0.36194917840E+01  0.36202275729E+01  0.51109989000E-03 0. -1.
</event>
<event>
 6   3  0.2312675E+03  0.9118800E+02  0.7818608E-02  0.1180000E+00
       11   -1    0    0    0    0  0.00000000000E+00  0.00000000000E+00  0.54999999763E+01  0.55000000000E+01  0.51109989000E-03 0. -1.
     -623   -1    0    0    0    0  0.00000000000E+00  0.00000000000E+00  0.93234578044E-11  0.17124000000E+03  0.17124000000E+03 0.  1.
       11    1    1    2    0    0 -0.51055275902E-02  0.12910347265E-01  0.97782033690E+00  0.97791902321E+00  0.51109989000E-03 0. -1.
     -623    1    1    2    0    0 -0.45719975550E-02 -0.33397026011E-02  0.15134441543E-02  0.17124000010E+03  0.17124000000E+03 0.  1.
     -611    1    1    2    0    0  0.41590555699E-01  0.36556054821E-01  0.26294758982E+01  0.26300589119E+01  0.51109989000E-03 0.  1.
      611    1    1    2    0    0 -0.31913030553E-01 -0.46126699485E-01  0.18911902970E+01  0.18920219647E+01  0.51109989000E-03 0. -1.
</event>
<event>
 6   3  0.2312675E+03  0.9118800E+02  0.7818608E-02  0.1180000E+00
       11   -1    0    0    0    0  0.00000000000E+00  0.00000000000E+00  0.54999999763E+01  0.55000000000E+01  0.51109989000E-03 0.  1.
     -623   -1    0    0    0    0  0.00000000000E+00  0.00000000000E+00  0.93234578044E-11  0.17124000000E+03  0.17124000000E+03 0. -1.
       11    1    1    2    0    0  0.10211421444E-01 -0.90421225478E-02  0.10107645248E+01  0.10108566758E+01  0.51109989000E-03 0. -1.
     -623    1    1    2    0    0 -0.56962614350E-01  0.49721155310E-01  0.53678048912E-03  0.17124001669E+03  0.17124000000E+03 0. -1.
     -611    1    1    2    0    0  0.10176466986E-01 -0.89422497322E-02  0.97078599817E+00  0.97088065166E+00  0.51109989000E-03 0.  1.
      611    1    1    2    0    0  0.36574729908E-01 -0.31736786510E-01  0.35179130578E+01  0.35182463640E+01  0.51109989000E-03 0.  1.
</event>
<event>
 6   3  0.2312675E+03  0.9118800E+02  0.7818608E-02  0.1180000E+00
       11   -1    0    0    0    0  0.00000000000E+00  0.00000000000E+00  0.54999999763E+01  0.55000000000E+01  0.51109989000E-03 0. -1.
     -623   -1    0    0    0    0  0.00000000000E+00  0.00000000000E+00  0.93234578044E-11  0.17124000000E+03  0.17124000000E+03 0. -1.
       11    1    1    2    0    0 -0.30173964105E-02 -0.13002849693E-01  0.24145001439E+00  0.24181924955E+00  0.51109989000E-03 0. -1.
     -623    1    1    2    0    0  0.56939254065E-02  0.87501809968E-03  0.12788013999E-02  0.17124000010E+03  0.17124000000E+03 0. -1.
     -611    1    1    2    0    0 -0.46264412216E-01  0.22969911546E-01  0.32204052339E+01  0.32208194833E+01  0.51109989000E-03 0.  1.
      611    1    1    2    0    0  0.43587883220E-01 -0.10842079952E-01  0.20368659265E+01  0.20373611654E+01  0.51109989000E-03 0. -1.
</event>
<event>
 6   3  0.2312675E+03  0.9118800E+02  0.7818608E-02  0.1180000E+00
       11   -1    0    0    0    0  0.00000000000E+00  0.00000000000E+00  0.54999999763E+01  0.55000000000E+01  0.51109989000E-03 0.  1.
     -623   -1    0    0    0    0  0.00000000000E+00  0.00000000000E+00  0.93234578044E-11  0.17124000000E+03  0.17124000000E+03 0. -1.
       11    1    1    2    0    0 -0.10556125584E-02  0.14398159780E-01  0.70824486233E-01  0.72282711599E-01  0.51109989000E-03 0.  1.
     -623    1    1    2    0    0 -0.50934240154E-02 -0.32403807142E-02  0.36172967590E-02  0.17124000014E+03  0.17124000000E+03 0. -1.
     -611    1    1    2    0    0  0.41526486006E-01  0.60031599300E-01  0.28339585987E+01  0.28348985594E+01  0.51109989000E-03 0.  1.
      611    1    1    2    0    0 -0.35377449432E-01 -0.71189378366E-01  0.25915995946E+01  0.25928185843E+01  0.51109989000E-03 0. -1.
</event>
<event>
 6   3  0.2312675E+03  0.9118800E+02  0.7818608E-02  0.1180000E+00
       11   -1    0    0    0    0  0.00000000000E+00  0.00000000000E+00  0.54999999763E+01  0.55000000000E+01  0.51109989000E-03 0.  1.
     -623   -1    0    0    0    0  0.00000000000E+00  0.00000000000E+00  0.93234578044E-11  0.17124000000E+03  0.17124000000E+03 0.  1.
       11    1    1    2    0    0 -0.10421320997E-01 -0.60915269815E-03  0.60784961227E-01  0.61676962740E-01  0.51109989000E-03 0.  1.
     -623    1    1    2    0    0  0.49049635197E-02 -0.27527697556E-02  0.17061233530E-02  0.17124000010E+03  0.17124000000E+03 0.  1.
     -611    1    1    2    0    0  0.46476145025E-01 -0.23849031431E-02  0.38268437038E+01  0.38271266917E+01  0.51109989000E-03 0.  1.
      611    1    1    2    0    0 -0.40959787548E-01  0.57468255968E-02  0.16106651879E+01  0.16111962447E+01  0.51109989000E-03 0. -1.
</event>
<event>
 6   3  0.2312675E+03  0.9118800E+02  0.7818608E-02  0.1180000E+00
       11   -1    0    0    0    0  0.00000000000E+00  0.00000000000E+00  0.54999999763E+01  0.55000000000E+01  0.51109989000E-03 0.  1.
     -623   -1    0    0    0    0  0.00000000000E+00  0.00000000000E+00  0.93234578044E-11  0.17124000000E+03  0.17124000000E+03 0.  1.
       11    1    1    2    0    0  0.37487381491E-03  0.31724602245E-02  0.66515595677E-02  0.73965871882E-02  0.51109989000E-03 0.  1.
     -623    1    1    2    0    0 -0.52901597802E-02  0.69072144432E-03  0.19890445789E-02  0.17124000009E+03  0.17124000000E+03 0.  1.
     -611    1    1    2    0    0  0.51143764108E-01 -0.33168855087E-01  0.32812746295E+01  0.32818408421E+01  0.51109989000E-03 0.  1.
      611    1    1    2    0    0 -0.46228478143E-01  0.29305673418E-01  0.22100847426E+01  0.22107624760E+01  0.51109989000E-03 0. -1.
</event>
<event>
 6   3  0.2312675E+03  0.9118800E+02  0.7818608E-02  0.1180000E+00
       11   -1    0    0    0    0  0.00000000000E+00  0.00000000000E+00  0.54999999763E+01  0.55000000000E+01  0.51109989000E-03 0. -1.
     -623   -1    0    0    0    0  0.00000000000E+00  0.00000000000E+00  0.93234578044E-11  0.17124000000E+03  0.17124000000E+03 0.  1.
       11    1    1    2    0    0  0.33356442401E-02  0.91364970636E-02  0.70749325597E+00  0.70756029465E+00  0.51109989000E-03 0. -1.
     -623    1    1    2    0    0 -0.58270029227E-01 -0.77091205728E-01  0.89135122007E-03  0.17124002727E+03  0.17124000000E+03 0.  1.
     -611    1    1    2    0    0  0.20628246614E-01  0.24407097808E-01  0.17655497215E+01  0.17658389823E+01  0.51109989000E-03 0. -1.
      611    1    1    2    0    0  0.34306138407E-01  0.43547610902E-01  0.30260656508E+01  0.30265734569E+01  0.51109989000E-03 0. -1.
</event>
<event>
 6   3  0.2312675E+03  0.9118800E+02  0.7818608E-02  0.1180000E+00
       11   -1    0    0    0    0  0.00000000000E+00  0.00000000000E+00  0.54999999763E+01  0.55000000000E+01  0.51109989000E-03 0.  1.
     -623   -1    0    0    0    0  0.00000000000E+00  0.00000000000E+00  0.93234578044E-11  0.17124000000E+03  0.17124000000E+03 0.  1.
       11    1    1    2    0    0 -0.45330547015E-01  0.25837293421E-01  0.87075379277E+00  0.87231579893E+00  0.51109989000E-03 0.  1.
     -623    1    1    2    0    0 -0.11446618072E-01 -0.38970680348E-01  0.19356141143E-02  0.17124000483E+03  0.17124000000E+03 0.  1.
     -611    1    1    2    0    0  0.99203770481E-02  0.11841534776E-02  0.87554216435E+00  0.87559931412E+00  0.51109989000E-03 0. -1.
      611    1    1    2    0    0  0.46856788038E-01  0.11949233449E-01  0.37517684049E+01  0.37520800588E+01  0.51109989000E-03 0.  1.
</event>
<event>
 6   3  0.2312675E+03  0.9118800E+02  0.7818608E-02  0.1180000E+00
       11   -1    0    0    0    0  0.00000000000E+00  0.00000000000E+00  0.54999999763E+01  0.55000000000E+01  0.51109989000E-03 0. -1.
     -623   -1    0    0    0    0  0.00000000000E+00  0.00000000000E+00  0.93234578044E-11  0.17124000000E+03  0.17124000000E+03 0. -1.
       11    1    1    2    0    0  0.10046561044E-01 -0.30386732219E-01  0.98975547149E+00  0.99027291261E+00  0.51109989000E-03 0. -1.
     -623    1    1    2    0    0  0.14617774485E-01  0.42183880414E-01  0.24015180621E-02  0.17124000584E+03  0.17124000000E+03 0. -1.
     -611    1    1    2    0    0 -0.50393352319E-01 -0.58243587372E-01  0.27112319728E+01  0.27123257321E+01  0.51109989000E-03 0. -1.
      611    1    1    2    0    0  0.25729016790E-01  0.46446439177E-01  0.17966110138E+01  0.17973955186E+01  0.51109989000E-03 0.  1.
</event>
<event>
 6   3  0.2312675E+03  0.9118800E+02  0.7818608E-02  0.1180000E+00
       11   -1    0    0    0    0  0.00000000000E+00  0.00000000000E+00  0.54999999763E+01  0.55000000000E+01  0.51109989000E-03 0.  1.
     -623   -1    0    0    0    0  0.00000000000E+00  0.00000000000E+00  0.93234578044E-11  0.17124000000E+03  0.17124000000E+03 0. -1.
       11    1    1    2    0    0  0.31325949200E-02  0.11411447485E-01  0.10033836055E+01  0.10034535143E+01  0.51109989000E-03 0.  1.
     -623    1    1    2    0    0  0.65392942931E-02  0.33662731995E-02  0.54524432525E-03  0.17124000016E+03  0.17124000000E+03 0. -1.
     -611    1    1    2    0    0 -0.35278653928E-01 -0.12971011427E-01  0.32009278415E+01  0.32011485655E+01  0.51109989000E-03 0. -1.
      611    1    1    2    0    0  0.25606764714E-01 -0.18067092578E-02  0.12951432849E+01  0.12953977614E+01  0.51109989000E-03 0.  1.
</event>
<event>
 6   3  0.2312675E+03  0.9118800E+02  0.7818608E-02  0.1180000E+00
       11   -1    0    0    0    0  0.00000000000E+00  0.00000000000E+00  0.54999999763E+01  0.55000000000E+01  0.51109989000E-03 0.  1.
     -623   -1    0    0    0    0  0.00000000000E+00  0.00000000000E+00  0.93234578044E-11  0.17124000000E+03  0.17124000000E+03 0.  1.
       11    1    1    2    0    0  0.55752913854E-01  0.38376219076E-01  0.14922482344E+00  0.16385795906E+00  0.51109989000E-03 0.  1.
     -623    1    1    2    0    0  0.26965837152E-01 -0.86841812075E-02  0.15360670897E-01  0.17124000303E+03  0.17124000000E+03 0.  1.
     -611    1    1    2    0    0 -0.54604849605E-01 -0.19873259438E-01  0.35991926656E+01  0.35996617537E+01  0.51109989000E-03 0.  1.
      611    1    1    2    0    0 -0.28113901369E-01 -0.98187784188E-02  0.17362218143E+01  0.17364772528E+01  0.51109989000E-03 0. -1.
</event>
<event>
 6   3  0.2312675E+03  0.9118800E+02  0.7818608E-02  0.1180000E+00
       11   -1    0    0    0    0  0.00000000000E+00  0.00000000000E+00  0.54999999763E+01  0.55000000000E+01  0.51109989000E-03 0.  1.
     -623   -1    0    0    0    0  0.00000000000E+00  0.00000000000E+00  0.93234578044E-11  0.17124000000E+03  0.17124000000E+03 0.  1.
       11    1    1    2    0    0  0.62360693324E-01 -0.12364937932E+00  0.21123568212E+00  0.25258424278E+00  0.51109989000E-03 0.  1.
     -623    1    1    2    0    0  0.73423580361E-01 -0.47377120889E-02  0.44698910860E-01  0.17124002164E+03  0.17124000000E+03 0.  1.
     -611    1    1    2    0    0 -0.98356725517E-01  0.92324358062E-01  0.37905535378E+01  0.37929532316E+01  0.51109989000E-03 0.  1.
      611    1    1    2    0    0 -0.37427548173E-01  0.36062733349E-01  0.14535118457E+01  0.14544408853E+01  0.51109989000E-03 0.  1.
</event>
<event>
 6   3  0.2312675E+03  0.9118800E+02  0.7818608E-02  0.1180000E+00
       11   -1    0    0    0    0  0.00000000000E+00  0.00000000000E+00  0.54999999763E+01  0.55000000000E+01  0.51109989000E-03 0. -1.
     -623   -1    0    0    0    0  0.00000000000E+00  0.00000000000E+00  0.93234578044E-11  0.17124000000E+03  0.17124000000E+03 0.  1.
       11    1    1    2    0    0 -0.99324586223E-03 -0.23385428938E-02  0.67640788838E-02  0.72435700075E-02  0.51109989000E-03 0. -1.
     -623    1    1    2    0    0  0.97930334166E-03  0.17905216134E-02  0.12032627936E-02  0.17124000002E+03  0.17124000000E+03 0.  1.
     -611    1    1    2    0    0  0.40376807385E-01 -0.15946432822E-01  0.33390552707E+01  0.33393374997E+01  0.51109989000E-03 0. -1.
      611    1    1    2    0    0 -0.40362864865E-01  0.16494454103E-01  0.21529773638E+01  0.21534189138E+01  0.51109989000E-03 0.  1.
</event>
<event>
 6   3  0.2312675E+03  0.9118800E+02  0.7818608E-02  0.1180000E+00
       11   -1    0    0    0    0  0.00000000000E+00  0.00000000000E+00  0.54999999763E+01  0.55000000000E+01  0.51109989000E-03 0. -1.
     -623   -1    0    0    0    0  0.00000000000E+00  0.00000000000E+00  0.93234578044E-11  0.17124000000E+03  0.17124000000E+03 0. -1.
       11    1    1    2    0    0  0.15909232399E-01 -0.47258599662E-04  0.62511714078E+00  0.62531976366E+00  0.51109989000E-03 0. -1.
     -623    1    1    2    0    0  0.71280126985E-02 -0.70042268414E-02  0.37528415904E-02  0.17124000033E+03  0.17124000000E+03 0. -1.
     -611    1    1    2    0    0 -0.80608807331E-01  0.63978808722E-01  0.23551347516E+01  0.23573822404E+01  0.51109989000E-03 0.  1.
      611    1    1    2    0    0  0.57571562233E-01 -0.56927323281E-01  0.25159952423E+01  0.25172976632E+01  0.51109989000E-03 0. -1.
</event>
<event>
 6   3  0.2312675E+03  0.9118800E+02  0.7818608E-02  0.1180000E+00
       11   -1    0    0    0    0  0.00000000000E+00  0.00000000000E+00  0.54999999763E+01  0.55000000000E+01  0.51109989000E-03 0.  1.
     -623   -1    0    0    0    0  0.00000000000E+00  0.00000000000E+00  0.93234578044E-11  0.17124000000E+03  0.17124000000E+03 0.  1.
       11    1    1    2    0    0  0.42136223872E-01 -0.52153020145E-01  0.10885544061E+01  0.10906174192E+01  0.51109989000E-03 0.  1.
     -623    1    1    2    0    0  0.24065064428E-01 -0.98088569511E-02  0.30100625891E-02  0.17124000200E+03  0.17124000000E+03 0.  1.
     -611    1    1    2    0    0 -0.35794765396E-01  0.27857553892E-01  0.23538592653E+01  0.23542962878E+01  0.51109989000E-03 0.  1.
      611    1    1    2    0    0 -0.30406522905E-01  0.34104323205E-01  0.20545762423E+01  0.20550842946E+01  0.51109989000E-03 0. -1.
</event>
<event>
 6   3  0.2312675E+03  0.9118800E+02  0.7818608E-02  0.1180000E+00
       11   -1    0    0    0    0  0.00000000000E+00  0.00000000000E+00  0.54999999763E+01  0.55000000000E+01  0.51109989000E-03 0. -1.
     -623   -1    0    0    0    0  0.00000000000E+00  0.00000000000E+00  0.93234578044E-11  0.17124000000E+03  0.17124000000E+03 0.  1.
       11    1    1    2    0    0 -0.16648208121E-01 -0.24354598984E-02  0.39310439607E+00  0.39346463847E+00  0.51109989000E-03 0. -1.
     -623    1    1    2    0    0  0.85055878067E-02  0.10617056738E-01  0.63520771763E-03  0.17124000054E+03  0.17124000000E+03 0.  1.
     -611    1    1    2    0    0  0.30174925740E-01 -0.33322050656E-02  0.29872708163E+01  0.29874251155E+01  0.51109989000E-03 0. -1.
      611    1    1    2    0    0 -0.22032305426E-01 -0.48493917742E-02  0.21189895562E+01  0.21191097044E+01  0.51109989000E-03 0.  1.
</event>
<event>
 6   3  0.2312675E+03  0.9118800E+02  0.7818608E-02  0.1180000E+00
       11   -1    0    0    0    0  0.00000000000E+00  0.00000000000E+00  0.54999999763E+01  0.55000000000E+01  0.51109989000E-03 0.  1.
     -623   -1    0    0    0    0  0.00000000000E+00  0.00000000000E+00  0.93234578044E-11  0.17124000000E+03  0.17124000000E+03 0. -1.
       11    1    1    2    0    0 -0.97712212973E-02 -0.50312031632E-02  0.67585516291E+00  0.67594471092E+00  0.51109989000E-03 0.  1.
     -623    1    1    2    0    0  0.72864052564E-01  0.44287247785E-01  0.68330139890E-03  0.17124002123E+03  0.17124000000E+03 0. -1.
     -611    1    1    2    0    0 -0.17471502810E-01 -0.10483712177E-01  0.13289001589E+01  0.13290564529E+01  0.51109989000E-03 0.  1.
      611    1    1    2    0    0 -0.45621327440E-01 -0.28772331827E-01  0.34945612764E+01  0.34949775290E+01  0.51109989000E-03 0.  1.
</event>
<event>
 6   3  0.2312675E+03  0.9118800E+02  0.7818608E-02  0.1180000E+00
       11   -1    0    0    0    0  0.00000000000E+00  0.00000000000E+00  0.54999999763E+01  0.55000000000E+01  0.51109989000E-03 0. -1.
     -623   -1    0    0    0    0  0.00000000000E+00  0.00000000000E+00  0.93234578044E-11  0.17124000000E+03  0.17124000000E+03 0.  1.
       11    1    1    2    0    0 -0.20444389166E-01 -0.19498236188E-01  0.19583379069E+00  0.19786179283E+00  0.51109989000E-03 0. -1.
     -623    1    1    2    0    0  0.26692645004E-01 -0.93603466007E-02  0.28281409697E-02  0.17124000236E+03  0.17124000000E+03 0.  1.
     -611    1    1    2    0    0 -0.44986630897E-01  0.65562423254E-02  0.21491339457E+01  0.21496147932E+01  0.51109989000E-03 0.  1.
      611    1    1    2    0    0  0.38738375060E-01  0.22302340464E-01  0.31522040989E+01  0.31525210544E+01  0.51109989000E-03 0. -1.
</event>
<event>
 6   3  0.2312675E+03  0.9118800E+02  0.7818608E-02  0.1180000E+00
       11   -1    0    0    0    0  0.00000000000E+00  0.00000000000E+00  0.54999999763E+01  0.55000000000E+01  0.51109989000E-03 0.  1.
     -623   -1    0    0    0    0  0.00000000000E+00  0.00000000000E+00  0.93234578044E-11  0.17124000000E+03  0.17124000000E+03 0.  1.
       11    1    1    2    0    0 -0.21418421687E-01  0.56606865005E-02  0.94778876110E+00  0.94804777783E+00  0.51109989000E-03 0.  1.
     -623    1    1    2    0    0  0.23254099345E-02  0.79779464507E-02  0.12280347451E-02  0.17124000021E+03  0.17124000000E+03 0.  1.
     -611    1    1    2    0    0 -0.22562159223E-01  0.16620636455E-01  0.62165142071E+00  0.62228293137E+00  0.51109989000E-03 0. -1.
      611    1    1    2    0    0  0.41655170975E-01 -0.30259269406E-01  0.39293317597E+01  0.39296690848E+01  0.51109989000E-03 0.  1.
</event>
<event>
 6   3  0.2312675E+03  0.9118800E+02  0.7818608E-02  0.1180000E+00
       11   -1    0    0    0    0  0.00000000000E+00  0.00000000000E+00  0.54999999763E+01  0.55000000000E+01  0.51109989000E-03 0. -1.
     -623   -1    0    0    0    0  0.00000000000E+00  0.00000000000E+00  0.93234578044E-11  0.17124000000E+03  0.17124000000E+03 0. -1.
       11    1    1    2    0    0 -0.35647648935E-02 -0.12290951444E-02  0.12457976038E-01  0.13026151146E-01  0.51109989000E-03 0. -1.
     -623    1    1    2    0    0  0.62533834472E-03  0.95711941401E-02  0.45730850072E-02  0.17124000033E+03  0.17124000000E+03 0. -1.
     -611    1    1    2    0    0 -0.66865044371E-01  0.35367613334E-01  0.44768817000E+01  0.44775207223E+01  0.51109989000E-03 0. -1.
      611    1    1    2    0    0  0.69804470920E-01 -0.43709712330E-01  0.10060872152E+01  0.10094527968E+01  0.51109989000E-03 0.  1.
</event>
<event>
 6   3  0.2312675E+03  0.9118800E+02  0.7818608E-02  0.1180000E+00
       11   -1    0    0    0    0  0.00000000000E+00  0.00000000000E+00  0.54999999763E+01  0.55000000000E+01  0.51109989000E-03 0. -1.
     -623   -1    0    0    0    0  0.00000000000E+00  0.00000000000E+00  0.93234578044E-11  0.17124000000E+03  0.17124000000E+03 0.  1.
       11    1    1    2    0    0  0.91702853368E-02  0.19168329753E-01  0.56077314827E+00  0.56117582276E+00  0.51109989000E-03 0. -1.
     -623    1    1    2    0    0  0.47275727358E-03 -0.13145584612E-01  0.12444886290E-02  0.17124000051E+03  0.17124000000E+03 0.  1.
     -611    1    1    2    0    0 -0.45969798280E-01 -0.22169125767E-01  0.25552798706E+01  0.25557895396E+01  0.51109989000E-03 0. -1.
      611    1    1    2    0    0  0.36326755670E-01  0.16146380626E-01  0.23827024687E+01  0.23830341278E+01  0.51109989000E-03 0.  1.
</event>
<event>
 6   3  0.2312675E+03  0.9118800E+02  0.7818608E-02  0.1180000E+00
       11   -1    0    0    0    0  0.00000000000E+00  0.00000000000E+00  0.54999999763E+01  0.55000000000E+01  0.51109989000E-03 0. -1.
     -623   -1    0    0    0    0  0.00000000000E+00  0.00000000000E+00  0.93234578044E-11  0.17124000000E+03  0.17124000000E+03 0. -1.
       11    1    1    2    0    0 -0.36530972096E-02 -0.12513159590E-02 -0.13710487198E-02  0.41293956630E-02  0.51109989000E-03 0. -1.
     -623    1    1    2    0    0  0.48435096898E-02  0.33459398509E-02  0.64649605374E-02  0.17124000022E+03  0.17124000000E+03 0. -1.
     -611    1    1    2    0    0  0.47274059270E-01  0.15218820129E-01  0.32141307624E+01  0.32145144685E+01  0.51109989000E-03 0. -1.
      611    1    1    2    0    0 -0.48464471750E-01 -0.17313444021E-01  0.22807753020E+01  0.22813559126E+01  0.51109989000E-03 0.  1.
</event>
<event>
 6   3  0.2312675E+03  0.9118800E+02  0.7818608E-02  0.1180000E+00
       11   -1    0    0    0    0  0.00000000000E+00  0.00000000000E+00  0.54999999763E+01  0.55000000000E+01  0.51109989000E-03 0.  1.
     -623   -1    0    0    0    0  0.00000000000E+00  0.00000000000E+00  0.93234578044E-11  0.17124000000E+03  0.17124000000E+03 0.  1.
       11    1    1    2    0    0 -0.11426742975E-01 -0.28628207905E-04  0.52794726461E-01  0.54019585705E-01  0.51109989000E-03 0.  1.
     -623    1    1    2    0    0 -0.19972463652E-01 -0.23974835680E-01  0.40523987584E-02  0.17124000289E+03  0.17124000000E+03 0.  1.
     -611    1    1    2    0    0  0.89100281943E-01  0.53969713388E-01  0.26088825603E+01  0.26109615211E+01  0.51109989000E-03 0.  1.
      611    1    1    2    0    0 -0.57701075316E-01 -0.29966249500E-01  0.28342702908E+01  0.28350160022E+01  0.51109989000E-03 0. -1.
</event>
<event>
 6   3  0.2312675E+03  0.9118800E+02  0.7818608E-02  0.1180000E+00
       11   -1    0    0    0    0  0.00000000000E+00  0.00000000000E+00  0.54999999763E+01  0.55000000000E+01  0.51109989000E-03 0.  1.
     -623   -1    0    0    0    0  0.00000000000E+00  0.00000000000E+00  0.93234578044E-11  0.17124000000E+03  0.17124000000E+03 0. -1.
       11    1    1    2    0    0  0.50238392460E-01  0.40047993822E-01  0.65553499009E+00  0.65867603747E+00  0.51109989000E-03 0.  1.
     -623    1    1    2    0    0 -0.38239911147E+00 -0.30097690568E+00  0.22298265772E-01  0.17124069292E+03  0.17124000000E+03 0. -1.
     -611    1    1    2    0    0  0.27013680132E+00  0.21253444810E+00  0.39222455279E+01  0.39372776160E+01  0.51109989000E-03 0.  1.
      611    1    1    2    0    0  0.62023917819E-01  0.48394463861E-01  0.89992119429E+00  0.90335342346E+00  0.51109989000E-03 0.  1.
</event>
<event>
 6   3  0.2312675E+03  0.9118800E+02  0.7818608E-02  0.1180000E+00
       11   -1    0    0    0    0  0.00000000000E+00  0.00000000000E+00  0.54999999763E+01  0.55000000000E+01  0.51109989000E-03 0. -1.
     -623   -1    0    0    0    0  0.00000000000E+00  0.00000000000E+00  0.93234578044E-11  0.17124000000E+03  0.17124000000E+03 0.  1.
       11    1    1    2    0    0 -0.15985587893E-01 -0.54160147069E-02  0.14040241722E+00  0.14141418677E+00  0.51109989000E-03 0. -1.
     -623    1    1    2    0    0  0.26616686025E-02  0.65575758259E-03  0.20363951520E-02  0.17124000003E+03  0.17124000000E+03 0.  1.
     -611    1    1    2    0    0  0.53954665937E-01  0.43695949332E-02  0.18572747971E+01  0.18580635438E+01  0.51109989000E-03 0.  1.
      611    1    1    2    0    0 -0.40630746647E-01  0.39066219111E-03  0.35002863668E+01  0.35005222354E+01  0.51109989000E-03 0. -1.
</event>
<event>
 6   3  0.2312675E+03  0.9118800E+02  0.7818608E-02  0.1180000E+00
       11   -1    0    0    0    0  0.00000000000E+00  0.00000000000E+00  0.54999999763E+01  0.55000000000E+01  0.51109989000E-03 0. -1.
     -623   -1    0    0    0    0  0.00000000000E+00  0.00000000000E+00  0.93234578044E-11  0.17124000000E+03  0.17124000000E+03 0. -1.
       11    1    1    2    0    0  0.32326746550E-02  0.70489040265E-03  0.13860029760E-01  0.14258636118E-01  0.51109989000E-03 0. -1.
     -623    1    1    2    0    0  0.10582897865E-01  0.17106018448E-02  0.60146995917E-02  0.17124000044E+03  0.17124000000E+03 0. -1.
     -611    1    1    2    0    0  0.76758916777E-01  0.20043787725E-01  0.66559699969E+00  0.67030837079E+00  0.51109989000E-03 0.  1.
      611    1    1    2    0    0 -0.90574489297E-01 -0.22459279972E-01  0.48145282472E+01  0.48154325519E+01  0.51109989000E-03 0. -1.
</event>
<event>
 6   3  0.2312675E+03  0.9118800E+02  0.7818608E-02  0.1180000E+00
       11   -1    0    0    0    0  0.00000000000E+00  0.00000000000E+00  0.54999999763E+01  0.55000000000E+01  0.51109989000E-03 0. -1.
     -623   -1    0    0    0    0  0.00000000000E+00  0.00000000000E+00  0.93234578044E-11  0.17124000000E+03  0.17124000000E+03 0.  1.
       11    1    1    2    0    0  0.75598607808E-01 -0.53889949289E-01  0.88501226385E+00  0.88986866701E+00  0.51109989000E-03 0. -1.
     -623    1    1    2    0    0 -0.19803346513E-01 -0.46909926641E-02  0.55680042691E-02  0.17124000130E+03  0.17124000000E+03 0.  1.
     -611    1    1    2    0    0 -0.24582223350E-01  0.26107056195E-01  0.19958161934E+01  0.19961383727E+01  0.51109989000E-03 0. -1.
      611    1    1    2    0    0 -0.31213037969E-01  0.32473885783E-01  0.26136035167E+01  0.26139916623E+01  0.51109989000E-03 0. -1.
</event>
<event>
 6   3  0.2312675E+03  0.9118800E+02  0.7818608E-02  0.1180000E+00
       11   -1    0    0    0    0  0.00000000000E+00  0.00000000000E+00  0.54999999763E+01  0.55000000000E+01  0.51109989000E-03 0.  1.
     -623   -1    0    0    0    0  0.00000000000E+00  0.00000000000E+00  0.93234578044E-11  0.17124000000E+03  0.17124000000E+03 0. -1.
       11    1    1    2    0    0 -0.38248191424E-01 -0.69825268163E-01  0.10138902111E+01  0.10170113636E+01  0.51109989000E-03 0.  1.
     -623    1    1    2    0    0  0.76487019445E-02 -0.24284968036E-02  0.42309395378E-02  0.17124000024E+03  0.17124000000E+03 0. -1.
     -611    1    1    2    0    0  0.48582674027E-01  0.60906896941E-01  0.37007492938E+01  0.37015693325E+01  0.51109989000E-03 0. -1.
      611    1    1    2    0    0 -0.17983184547E-01  0.11346868026E-01  0.78112953176E+00  0.78141906360E+00  0.51109989000E-03 0.  1.
</event>
<event>
 6   3  0.2312675E+03  0.9118800E+02  0.7818608E-02  0.1180000E+00
       11   -1    0    0    0    0  0.00000000000E+00  0.00000000000E+00  0.54999999763E+01  0.55000000000E+01  0.51109989000E-03 0.  1.
     -623   -1    0    0    0    0  0.00000000000E+00  0.00000000000E+00  0.93234578044E-11  0.17124000000E+03  0.17124000000E+03 0.  1.
       11    1    1    2    0    0 -0.88007962825E-02  0.28063671582E-03  0.47366503852E+00  0.47374715061E+00  0.51109989000E-03 0.  1.
     -623    1    1    2    0    0  0.69389360607E-01 -0.10518142191E-02  0.46167430747E-03  0.17124001406E+03  0.17124000000E+03 0.  1.
     -611    1    1    2    0    0 -0.35229415344E-01 -0.24964380923E-04  0.28868501881E+01  0.28870651849E+01  0.51109989000E-03 0.  1.
      611    1    1    2    0    0 -0.25359148910E-01  0.79614188312E-03  0.21390230698E+01  0.21391735962E+01  0.51109989000E-03 0.  1.
</event>
<event>
 6   3  0.2312675E+03  0.9118800E+02  0.7818608E-02  0.1180000E+00
       11   -1    0    0    0    0  0.00000000000E+00  0.00000000000E+00  0.54999999763E+01  0.55000000000E+01  0.51109989000E-03 0. -1.
     -623   -1    0    0    0    0  0.00000000000E+00  0.00000000000E+00  0.93234578044E-11  0.17124000000E+03  0.17124000000E+03 0. -1.
       11    1    1    2    0    0 -0.44941227513E-02 -0.23514437916E-02  0.36798562201E+00  0.36802093101E+00  0.51109989000E-03 0. -1.
     -623    1    1    2    0    0  0.61214617748E-01  0.19769081553E-01  0.39130093701E-03  0.17124001208E+03  0.17124000000E+03 0. -1.
     -611    1    1    2    0    0 -0.32642978289E-01 -0.86939749919E-02  0.28621560158E+01  0.28623554058E+01  0.51109989000E-03 0. -1.
      611    1    1    2    0    0 -0.24077516600E-01 -0.87236627343E-02  0.22694670279E+01  0.22696115705E+01  0.51109989000E-03 0.  1.
</event>
<event>
 6   3  0.2312675E+03  0.9118800E+02  0.7818608E-02  0.1180000E+00
       11   -1    0    0    0    0  0.00000000000E+00  0.00000000000E+00  0.54999999763E+01  0.55000000000E+01  0.51109989000E-03 0.  1.
     -623   -1    0    0    0    0  0.00000000000E+00  0.00000000000E+00  0.93234578044E-11  0.17124000000E+03  0.17124000000E+03 0.  1.
       11    1    1    2    0    0  0.42481960296E-02  0.18369225074E-02  0.11594588402E-02  0.47986479037E-02  0.51109989000E-03 0.  1.
     -623    1    1    2    0    0 -0.37842919929E-02  0.36820546443E-02  0.57276433928E-02  0.17124000018E+03  0.17124000000E+03 0.  1.
     -611    1    1    2    0    0 -0.41505804445E-01 -0.66078613624E-01  0.30044611629E+01  0.30054743811E+01  0.51109989000E-03 0.  1.
      611    1    1    2    0    0  0.41041900408E-01  0.60559636472E-01  0.24886517111E+01  0.24897267938E+01  0.51109989000E-03 0. -1.
</event>
<event>
 6   3  0.2312675E+03  0.9118800E+02  0.7818608E-02  0.1180000E+00
       11   -1    0    0    0    0  0.00000000000E+00  0.00000000000E+00  0.54999999763E+01  0.55000000000E+01  0.51109989000E-03 0.  1.
     -623   -1    0    0    0    0  0.00000000000E+00  0.00000000000E+00  0.93234578044E-11  0.17124000000E+03  0.17124000000E+03 0. -1.
       11    1    1    2    0    0  0.58150137386E-01  0.10896214687E+00  0.90669684107E+00  0.91507027640E+00  0.51109989000E-03 0.  1.
     -623    1    1    2    0    0  0.29845529108E-01 -0.16657564494E-01  0.10157190579E-01  0.17124000371E+03  0.17124000000E+03 0. -1.
     -611    1    1    2    0    0 -0.34297251542E-01 -0.41169744995E-01  0.19512654646E+01  0.19520011332E+01  0.51109989000E-03 0. -1.
      611    1    1    2    0    0 -0.53698414951E-01 -0.51134837380E-01  0.26318804800E+01  0.26329248780E+01  0.51109989000E-03 0.  1.
</event>
<event>
 6   3  0.2312675E+03  0.9118800E+02  0.7818608E-02  0.1180000E+00
       11   -1    0    0    0    0  0.00000000000E+00  0.00000000000E+00  0.54999999763E+01  0.55000000000E+01  0.51109989000E-03 0. -1.
     -623   -1    0    0    0    0  0.00000000000E+00  0.00000000000E+00  0.93234578044E-11  0.17124000000E+03  0.17124000000E+03 0.  1.
       11    1    1    2    0    0 -0.10505439248E+00 -0.18088795957E-01  0.65966991391E+00  0.66822772051E+00  0.51109989000E-03 0. -1.
     -623    1    1    2    0    0 -0.39597363600E-02 -0.13151591032E-01  0.98898506410E-02  0.17124000084E+03  0.17124000000E+03 0.  1.
     -611    1    1    2    0    0  0.43118933312E-01  0.11759266189E-01  0.19109743987E+01  0.19114970406E+01  0.51109989000E-03 0. -1.
      611    1    1    2    0    0  0.65895195578E-01  0.19481120814E-01  0.29194658153E+01  0.29202744047E+01  0.51109989000E-03 0. -1.
</event>
<event>
 6   3  0.2312675E+03  0.9118800E+02  0.7818608E-02  0.1180000E+00
       11   -1    0    0    0    0  0.00000000000E+00  0.00000000000E+00  0.54999999763E+01  0.55000000000E+01  0.51109989000E-03 0. -1.
     -623   -1    0    0    0    0  0.00000000000E+00  0.00000000000E+00  0.93234578044E-11  0.17124000000E+03  0.17124000000E+03 0.  1.
       11    1    1    2    0    0  0.89854104393E-03 -0.99318399702E-03  0.27846948457E-02  0.31320183493E-02  0.51109989000E-03 0. -1.
     -623    1    1    2    0    0 -0.84765977620E-03  0.11082248636E-02  0.10170522931E-02  0.17124000001E+03  0.17124000000E+03 0.  1.
     -611    1    1    2    0    0 -0.41556635828E-01 -0.10344577793E-01  0.29501537090E+01  0.29504645621E+01  0.51109989000E-03 0.  1.
      611    1    1    2    0    0  0.41505754560E-01  0.10229536926E-01  0.25460445201E+01  0.25464034108E+01  0.51109989000E-03 0. -1.
</event>
<event>
 6   3  0.2312675E+03  0.9118800E+02  0.7818608E-02  0.1180000E+00
       11   -1    0    0    0    0  0.00000000000E+00  0.00000000000E+00  0.54999999763E+01  0.55000000000E+01  0.51109989000E-03 0.  1.
     -623   -1    0    0    0    0  0.00000000000E+00  0.00000000000E+00  0.93234578044E-11  0.17124000000E+03  0.17124000000E+03 0. -1.
       11    1    1    2    0    0  0.94977304337E-02  0.20731720741E-01  0.80276309734E+00  0.80308708295E+00  0.51109989000E-03 0.  1.
     -623    1    1    2    0    0 -0.12182303480E-02  0.16758374444E-02  0.13679147926E-02  0.17124000002E+03  0.17124000000E+03 0. -1.
     -611    1    1    2    0    0  0.39473613129E-01 -0.31002413008E-01  0.22036151020E+01  0.22041867196E+01  0.51109989000E-03 0. -1.
      611    1    1    2    0    0 -0.47753113215E-01  0.85948548231E-02  0.24922538620E+01  0.24927261794E+01  0.51109989000E-03 0.  1.
</event>
<event>
 6   3  0.2312675E+03  0.9118800E+02  0.7818608E-02  0.1180000E+00
       11   -1    0    0    0    0  0.00000000000E+00  0.00000000000E+00  0.54999999763E+01  0.55000000000E+01  0.51109989000E-03 0.  1.
     -623   -1    0    0    0    0  0.00000000000E+00  0.00000000000E+00  0.93234578044E-11  0.17124000000E+03  0.17124000000E+03 0.  1.
       11    1    1    2    0    0 -0.16517103568E-01  0.59207945565E-02  0.78906585322E+00  0.78926108004E+00  0.51109989000E-03 0.  1.
     -623    1    1    2    0    0  0.82055063785E-01 -0.38625054665E-01  0.80114720138E-03  0.17124002402E+03  0.17124000000E+03 0.  1.
     -611    1    1    2    0    0 -0.57178742344E-01  0.32246679548E-01  0.41543000808E+01  0.41548187301E+01  0.51109989000E-03 0.  1.
      611    1    1    2    0    0 -0.83592178701E-02  0.45758055962E-03  0.55583289483E+00  0.55589617205E+00  0.51109989000E-03 0. -1.
</event>
<event>
 6   3  0.2312675E+03  0.9118800E+02  0.7818608E-02  0.1180000E+00
       11   -1    0    0    0    0  0.00000000000E+00  0.00000000000E+00  0.54999999763E+01  0.55000000000E+01  0.51109989000E-03 0.  1.
     -623   -1    0    0    0    0  0.00000000000E+00  0.00000000000E+00  0.93234578044E-11  0.17124000000E+03  0.17124000000E+03 0. -1.
       11    1    1    2    0    0 -0.71090838438E-01  0.15247391104E-01  0.28159362596E+00  0.29082919670E+00  0.51109989000E-03 0.  1.
     -623    1    1    2    0    0  0.98631538642E-02  0.36213203840E-01  0.98547060343E-02  0.17124000440E+03  0.17124000000E+03 0. -1.
     -611    1    1    2    0    0  0.21847455217E-01 -0.17204663399E-01  0.17592327308E+01  0.17594525779E+01  0.51109989000E-03 0. -1.
      611    1    1    2    0    0  0.39380229367E-01 -0.34255931554E-01  0.34493189144E+01  0.34497138296E+01  0.51109989000E-03 0.  1.
</event>
<event>
 6   3  0.2312675E+03  0.9118800E+02  0.7818608E-02  0.1180000E+00
       11   -1    0    0    0    0  0.00000000000E+00  0.00000000000E+00  0.54999999763E+01  0.55000000000E+01  0.51109989000E-03 0. -1.
     -623   -1    0    0    0    0  0.00000000000E+00  0.00000000000E+00  0.93234578044E-11  0.17124000000E+03  0.17124000000E+03 0.  1.
       11    1    1    2    0    0 -0.99410362959E-02  0.33612853586E-02  0.72484563695E+00  0.72492177583E+00  0.51109989000E-03 0. -1.
     -623    1    1    2    0    0  0.61962481144E-01 -0.15982876686E-01  0.38829825232E-03  0.17124001196E+03  0.17124000000E+03 0.  1.
     -611    1    1    2    0    0 -0.13639464806E-01  0.31079223143E-02  0.12421364615E+01  0.12422153374E+01  0.51109989000E-03 0. -1.
      611    1    1    2    0    0 -0.38381980244E-01  0.95136690647E-02  0.35326295975E+01  0.35328509480E+01  0.51109989000E-03 0. -1.
</event>
<event>
 6   3  0.2312675E+03  0.9118800E+02  0.7818608E-02  0.1180000E+00
       11   -1    0    0    0    0  0.00000000000E+00  0.00000000000E+00  0.54999999763E+01  0.55000000000E+01  0.51109989000E-03 0.  1.
     -623   -1    0    0    0    0  0.00000000000E+00  0.00000000000E+00  0.93234578044E-11  0.17124000000E+03  0.17124000000E+03 0.  1.
       11    1    1    2    0    0 -0.19338948777E-01 -0.10510741254E-01  0.46483803165E+00  0.46535913821E+00  0.51109989000E-03 0.  1.
     -623    1    1    2    0    0 -0.89173038469E-02  0.28969224516E-01  0.22383678388E-02  0.17124000270E+03  0.17124000000E+03 0.  1.
     -611    1    1    2    0    0 -0.34602458600E-01 -0.38970181062E-01  0.11838356516E+01  0.11849823275E+01  0.51109989000E-03 0. -1.
      611    1    1    2    0    0  0.62858711225E-01  0.20511697800E-01  0.38490879252E+01  0.38496558372E+01  0.51109989000E-03 0.  1.
</event>
<event>
 6   3  0.2312675E+03  0.9118800E+02  0.7818608E-02  0.1180000E+00
       11   -1    0    0    0    0  0.00000000000E+00  0.00000000000E+00  0.54999999763E+01  0.55000000000E+01  0.51109989000E-03 0. -1.
     -623   -1    0    0    0    0  0.00000000000E+00  0.00000000000E+00  0.93234578044E-11  0.17124000000E+03  0.17124000000E+03 0.  1.
       11    1    1    2    0    0  0.35246838552E-01 -0.20797383769E-02  0.18425669207E+00  0.18760984712E+00  0.51109989000E-03 0. -1.
     -623    1    1    2    0    0  0.57474750092E-02  0.47748669006E-01  0.40885565385E-02  0.17124000680E+03  0.17124000000E+03 0.  1.
     -611    1    1    2    0    0 -0.52301937991E-01 -0.30258501895E-01  0.47851933503E+01  0.47855748590E+01  0.51109989000E-03 0. -1.
      611    1    1    2    0    0  0.11307624429E-01 -0.15410428734E-01  0.52646137737E+00  0.52680849155E+00  0.51109989000E-03 0.  1.
</event>
<event>
 6   3  0.2312675E+03  0.9118800E+02  0.7818608E-02  0.1180000E+00
       11   -1    0    0    0    0  0.00000000000E+00  0.00000000000E+00  0.54999999763E+01  0.55000000000E+01  0.51109989000E-03 0.  1.
     -623   -1    0    0    0    0  0.00000000000E+00  0.00000000000E+00  0.93234578044E-11  0.17124000000E+03  0.17124000000E+03 0.  1.
       11    1    1    2    0    0  0.23441448316E-02  0.13042340847E-02  0.38765758283E-02  0.47418461372E-02  0.51109989000E-03 0.  1.
     -623    1    1    2    0    0 -0.39870439448E-02  0.45552731344E-03  0.23906151838E-02  0.17124000006E+03  0.17124000000E+03 0.  1.
     -611    1    1    2    0    0 -0.39059188125E-01  0.49777702201E-01  0.29416661035E+01  0.29423465407E+01  0.51109989000E-03 0.  1.
      611    1    1    2    0    0  0.40702087239E-01 -0.51537463599E-01  0.25520666817E+01  0.25529115494E+01  0.51109989000E-03 0. -1.
</event>
<event>
 6   3  0.2312675E+03  0.9118800E+02  0.7818608E-02  0.1180000E+00
       11   -1    0    0    0    0  0.00000000000E+00  0.00000000000E+00  0.54999999763E+01  0.55000000000E+01  0.51109989000E-03 0. -1.
     -623   -1    0    0    0    0  0.00000000000E+00  0.00000000000E+00  0.93234578044E-11  0.17124000000E+03  0.17124000000E+03 0. -1.
       11    1    1    2    0    0  0.10280093450E+00 -0.43437688291E-01  0.35208047016E+00  0.36934507387E+00  0.51109989000E-03 0. -1.
     -623    1    1    2    0    0 -0.32253198147E-01  0.23954729435E-01  0.17810768900E-01  0.17124000564E+03  0.17124000000E+03 0. -1.
     -611    1    1    2    0    0 -0.53405912132E-01  0.20618561977E-01  0.40127056343E+01  0.40131140135E+01  0.51109989000E-03 0. -1.
      611    1    1    2    0    0 -0.17141824217E-01 -0.11356031217E-02  0.11174031030E+01  0.11175352735E+01  0.51109989000E-03 0.  1.
</event>
<event>
 6   3  0.2312675E+03  0.9118800E+02  0.7818608E-02  0.1180000E+00
       11   -1    0    0    0    0  0.00000000000E+00  0.00000000000E+00  0.54999999763E+01  0.55000000000E+01  0.51109989000E-03 0.  1.
     -623   -1    0    0    0    0  0.00000000000E+00  0.00000000000E+00  0.93234578044E-11  0.17124000000E+03  0.17124000000E+03 0.  1.
       11    1    1    2    0    0  0.82929747581E-02  0.41348581790E-01  0.91094398389E+00  0.91191977808E+00  0.51109989000E-03 0.  1.
     -623    1    1    2    0    0 -0.76738883092E-02  0.44589241291E-02  0.38336706389E-02  0.17124000027E+03  0.17124000000E+03 0.  1.
     -611    1    1    2    0    0  0.58596259820E-01  0.99288023267E-02  0.89990664837E+00  0.90186714087E+00  0.51109989000E-03 0. -1.
      611    1    1    2    0    0 -0.59215346269E-01 -0.55736308246E-01  0.36853156734E+01  0.36862128081E+01  0.51109989000E-03 0.  1.
</event>
<event>
 6   3  0.2312675E+03  0.9118800E+02  0.7818608E-02  0.1180000E+00
       11   -1    0    0    0    0  0.00000000000E+00  0.00000000000E+00  0.54999999763E+01  0.55000000000E+01  0.51109989000E-03 0. -1.
     -623   -1    0    0    0    0  0.00000000000E+00  0.00000000000E+00  0.93234578044E-11  0.17124000000E+03  0.17124000000E+03 0. -1.
       11    1    1    2    0    0 -0.61446452897E-01 -0.34768398718E-01  0.60748703843E+00  0.61157605513E+00  0.51109989000E-03 0. -1.
     -623    1    1    2    0    0 -0.15155252743E-02 -0.31763407819E-02  0.46511275365E-02  0.17124000010E+03  0.17124000000E+03 0. -1.
     -611    1    1    2    0    0  0.51903898038E-01  0.26801511865E-01  0.38630522451E+01  0.38634939168E+01  0.51109989000E-03 0. -1.
      611    1    1    2    0    0  0.11058080135E-01  0.11143227635E-01  0.10248095652E+01  0.10249299287E+01  0.51109989000E-03 0.  1.
</event>
<event>
 6   3  0.2312675E+03  0.9118800E+02  0.7818608E-02  0.1180000E+00
       11   -1    0    0    0    0  0.00000000000E+00  0.00000000000E+00  0.54999999763E+01  0.55000000000E+01  0.51109989000E-03 0.  1.
     -623   -1    0    0    0    0  0.00000000000E+00  0.00000000000E+00  0.93234578044E-11  0.17124000000E+03  0.17124000000E+03 0. -1.
       11    1    1    2    0    0  0.33990065561E-01 -0.15382956056E-01  0.23222632492E+00  0.23520477696E+00  0.51109989000E-03 0.  1.
     -623    1    1    2    0    0  0.14761501806E-03  0.16929761264E-01  0.35764940885E-02  0.17124000087E+03  0.17124000000E+03 0. -1.
     -611    1    1    2    0    0 -0.46808883584E-01 -0.18069987039E-01  0.45929984373E+01  0.45932725265E+01  0.51109989000E-03 0.  1.
      611    1    1    2    0    0  0.12671203005E-01  0.16523181832E-01  0.67119871989E+00  0.67152182223E+00  0.51109989000E-03 0. -1.
</event>
<event>
 6   3  0.2312675E+03  0.9118800E+02  0.7818608E-02  0.1180000E+00
       11   -1    0    0    0    0  0.00000000000E+00  0.00000000000E+00  0.54999999763E+01  0.55000000000E+01  0.51109989000E-03 0.  1.
     -623   -1    0    0    0    0  0.00000000000E+00  0.00000000000E+00  0.93234578044E-11  0.17124000000E+03  0.17124000000E+03 0.  1.
       11    1    1    2    0    0  0.70573278783E-01  0.15832879789E-01  0.35752300766E+00  0.36476599347E+00  0.51109989000E-03 0.  1.
     -623    1    1    2    0    0 -0.40464501277E-02 -0.44081303539E-01  0.20000929597E-01  0.17124000689E+03  0.17124000000E+03 0.  1.
     -611    1    1    2    0    0 -0.19300192539E+00  0.19199454477E-01  0.18175284629E+01  0.18278480070E+01  0.51109989000E-03 0. -1.
      611    1    1    2    0    0  0.12647509674E+00  0.90489692727E-02  0.33049475761E+01  0.33073791098E+01  0.51109989000E-03 0.  1.
</event>
<event>
 6   3  0.2312675E+03  0.9118800E+02  0.7818608E-02  0.1180000E+00
       11   -1    0    0    0    0  0.00000000000E+00  0.00000000000E+00  0.54999999763E+01  0.55000000000E+01  0.51109989000E-03 0. -1.
     -623   -1    0    0    0    0  0.00000000000E+00  0.00000000000E+00  0.93234578044E-11  0.17124000000E+03  0.17124000000E+03 0. -1.
       11    1    1    2    0    0 -0.66434703724E-01  0.17290200502E-01  0.95471644465E+00  0.95718142053E+00  0.51109989000E-03 0. -1.
     -623    1    1    2    0    0 -0.94493996068E-02  0.25462713648E-01  0.33034307837E-02  0.17124000219E+03  0.17124000000E+03 0. -1.
     -611    1    1    2    0    0  0.30406885435E-01 -0.16214010998E-01  0.17270485841E+01  0.17273924122E+01  0.51109989000E-03 0. -1.
      611    1    1    2    0    0  0.45477217899E-01 -0.26538903154E-01  0.28149315169E+01  0.28154239817E+01  0.51109989000E-03 0. -1.
</event>
<event>
 6   3  0.2312675E+03  0.9118800E+02  0.7818608E-02  0.1180000E+00
       11   -1    0    0    0    0  0.00000000000E+00  0.00000000000E+00  0.54999999763E+01  0.55000000000E+01  0.51109989000E-03 0. -1.
     -623   -1    0    0    0    0  0.00000000000E+00  0.00000000000E+00  0.93234578044E-11  0.17124000000E+03  0.17124000000E+03 0. -1.
       11    1    1    2    0    0  0.53495478540E-01  0.33462235931E-01  0.67943104001E+00  0.68235495661E+00  0.51109989000E-03 0. -1.
     -623    1    1    2    0    0  0.98876495547E-02 -0.55275840176E-02  0.34228770902E-02  0.17124000041E+03  0.17124000000E+03 0. -1.
     -611    1    1    2    0    0 -0.11643601442E-01 -0.58883634618E-02  0.88004830084E+00  0.88014516946E+00  0.51109989000E-03 0.  1.
      611    1    1    2    0    0 -0.51739526683E-01 -0.22046288466E-01  0.39370977606E+01  0.39374994674E+01  0.51109989000E-03 0. -1.
</event>
<event>
 6   3  0.2312675E+03  0.9118800E+02  0.7818608E-02  0.1180000E+00
       11   -1    0    0    0    0  0.00000000000E+00  0.00000000000E+00  0.54999999763E+01  0.55000000000E+01  0.51109989000E-03 0. -1.
     -623   -1    0    0    0    0  0.00000000000E+00  0.00000000000E+00  0.93234578044E-11  0.17124000000E+03  0.17124000000E+03 0. -1.
       11    1    1    2    0    0  0.20828022866E-03  0.29743980466E-03 -0.13433127186E-02  0.14824180411E-02  0.51109989000E-03 0. -1.
     -623    1    1    2    0    0 -0.81447758135E-03  0.39108826304E-02  0.37012786119E-02  0.17124000009E+03  0.17124000000E+03 0. -1.
     -611    1    1    2    0    0  0.45733292249E-01  0.52658683439E-02  0.36908189075E+01  0.36911060310E+01  0.51109989000E-03 0.  1.
      611    1    1    2    0    0 -0.45127094897E-01 -0.94741907789E-02  0.18068231029E+01  0.18074114643E+01  0.51109989000E-03 0. -1.
</event>
<event>
 6   3  0.2312675E+03  0.9118800E+02  0.7818608E-02  0.1180000E+00
       11   -1    0    0    0    0  0.00000000000E+00  0.00000000000E+00  0.54999999763E+01  0.55000000000E+01  0.51109989000E-03 0. -1.
     -623   -1    0    0    0    0  0.00000000000E+00  0.00000000000E+00  0.93234578044E-11  0.17124000000E+03  0.17124000000E+03 0. -1.
       11    1    1    2    0    0  0.19357113461E-01  0.67626183144E-02  0.87472679095E+00  0.87496722846E+00  0.51109989000E-03 0. -1.
     -623    1    1    2    0    0 -0.10213532708E+00 -0.21189303024E-01  0.10378172158E-02  0.17124003177E+03  0.17124000000E+03 0. -1.
     -611    1    1    2    0    0  0.23740171838E-01  0.26523612020E-02  0.12394638797E+01  0.12396941563E+01  0.51109989000E-03 0.  1.
      611    1    1    2    0    0  0.59038041776E-01  0.11774323507E-01  0.33847714882E+01  0.33853068419E+01  0.51109989000E-03 0. -1.
</event>
<event>
 6   3  0.2312675E+03  0.9118800E+02  0.7818608E-02  0.1180000E+00
       11   -1    0    0    0    0  0.00000000000E+00  0.00000000000E+00  0.54999999763E+01  0.55000000000E+01  0.51109989000E-03 0.  1.
     -623   -1    0    0    0    0  0.00000000000E+00  0.00000000000E+00  0.93234578044E-11  0.17124000000E+03  0.17124000000E+03 0.  1.
       11    1    1    2    0    0  0.43406252950E-02 -0.27923694538E-02  0.46524761570E+00  0.46527652369E+00  0.51109989000E-03 0. -1.
     -623    1    1    2    0    0 -0.59516414387E-01  0.23727915475E-01  0.38761098204E-03  0.17124001199E+03  0.17124000000E+03 0.  1.
     -611    1    1    2    0    0  0.11758123290E-01 -0.41908985771E-02  0.11586154374E+01  0.11586827910E+01  0.51109989000E-03 0.  1.
      611    1    1    2    0    0  0.43417665927E-01 -0.16744647493E-01  0.38757493237E+01  0.38760287097E+01  0.51109989000E-03 0.  1.
</event>
<event>
 6   3  0.2312675E+03  0.9118800E+02  0.7818608E-02  0.1180000E+00
       11   -1    0    0    0    0  0.00000000000E+00  0.00000000000E+00  0.54999999763E+01  0.55000000000E+01  0.51109989000E-03 0. -1.
     -623   -1    0    0    0    0  0.00000000000E+00  0.00000000000E+00  0.93234578044E-11  0.17124000000E+03  0.17124000000E+03 0. -1.
       11    1    1    2    0    0 -0.61778639233E-01 -0.64802278247E-01  0.95812427777E+00  0.96229846119E+00  0.51109989000E-03 0. -1.
     -623    1    1    2    0    0 -0.86423841830E-02 -0.73951498780E-02  0.54173369485E-02  0.17124000046E+03  0.17124000000E+03 0. -1.
     -611    1    1    2    0    0  0.43954370497E-01  0.59922197162E-01  0.36676762068E+01  0.36684290473E+01  0.51109989000E-03 0. -1.
      611    1    1    2    0    0  0.26466652919E-01  0.12275230963E-01  0.86878215478E+00  0.86927202802E+00  0.51109989000E-03 0.  1.
</event>
<event>
 6   3  0.2312675E+03  0.9118800E+02  0.7818608E-02  0.1180000E+00
       11   -1    0    0    0    0  0.00000000000E+00  0.00000000000E+00  0.54999999763E+01  0.55000000000E+01  0.51109989000E-03 0.  1.
     -623   -1    0    0    0    0  0.00000000000E+00  0.00000000000E+00  0.93234578044E-11  0.17124000000E+03  0.17124000000E+03 0. -1.
       11    1    1    2    0    0  0.27318273651E-01 -0.17803590925E-01  0.10691639799E+00  0.11177939572E+00  0.51109989000E-03 0.  1.
     -623    1    1    2    0    0 -0.53138768551E-01  0.24833830270E-01  0.86322361804E-02  0.17124001026E+03  0.17124000000E+03 0. -1.
     -611    1    1    2    0    0 -0.52635690921E-01 -0.32358062227E-01  0.43629063804E+01  0.43633438904E+01  0.51109989000E-03 0.  1.
      611    1    1    2    0    0  0.78456185820E-01  0.25327822882E-01  0.10215449616E+01  0.10248664506E+01  0.51109989000E-03 0. -1.
</event>
<event>
 6   3  0.2312675E+03  0.9118800E+02  0.7818608E-02  0.1180000E+00
       11   -1    0    0    0    0  0.00000000000E+00  0.00000000000E+00  0.54999999763E+01  0.55000000000E+01  0.51109989000E-03 0. -1.
     -623   -1    0    0    0    0  0.00000000000E+00  0.00000000000E+00  0.93234578044E-11  0.17124000000E+03  0.17124000000E+03 0.  1.
       11    1    1    2    0    0 -0.98178672928E-02  0.49029842222E-02  0.92718484304E+00  0.92724992540E+00  0.51109989000E-03 0. -1.
     -623    1    1    2    0    0  0.60236676466E-01 -0.34038365869E-01  0.45000632420E-03  0.17124001398E+03  0.17124000000E+03 0.  1.
     -611    1    1    2    0    0 -0.17361945073E-01  0.10411664139E-01  0.15904396537E+01  0.15905685755E+01  0.51109989000E-03 0. -1.
      611    1    1    2    0    0 -0.33056865632E-01  0.18723718374E-01  0.29819256130E+01  0.29821676608E+01  0.51109989000E-03 0. -1.
</event>
<event>
 6   3  0.2312675E+03  0.9118800E+02  0.7818608E-02  0.1180000E+00
       11   -1    0    0    0    0  0.00000000000E+00  0.00000000000E+00  0.54999999763E+01  0.55000000000E+01  0.51109989000E-03 0. -1.
     -623   -1    0    0    0    0  0.00000000000E+00  0.00000000000E+00  0.93234578044E-11  0.17124000000E+03  0.17124000000E+03 0. -1.
       11    1    1    2    0    0  0.12157310046E-01 -0.83995372876E-02  0.98505509031E+00  0.98516604924E+00  0.51109989000E-03 0. -1.
     -623    1    1    2    0    0 -0.66823167429E-02  0.96557176550E-02  0.80067571459E-03  0.17124000040E+03  0.17124000000E+03 0. -1.
     -611    1    1    2    0    0 -0.38149511205E-01 -0.64196716027E-03  0.14066865170E+01  0.14072039709E+01  0.51109989000E-03 0.  1.
      611    1    1    2    0    0  0.32674517901E-01 -0.61421320709E-03  0.31074576932E+01  0.31076295754E+01  0.51109989000E-03 0. -1.
</event>
<event>
 6   3  0.2312675E+03  0.9118800E+02  0.7818608E-02  0.1180000E+00
       11   -1    0    0    0    0  0.00000000000E+00  0.00000000000E+00  0.54999999763E+01  0.55000000000E+01  0.51109989000E-03 0.  1.
     -623   -1    0    0    0    0  0.00000000000E+00  0.00000000000E+00  0.93234578044E-11  0.17124000000E+03  0.17124000000E+03 0. -1.
       11    1    1    2    0    0 -0.58550482825E-02  0.21065873353E-02  0.46123820597E+00  0.46128046043E+00  0.51109989000E-03 0.  1.
     -623    1    1    2    0    0 -0.27184061438E-02 -0.17374306010E-01  0.93960044712E-03  0.17124000091E+03  0.17124000000E+03 0. -1.
     -611    1    1    2    0    0  0.46381405720E-01 -0.10874596759E-01  0.21268465088E+01  0.21273800377E+01  0.51109989000E-03 0.  1.
      611    1    1    2    0    0 -0.37807951294E-01  0.26142315433E-01  0.29109756610E+01  0.29113385962E+01  0.51109989000E-03 0. -1.
</event>
<event>
 6   3  0.2312675E+03  0.9118800E+02  0.7818608E-02  0.1180000E+00
       11   -1    0    0    0    0  0.00000000000E+00  0.00000000000E+00  0.54999999763E+01  0.55000000000E+01  0.51109989000E-03 0. -1.
     -623   -1    0    0    0    0  0.00000000000E+00  0.00000000000E+00  0.93234578044E-11  0.17124000000E+03  0.17124000000E+03 0. -1.
       11    1    1    2    0    0  0.11782763626E-01 -0.38796205447E-01  0.16591406185E+00  0.17079729570E+00  0.51109989000E-03 0. -1.
     -623    1    1    2    0    0  0.50767618497E-01  0.40251818953E-01  0.52629538973E-02  0.17124001234E+03  0.17124000000E+03 0. -1.
     -611    1    1    2    0    0 -0.40432706675E-01 -0.99065218820E-03  0.34457443016E+01  0.34459816945E+01  0.51109989000E-03 0. -1.
      611    1    1    2    0    0 -0.22117675458E-01 -0.46496131820E-03  0.18830786597E+01  0.18832086734E+01  0.51109989000E-03 0. -1.
</event>
<event>
 6   3  0.2312675E+03  0.9118800E+02  0.7818608E-02  0.1180000E+00
       11   -1    0    0    0    0  0.00000000000E+00  0.00000000000E+00  0.54999999763E+01  0.55000000000E+01  0.51109989000E-03 0. -1.
     -623   -1    0    0    0    0  0.00000000000E+00  0.00000000000E+00  0.93234578044E-11  0.17124000000E+03  0.17124000000E+03 0.  1.
       11    1    1    2    0    0 -0.24726629661E-01 -0.13886285952E-01  0.46726550128E+00  0.46812556548E+00  0.51109989000E-03 0. -1.
     -623    1    1    2    0    0 -0.74865105378E-02 -0.20267597202E-02  0.35195631224E-02  0.17124000021E+03  0.17124000000E+03 0.  1.
     -611    1    1    2    0    0  0.86777689071E-01 -0.83211194277E-02  0.39852212203E+01  0.39861746129E+01  0.51109989000E-03 0.  1.
      611    1    1    2    0    0 -0.54564548872E-01  0.24234165099E-01  0.10439936915E+01  0.10456996098E+01  0.51109989000E-03 0. -1.
</event>
<event>
 6   3  0.2312675E+03  0.9118800E+02  0.7818608E-02  0.1180000E+00
       11   -1    0    0    0    0  0.00000000000E+00  0.00000000000E+00  0.54999999763E+01  0.55000000000E+01  0.51109989000E-03 0.  1.
     -623   -1    0    0    0    0  0.00000000000E+00  0.00000000000E+00  0.93234578044E-11  0.17124000000E+03  0.17124000000E+03 0. -1.
       11    1    1    2    0    0  0.25106857120E-02  0.73252182769E-03  0.59743593253E-01  0.59802995651E-01  0.51109989000E-03 0.  1.
     -623    1    1    2    0    0 -0.16932663645E-02 -0.11729639131E-02  0.36880783918E-03  0.17124000001E+03  0.17124000000E+03 0. -1.
     -611    1    1    2    0    0 -0.29150051921E-01 -0.33304107717E-02  0.29069584159E+01  0.29071065186E+01  0.51109989000E-03 0. -1.
      611    1    1    2    0    0  0.28332632573E-01  0.37708528571E-02  0.25329291591E+01  0.25330904728E+01  0.51109989000E-03 0.  1.
</event>
<event>
 6   3  0.2312675E+03  0.9118800E+02  0.7818608E-02  0.1180000E+00
       11   -1    0    0    0    0  0.00000000000E+00  0.00000000000E+00  0.54999999763E+01  0.55000000000E+01  0.51109989000E-03 0. -1.
     -623   -1    0    0    0    0  0.00000000000E+00  0.00000000000E+00  0.93234578044E-11  0.17124000000E+03  0.17124000000E+03 0.  1.
       11    1    1    2    0    0 -0.34006299911E-03  0.37680633740E-03  0.17945467859E+00  0.17945612421E+00  0.51109989000E-03 0. -1.
     -623    1    1    2    0    0 -0.62434642851E-01  0.49253380563E-02  0.39369045633E-03  0.17124001145E+03  0.17124000000E+03 0.  1.
     -611    1    1    2    0    0  0.95153493113E-02  0.22292362799E-02  0.91881068023E+00  0.91886279645E+00  0.51109989000E-03 0.  1.
      611    1    1    2    0    0  0.53259356539E-01 -0.75313806737E-02  0.44013409270E+01  0.44016696262E+01  0.51109989000E-03 0. -1.
</event>
<event>
 6   3  0.2312675E+03  0.9118800E+02  0.7818608E-02  0.1180000E+00
       11   -1    0    0    0    0  0.00000000000E+00  0.00000000000E+00  0.54999999763E+01  0.55000000000E+01  0.51109989000E-03 0. -1.
     -623   -1    0    0    0    0  0.00000000000E+00  0.00000000000E+00  0.93234578044E-11  0.17124000000E+03  0.17124000000E+03 0. -1.
       11    1    1    2    0    0 -0.56511013799E-01  0.79450484406E-02  0.69217859653E+00  0.69452724151E+00  0.51109989000E-03 0. -1.
     -623    1    1    2    0    0 -0.50822730827E-03 -0.17379639992E-01  0.27000677941E-02  0.17124000090E+03  0.17124000000E+03 0. -1.
     -611    1    1    2    0    0  0.28240502141E-01  0.67234246613E-02  0.22685206365E+01  0.22687064310E+01  0.51109989000E-03 0.  1.
      611    1    1    2    0    0  0.28778738962E-01  0.27111668896E-02  0.25366006750E+01  0.25367654231E+01  0.51109989000E-03 0. -1.
</event>
<event>
 6   3  0.2312675E+03  0.9118800E+02  0.7818608E-02  0.1180000E+00
       11   -1    0    0    0    0  0.00000000000E+00  0.00000000000E+00  0.54999999763E+01  0.55000000000E+01  0.51109989000E-03 0. -1.
     -623   -1    0    0    0    0  0.00000000000E+00  0.00000000000E+00  0.93234578044E-11  0.17124000000E+03  0.17124000000E+03 0.  1.
       11    1    1    2    0    0 -0.56383549919E-02 -0.51309379286E-02  0.20823357240E+00  0.20837370148E+00  0.51109989000E-03 0. -1.
     -623    1    1    2    0    0  0.65847384990E-03 -0.18676785657E-02  0.15695036197E-02  0.17124000002E+03  0.17124000000E+03 0.  1.
     -611    1    1    2    0    0  0.38377449486E-01  0.51946898750E-01  0.33448321785E+01  0.33454557047E+01  0.51109989000E-03 0. -1.
      611    1    1    2    0    0 -0.33397568344E-01 -0.44948282256E-01  0.19453647218E+01  0.19461705752E+01  0.51109989000E-03 0.  1.
</event>
<event>
 6   3  0.2312675E+03  0.9118800E+02  0.7818608E-02  0.1180000E+00
       11   -1    0    0    0    0  0.00000000000E+00  0.00000000000E+00  0.54999999763E+01  0.55000000000E+01  0.51109989000E-03 0. -1.
     -623   -1    0    0    0    0  0.00000000000E+00  0.00000000000E+00  0.93234578044E-11  0.17124000000E+03  0.17124000000E+03 0. -1.
       11    1    1    2    0    0  0.67094665134E-02  0.26454721065E-01  0.87150023962E+00  0.87192763352E+00  0.51109989000E-03 0. -1.
     -623    1    1    2    0    0  0.65408787400E-01 -0.27414831620E-01  0.10285517285E-02  0.17124001469E+03  0.17124000000E+03 0. -1.
     -611    1    1    2    0    0 -0.17284488260E-01 -0.14569384815E-04  0.75415126011E+00  0.75434948008E+00  0.51109989000E-03 0.  1.
      611    1    1    2    0    0 -0.54833765650E-01  0.97467993866E-03  0.38733199245E+01  0.38737081964E+01  0.51109989000E-03 0. -1.
</event>
<event>
 6   3  0.2312675E+03  0.9118800E+02  0.7818608E-02  0.1180000E+00
       11   -1    0    0    0    0  0.00000000000E+00  0.00000000000E+00  0.54999999763E+01  0.55000000000E+01  0.51109989000E-03 0. -1.
     -623   -1    0    0    0    0  0.00000000000E+00  0.00000000000E+00  0.93234578044E-11  0.17124000000E+03  0.17124000000E+03 0. -1.
       11    1    1    2    0    0  0.79754289470E-01  0.19401525850E-01  0.73267473584E+00  0.73725822862E+00  0.51109989000E-03 0. -1.
     -623    1    1    2    0    0  0.13061064287E-01 -0.37495225481E-01  0.55846078180E-02  0.17124000469E+03  0.17124000000E+03 0. -1.
     -611    1    1    2    0    0 -0.68299933026E-01  0.19786276970E-01  0.38904563583E+01  0.38911061814E+01  0.51109989000E-03 0. -1.
      611    1    1    2    0    0 -0.24515420731E-01 -0.16925773393E-02  0.87128427428E+00  0.87163089579E+00  0.51109989000E-03 0.  1.
</event>
<event>
 6   3  0.2312675E+03  0.9118800E+02  0.7818608E-02  0.1180000E+00
       11   -1    0    0    0    0  0.00000000000E+00  0.00000000000E+00  0.54999999763E+01  0.55000000000E+01  0.51109989000E-03 0. -1.
     -623   -1    0    0    0    0  0.00000000000E+00  0.00000000000E+00  0.93234578044E-11  0.17124000000E+03  0.17124000000E+03 0. -1.
       11    1    1    2    0    0 -0.83995007114E-01  0.58639383392E-01  0.65673396250E+00  0.66467548264E+00  0.51109989000E-03 0. -1.
     -623    1    1    2    0    0  0.61236472150E-02  0.61103293747E-02  0.90131490769E-02  0.17124000046E+03  0.17124000000E+03 0. -1.
     -611    1    1    2    0    0  0.50073570371E-01 -0.46548249532E-01  0.33830364158E+01  0.33837271985E+01  0.51109989000E-03 0. -1.
      611    1    1    2    0    0  0.27797789529E-01 -0.18201463235E-01  0.14512164489E+01  0.14515968632E+01  0.51109989000E-03 0.  1.
</event>
<event>
 6   3  0.2312675E+03  0.9118800E+02  0.7818608E-02  0.1180000E+00
       11   -1    0    0    0    0  0.00000000000E+00  0.00000000000E+00  0.54999999763E+01  0.55000000000E+01  0.51109989000E-03 0. -1.
     -623   -1    0    0    0    0  0.00000000000E+00  0.00000000000E+00  0.93234578044E-11  0.17124000000E+03  0.17124000000E+03 0.  1.
       11    1    1    2    0    0 -0.21308604143E-02 -0.31103168942E-02  0.82261899343E-02  0.90634464317E-02  0.51109989000E-03 0. -1.
     -623    1    1    2    0    0 -0.16062412380E-02 -0.98700321639E-03  0.14803415584E-02  0.17124000002E+03  0.17124000000E+03 0.  1.
     -611    1    1    2    0    0 -0.38813693147E-01  0.26136010522E-02  0.32993930384E+01  0.32996224052E+01  0.51109989000E-03 0. -1.
      611    1    1    2    0    0  0.42550794799E-01  0.14837190584E-02  0.21909004063E+01  0.21913141315E+01  0.51109989000E-03 0.  1.
</event>
<event>
 6   3  0.2312675E+03  0.9118800E+02  0.7818608E-02  0.1180000E+00
       11   -1    0    0    0    0  0.00000000000E+00  0.00000000000E+00  0.54999999763E+01  0.55000000000E+01  0.51109989000E-03 0.  1.
     -623   -1    0    0    0    0  0.00000000000E+00  0.00000000000E+00  0.93234578044E-11  0.17124000000E+03  0.17124000000E+03 0. -1.
       11    1    1    2    0    0  0.21800410213E-01  0.47132027389E-01  0.57802166590E+00  0.58034988875E+00  0.51109989000E-03 0.  1.
     -623    1    1    2    0    0 -0.47888924507E-01 -0.34263783502E-01  0.32420106232E-02  0.17124001015E+03  0.17124000000E+03 0. -1.
     -611    1    1    2    0    0  0.57206474223E-01 -0.11766648625E-01  0.38720771972E+01  0.38725176716E+01  0.51109989000E-03 0.  1.
      611    1    1    2    0    0 -0.31117959929E-01 -0.11015952620E-02  0.10466591026E+01  0.10471222848E+01  0.51109989000E-03 0. -1.
</event>
<event>
 6   3  0.2312675E+03  0.9118800E+02  0.7818608E-02  0.1180000E+00
       11   -1    0    0    0    0  0.00000000000E+00  0.00000000000E+00  0.54999999763E+01  0.55000000000E+01  0.51109989000E-03 0. -1.
     -623   -1    0    0    0    0  0.00000000000E+00  0.00000000000E+00  0.93234578044E-11  0.17124000000E+03  0.17124000000E+03 0. -1.
       11    1    1    2    0    0  0.40296698645E-01  0.16314166500E+00  0.63062197951E+00  0.65262804800E+00  0.51109989000E-03 0. -1.
     -623    1    1    2    0    0  0.24068655601E-01 -0.32487818085E-02  0.27440600072E-01  0.17124000392E+03  0.17124000000E+03 0. -1.
     -611    1    1    2    0    0 -0.11416564474E+00 -0.11936719921E+00  0.35024429486E+01  0.35063355790E+01  0.51109989000E-03 0. -1.
      611    1    1    2    0    0  0.49800290496E-01 -0.40525683980E-01  0.13394944481E+01  0.13410324521E+01  0.51109989000E-03 0.  1.
</event>
<event>
 6   3  0.2312675E+03  0.9118800E+02  0.7818608E-02  0.1180000E+00
       11   -1    0    0    0    0  0.00000000000E+00  0.00000000000E+00  0.54999999763E+01  0.55000000000E+01  0.51109989000E-03 0.  1.
     -623   -1    0    0    0    0  0.00000000000E+00  0.00000000000E+00  0.93234578044E-11  0.17124000000E+03  0.17124000000E+03 0.  1.
       11    1    1    2    0    0  0.92665556769E-02  0.91376345983E-03  0.74467127806E-01  0.75048773239E-01  0.51109989000E-03 0.  1.
     -623    1    1    2    0    0  0.51195251653E-02  0.91067982591E-02  0.23285156559E-02  0.17124000033E+03  0.17124000000E+03 0.  1.
     -611    1    1    2    0    0 -0.60120381814E-01  0.81327753351E-02  0.45199488547E+01  0.45203560161E+01  0.51109989000E-03 0.  1.
      611    1    1    2    0    0  0.45734300972E-01 -0.18153337054E-01  0.90325547805E+00  0.90459487605E+00  0.51109989000E-03 0. -1.
</event>
<event>
 6   3  0.2312675E+03  0.9118800E+02  0.7818608E-02  0.1180000E+00
       11   -1    0    0    0    0  0.00000000000E+00  0.00000000000E+00  0.54999999763E+01  0.55000000000E+01  0.51109989000E-03 0.  1.
     -623   -1    0    0    0    0  0.00000000000E+00  0.00000000000E+00  0.93234578044E-11  0.17124000000E+03  0.17124000000E+03 0. -1.
       11    1    1    2    0    0  0.75805268273E-02  0.47450521981E-02  0.32871888654E+00  0.32884091518E+00  0.51109989000E-03 0.  1.
     -623    1    1    2    0    0  0.94017823783E-03 -0.12340661816E-01  0.95833409974E-03  0.17124000045E+03  0.17124000000E+03 0. -1.
     -611    1    1    2    0    0  0.31764531572E-01 -0.21617980561E-01  0.30985732654E+01  0.30988115246E+01  0.51109989000E-03 0.  1.
      611    1    1    2    0    0 -0.40285236637E-01  0.29213590179E-01  0.20717494902E+01  0.20723471102E+01  0.51109989000E-03 0. -1.
</event>
<event>
 6   3  0.2312675E+03  0.9118800E+02  0.7818608E-02  0.1180000E+00
       11   -1    0    0    0    0  0.00000000000E+00  0.00000000000E+00  0.54999999763E+01  0.55000000000E+01  0.51109989000E-03 0. -1.
     -623   -1    0    0    0    0  0.00000000000E+00  0.00000000000E+00  0.93234578044E-11  0.17124000000E+03  0.17124000000E+03 0.  1.
       11    1    1    2    0    0  0.58163900514E-02  0.82899924846E-03  0.56628792099E+00  0.56631862791E+00  0.51109989000E-03 0. -1.
     -623    1    1    2    0    0 -0.56259108836E-01 -0.15803465940E-01  0.32155907366E-03  0.17124000997E+03  0.17124000000E+03 0.  1.
     -611    1    1    2    0    0  0.14796038433E-01  0.38384252074E-02  0.14077010358E+01  0.14077841183E+01  0.51109989000E-03 0. -1.
      611    1    1    2    0    0  0.35646681859E-01  0.11136041907E-01  0.35256896078E+01  0.35258874300E+01  0.51109989000E-03 0. -1.
</event>
<event>
 6   3  0.2312675E+03  0.9118800E+02  0.7818608E-02  0.1180000E+00
       11   -1    0    0    0    0  0.00000000000E+00  0.00000000000E+00  0.54999999763E+01  0.55000000000E+01  0.51109989000E-03 0. -1.
     -623   -1    0    0    0    0  0.00000000000E+00  0.00000000000E+00  0.93234578044E-11  0.17124000000E+03  0.17124000000E+03 0.  1.
       11    1    1    2    0    0 -0.28549595798E-02 -0.13640641041E-02  0.11684862538E+00  0.11689257437E+00  0.51109989000E-03 0.  1.
     -623    1    1    2    0    0  0.13517323303E+00  0.69975256085E-01  0.21758059200E-02  0.17124006766E+03  0.17124000000E+03 0.  1.
     -611    1    1    2    0    0 -0.38858684380E-01 -0.19606255885E-01  0.15898955776E+01  0.15904913114E+01  0.51109989000E-03 0.  1.
      611    1    1    2    0    0 -0.93459590192E-01 -0.49004936676E-01  0.37910800129E+01  0.37925484973E+01  0.51109989000E-03 0. -1.
</event>
<event>
 6   3  0.2312675E+03  0.9118800E+02  0.7818608E-02  0.1180000E+00
       11   -1    0    0    0    0  0.00000000000E+00  0.00000000000E+00  0.54999999763E+01  0.55000000000E+01  0.51109989000E-03 0. -1.
     -623   -1    0    0    0    0  0.00000000000E+00  0.00000000000E+00  0.93234578044E-11  0.17124000000E+03  0.17124000000E+03 0. -1.
       11    1    1    2    0    0 -0.67984190826E-02  0.11516126471E-01  0.61803510429E-01  0.63235866368E-01  0.51109989000E-03 0. -1.
     -623    1    1    2    0    0 -0.43575155063E-02 -0.16208440841E-02  0.28752629710E-02  0.17124000009E+03  0.17124000000E+03 0. -1.
     -611    1    1    2    0    0  0.67698889675E-01  0.31608721722E-03  0.30396413642E+01  0.30403952249E+01  0.51109989000E-03 0. -1.
      611    1    1    2    0    0 -0.56542955086E-01 -0.10211369604E-01  0.23956798387E+01  0.23963688215E+01  0.51109989000E-03 0.  1.
</event>
<event>
 6   3  0.2312675E+03  0.9118800E+02  0.7818608E-02  0.1180000E+00
       11   -1    0    0    0    0  0.00000000000E+00  0.00000000000E+00  0.54999999763E+01  0.55000000000E+01  0.51109989000E-03 0.  1.
     -623   -1    0    0    0    0  0.00000000000E+00  0.00000000000E+00  0.93234578044E-11  0.17124000000E+03  0.17124000000E+03 0. -1.
       11    1    1    2    0    0  0.14706857334E-01 -0.51786586743E-01  0.24933158098E+00  0.25507771506E+00  0.51109989000E-03 0.  1.
     -623    1    1    2    0    0  0.70690511436E-01  0.28757201229E-01  0.66415371979E-02  0.17124001713E+03  0.17124000000E+03 0. -1.
     -611    1    1    2    0    0 -0.36894011593E-01  0.16005267617E-01  0.33606897224E+01  0.33609303784E+01  0.51109989000E-03 0.  1.
      611    1    1    2    0    0 -0.48503357177E-01  0.70241178974E-02  0.18833371356E+01  0.18839747720E+01  0.51109989000E-03 0. -1.
</event>
<event>
 6   3  0.2312675E+03  0.9118800E+02  0.7818608E-02  0.1180000E+00
       11   -1    0    0    0    0  0.00000000000E+00  0.00000000000E+00  0.54999999763E+01  0.55000000000E+01  0.51109989000E-03 0. -1.
     -623   -1    0    0    0    0  0.00000000000E+00  0.00000000000E+00  0.93234578044E-11  0.17124000000E+03  0.17124000000E+03 0.  1.
       11    1    1    2    0    0 -0.30292204924E-02 -0.34972951785E-01  0.93451966859E+00  0.93517888970E+00  0.51109989000E-03 0. -1.
     -623    1    1    2    0    0 -0.93025608150E-01  0.77445303270E-01  0.19105066673E-02  0.17124004279E+03  0.17124000000E+03 0.  1.
     -611    1    1    2    0    0  0.53144233038E-01 -0.23269642217E-01  0.25137395059E+01  0.25144089466E+01  0.51109989000E-03 0. -1.
      611    1    1    2    0    0  0.42910595560E-01 -0.19202709250E-01  0.20498302930E+01  0.20503693703E+01  0.51109989000E-03 0. -1.
</event>
<event>
 6   3  0.2312675E+03  0.9118800E+02  0.7818608E-02  0.1180000E+00
       11   -1    0    0    0    0  0.00000000000E+00  0.00000000000E+00  0.54999999763E+01  0.55000000000E+01  0.51109989000E-03 0. -1.
     -623   -1    0    0    0    0  0.00000000000E+00  0.00000000000E+00  0.93234578044E-11  0.17124000000E+03  0.17124000000E+03 0.  1.
       11    1    1    2    0    0 -0.40657475484E-01  0.60127082022E-02  0.94515482049E+00  0.94604813773E+00  0.51109989000E-03 0. -1.
     -623    1    1    2    0    0  0.26996607254E-02 -0.52052213930E-02  0.13792388034E-02  0.17124000011E+03  0.17124000000E+03 0.  1.
     -611    1    1    2    0    0  0.51643579763E-01  0.16269953186E-02  0.38645165468E+01  0.38648619779E+01  0.51109989000E-03 0. -1.
      611    1    1    2    0    0 -0.13685765004E-01 -0.24344821277E-02  0.68894937014E+00  0.68908977841E+00  0.51109989000E-03 0.  1.
</event>
<event>
 6   3  0.2312675E+03  0.9118800E+02  0.7818608E-02  0.1180000E+00
       11   -1    0    0    0    0  0.00000000000E+00  0.00000000000E+00  0.54999999763E+01  0.55000000000E+01  0.51109989000E-03 0.  1.
     -623   -1    0    0    0    0  0.00000000000E+00  0.00000000000E+00  0.93234578044E-11  0.17124000000E+03  0.17124000000E+03 0. -1.
       11    1    1    2    0    0  0.32127568538E-01  0.33813556439E-02  0.60332469704E+00  0.60418918023E+00  0.51109989000E-03 0.  1.
     -623    1    1    2    0    0  0.10002313818E-01 -0.12019712698E-01  0.16443045750E-02  0.17124000072E+03  0.17124000000E+03 0. -1.
     -611    1    1    2    0    0  0.13886834641E-01 -0.19152564143E-01  0.10189446194E+01  0.10192193403E+01  0.51109989000E-03 0. -1.
      611    1    1    2    0    0 -0.56016716997E-01  0.27790921197E-01  0.38760863552E+01  0.38765907576E+01  0.51109989000E-03 0.  1.
</event>
<event>
 6   3  0.2312675E+03  0.9118800E+02  0.7818608E-02  0.1180000E+00
       11   -1    0    0    0    0  0.00000000000E+00  0.00000000000E+00  0.54999999763E+01  0.55000000000E+01  0.51109989000E-03 0.  1.
     -623   -1    0    0    0    0  0.00000000000E+00  0.00000000000E+00  0.93234578044E-11  0.17124000000E+03  0.17124000000E+03 0.  1.
       11    1    1    2    0    0 -0.47803969618E-01 -0.69969824998E-02  0.29607709613E+00  0.29999347552E+00  0.51109989000E-03 0.  1.
     -623    1    1    2    0    0 -0.19766334464E-01 -0.98630298336E-02  0.43846557872E-02  0.17124000148E+03  0.17124000000E+03 0.  1.
     -611    1    1    2    0    0  0.23842228294E-01  0.54254413987E-02  0.18813660339E+01  0.18815249937E+01  0.51109989000E-03 0. -1.
      611    1    1    2    0    0  0.43728075761E-01  0.11434570928E-01  0.33181721883E+01  0.33184800477E+01  0.51109989000E-03 0.  1.
</event>
<event>
 6   3  0.2312675E+03  0.9118800E+02  0.7818608E-02  0.1180000E+00
       11   -1    0    0    0    0  0.00000000000E+00  0.00000000000E+00  0.54999999763E+01  0.55000000000E+01  0.51109989000E-03 0.  1.
     -623   -1    0    0    0    0  0.00000000000E+00  0.00000000000E+00  0.93234578044E-11  0.17124000000E+03  0.17124000000E+03 0.  1.
       11    1    1    2    0    0  0.66473143371E-01  0.51227362473E-01  0.77084671689E+00  0.77540173047E+00  0.51109989000E-03 0.  1.
     -623    1    1    2    0    0 -0.70170187585E-02 -0.10004153762E-01  0.51097075048E-02  0.17124000051E+03  0.17124000000E+03 0.  1.
     -611    1    1    2    0    0 -0.12013179481E-01 -0.86467940986E-02  0.97436735879E+00  0.97447990982E+00  0.51109989000E-03 0. -1.
      611    1    1    2    0    0 -0.47442945132E-01 -0.32576414612E-01  0.37496761931E+01  0.37501178475E+01  0.51109989000E-03 0.  1.
</event>
<event>
 6   3  0.2312675E+03  0.9118800E+02  0.7818608E-02  0.1180000E+00
       11   -1    0    0    0    0  0.00000000000E+00  0.00000000000E+00  0.54999999763E+01  0.55000000000E+01  0.51109989000E-03 0. -1.
     -623   -1    0    0    0    0  0.00000000000E+00  0.00000000000E+00  0.93234578044E-11  0.17124000000E+03  0.17124000000E+03 0. -1.
       11    1    1    2    0    0  0.15368096319E-01  0.44205022081E-02  0.63710910978E+00  0.63730997028E+00  0.51109989000E-03 0. -1.
     -623    1    1    2    0    0 -0.12889888306E-03  0.74622183468E-02  0.91451575314E-03  0.17124000017E+03  0.17124000000E+03 0. -1.
     -611    1    1    2    0    0  0.25998126042E-01 -0.24699276305E-01  0.14645728889E+01  0.14650119334E+01  0.51109989000E-03 0.  1.
      611    1    1    2    0    0 -0.41237323478E-01  0.12816555750E-01  0.33974034619E+01  0.33976779314E+01  0.51109989000E-03 0. -1.
</event>
<event>
 6   3  0.2312675E+03  0.9118800E+02  0.7818608E-02  0.1180000E+00
       11   -1    0    0    0    0  0.00000000000E+00  0.00000000000E+00  0.54999999763E+01  0.55000000000E+01  0.51109989000E-03 0.  1.
     -623   -1    0    0    0    0  0.00000000000E+00  0.00000000000E+00  0.93234578044E-11  0.17124000000E+03  0.17124000000E+03 0. -1.
       11    1    1    2    0    0  0.61075200998E-01  0.50605222374E-01  0.96565258849E+00  0.96890466590E+00  0.51109989000E-03 0.  1.
     -623    1    1    2    0    0 -0.21749312319E-02 -0.12044812176E-01  0.38007437151E-02  0.17124000048E+03  0.17124000000E+03 0. -1.
     -611    1    1    2    0    0 -0.19960720502E-01 -0.11807464577E-01  0.15624352562E+01  0.15626074484E+01  0.51109989000E-03 0. -1.
      611    1    1    2    0    0 -0.38939549262E-01 -0.26752945620E-01  0.29681113877E+01  0.29684874060E+01  0.51109989000E-03 0.  1.
</event>
<event>
 6   3  0.2312675E+03  0.9118800E+02  0.7818608E-02  0.1180000E+00
       11   -1    0    0    0    0  0.00000000000E+00  0.00000000000E+00  0.54999999763E+01  0.55000000000E+01  0.51109989000E-03 0. -1.
     -623   -1    0    0    0    0  0.00000000000E+00  0.00000000000E+00  0.93234578044E-11  0.17124000000E+03  0.17124000000E+03 0. -1.
       11    1    1    2    0    0  0.28966913595E-01  0.77959017752E-02  0.49884486213E+00  0.49974625148E+00  0.51109989000E-03 0. -1.
     -623    1    1    2    0    0  0.48978483338E-01 -0.76205427462E-01  0.20011625003E-02  0.17124002397E+03  0.17124000000E+03 0. -1.
     -611    1    1    2    0    0 -0.57859042852E-01  0.51143766096E-01  0.37078337336E+01  0.37086378376E+01  0.51109989000E-03 0. -1.
      611    1    1    2    0    0 -0.20086354074E-01  0.17265759585E-01  0.12913202176E+01  0.12915919378E+01  0.51109989000E-03 0. -1.
</event>
<event>
 6   3  0.2312675E+03  0.9118800E+02  0.7818608E-02  0.1180000E+00
       11   -1    0    0    0    0  0.00000000000E+00  0.00000000000E+00  0.54999999763E+01  0.55000000000E+01  0.51109989000E-03 0.  1.
     -623   -1    0    0    0    0  0.00000000000E+00  0.00000000000E+00  0.93234578044E-11  0.17124000000E+03  0.17124000000E+03 0. -1.
       11    1    1    2    0    0  0.81346335728E-01 -0.78351917645E-03  0.10768442886E+01  0.10799128314E+01  0.51109989000E-03 0.  1.
     -623    1    1    2    0    0 -0.68123998882E-02  0.69567863431E-02  0.37351067830E-02  0.17124000032E+03  0.17124000000E+03 0. -1.
     -611    1    1    2    0    0 -0.38699475945E-01  0.41136578509E-02  0.19955535906E+01  0.19959331066E+01  0.51109989000E-03 0. -1.
      611    1    1    2    0    0 -0.35834459896E-01 -0.10286925017E-01  0.24238669902E+01  0.24241537445E+01  0.51109989000E-03 0.  1.
</event>
<event>
 6   3  0.2312675E+03  0.9118800E+02  0.7818608E-02  0.1180000E+00
       11   -1    0    0    0    0  0.00000000000E+00  0.00000000000E+00  0.54999999763E+01  0.55000000000E+01  0.51109989000E-03 0.  1.
     -623   -1    0    0    0    0  0.00000000000E+00  0.00000000000E+00  0.93234578044E-11  0.17124000000E+03  0.17124000000E+03 0. -1.
       11    1    1    2    0    0 -0.11732257270E-01  0.30986728305E-01  0.10642449629E+01  0.10647607362E+01  0.51109989000E-03 0.  1.
     -623    1    1    2    0    0  0.76345427306E-01  0.20523009332E-02  0.11312357024E-02  0.17124001703E+03  0.17124000000E+03 0. -1.
     -611    1    1    2    0    0 -0.54176473673E-01 -0.30205968604E-01  0.37813669469E+01  0.37818756906E+01  0.51109989000E-03 0.  1.
      611    1    1    2    0    0 -0.10436696366E-01 -0.28330606335E-02  0.65325683102E+00  0.65334653849E+00  0.51109989000E-03 0. -1.
</event>
<event>
 6   3  0.2312675E+03  0.9118800E+02  0.7818608E-02  0.1180000E+00
       11   -1    0    0    0    0  0.00000000000E+00  0.00000000000E+00  0.54999999763E+01  0.55000000000E+01  0.51109989000E-03 0. -1.
     -623   -1    0    0    0    0  0.00000000000E+00  0.00000000000E+00  0.93234578044E-11  0.17124000000E+03  0.17124000000E+03 0.  1.
       11    1    1    2    0    0  0.46323781076E-02 -0.14974122539E-02  0.46745149525E+00  0.46747712543E+00  0.51109989000E-03 0. -1.
     -623    1    1    2    0    0 -0.62207087812E-01  0.20726703861E-01  0.40461298499E-03  0.17124001255E+03  0.17124000000E+03 0.  1.
     -611    1    1    2    0    0  0.37044049720E-01 -0.12813653281E-01  0.31969515476E+01  0.31971918789E+01  0.51109989000E-03 0. -1.
      611    1    1    2    0    0  0.20530659391E-01 -0.64156381277E-02  0.18351922679E+01  0.18353183892E+01  0.51109989000E-03 0. -1.
</event>
<event>
 6   3  0.2312675E+03  0.9118800E+02  0.7818608E-02  0.1180000E+00
       11   -1    0    0    0    0  0.00000000000E+00  0.00000000000E+00  0.54999999763E+01  0.55000000000E+01  0.51109989000E-03 0.  1.
     -623   -1    0    0    0    0  0.00000000000E+00  0.00000000000E+00  0.93234578044E-11  0.17124000000E+03  0.17124000000E+03 0.  1.
       11    1    1    2    0    0 -0.54954213065E-01  0.18817043718E-01  0.54811382136E+00  0.55118333525E+00  0.51109989000E-03 0.  1.
     -623    1    1    2    0    0  0.29219221732E-03 -0.10983772947E-01  0.33784563143E-02  0.17124000039E+03  0.17124000000E+03 0.  1.
     -611    1    1    2    0    0  0.16904711896E-01 -0.31932838980E-02  0.15807542775E+01  0.15808479729E+01  0.51109989000E-03 0.  1.
      611    1    1    2    0    0  0.37757308960E-01 -0.46399868742E-02  0.33677534218E+01  0.33679683067E+01  0.51109989000E-03 0.  1.
</event>
<event>
 6   3  0.2312675E+03  0.9118800E+02  0.7818608E-02  0.1180000E+00
       11   -1    0    0    0    0  0.00000000000E+00  0.00000000000E+00  0.54999999763E+01  0.55000000000E+01  0.51109989000E-03 0.  1.
     -623   -1    0    0    0    0  0.00000000000E+00  0.00000000000E+00  0.93234578044E-11  0.17124000000E+03  0.17124000000E+03 0.  1.
       11    1    1    2    0    0  0.13016792916E-01 -0.21396147771E-01  0.13693499790E+00  0.13920735221E+00  0.51109989000E-03 0.  1.
     -623    1    1    2    0    0 -0.16570440515E-01  0.52313187409E-03  0.36675680737E-02  0.17124000084E+03  0.17124000000E+03 0.  1.
     -611    1    1    2    0    0  0.37106756451E-01  0.56540369652E-01  0.22730945534E+01  0.22741004452E+01  0.51109989000E-03 0.  1.
      611    1    1    2    0    0 -0.33553108852E-01 -0.35667353755E-01  0.30863028569E+01  0.30866913608E+01  0.51109989000E-03 0. -1.
</event>
<event>
 6   3  0.2312675E+03  0.9118800E+02  0.7818608E-02  0.1180000E+00
       11   -1    0    0    0    0  0.00000000000E+00  0.00000000000E+00  0.54999999763E+01  0.55000000000E+01  0.51109989000E-03 0. -1.
     -623   -1    0    0    0    0  0.00000000000E+00  0.00000000000E+00  0.93234578044E-11  0.17124000000E+03  0.17124000000E+03 0.  1.
       11    1    1    2    0    0  0.75097706956E-02  0.84988371668E-02  0.14226973794E+00  0.14272199005E+00  0.51109989000E-03 0. -1.
     -623    1    1    2    0    0 -0.10889715240E-02  0.79875350766E-03  0.92373352641E-03  0.17124000001E+03  0.17124000000E+03 0.  1.
     -611    1    1    2    0    0  0.29477736994E-01  0.75400448345E-02  0.27773279500E+01  0.27774946611E+01  0.51109989000E-03 0.  1.
      611    1    1    2    0    0 -0.35898536166E-01 -0.16837635509E-01  0.25794785548E+01  0.25797833411E+01  0.51109989000E-03 0. -1.
</event>
<event>
 6   3  0.2312675E+03  0.9118800E+02  0.7818608E-02  0.1180000E+00
       11   -1    0    0    0    0  0.00000000000E+00  0.00000000000E+00  0.54999999763E+01  0.55000000000E+01  0.51109989000E-03 0. -1.
     -623   -1    0    0    0    0  0.00000000000E+00  0.00000000000E+00  0.93234578044E-11  0.17124000000E+03  0.17124000000E+03 0.  1.
       11    1    1    2    0    0 -0.68701638903E-01 -0.31320128349E-01  0.10302455626E+01  0.10330087347E+01  0.51109989000E-03 0. -1.
     -623    1    1    2    0    0  0.56743163779E-02  0.17460948230E-01  0.33522938133E-02  0.17124000102E+03  0.17124000000E+03 0.  1.
     -611    1    1    2    0    0  0.36785390013E-01  0.18389563427E-01  0.18738723800E+01  0.18743236910E+01  0.51109989000E-03 0.  1.
      611    1    1    2    0    0  0.26241932512E-01 -0.45303833075E-02  0.25925297399E+01  0.25926665572E+01  0.51109989000E-03 0. -1.
</event>
<event>
 6   3  0.2312675E+03  0.9118800E+02  0.7818608E-02  0.1180000E+00
       11   -1    0    0    0    0  0.00000000000E+00  0.00000000000E+00  0.54999999763E+01  0.55000000000E+01  0.51109989000E-03 0. -1.
     -623   -1    0    0    0    0  0.00000000000E+00  0.00000000000E+00  0.93234578044E-11  0.17124000000E+03  0.17124000000E+03 0.  1.
       11    1    1    2    0    0 -0.24041971129E-01 -0.39963609746E-02  0.12511744514E+00  0.12747008895E+00  0.51109989000E-03 0. -1.
     -623    1    1    2    0    0  0.16992403798E-01  0.21571838111E-01  0.48172919887E-02  0.17124000227E+03  0.17124000000E+03 0.  1.
     -611    1    1    2    0    0 -0.44263951451E-01 -0.64677853427E-01  0.17048990406E+01  0.17066995992E+01  0.51109989000E-03 0.  1.
      611    1    1    2    0    0  0.51313518783E-01  0.47102376290E-01  0.36651661985E+01  0.36658280422E+01  0.51109989000E-03 0. -1.
</event>
<event>
 6   3  0.2312675E+03  0.9118800E+02  0.7818608E-02  0.1180000E+00
       11   -1    0    0    0    0  0.00000000000E+00  0.00000000000E+00  0.54999999763E+01  0.55000000000E+01  0.51109989000E-03 0.  1.
     -623   -1    0    0    0    0  0.00000000000E+00  0.00000000000E+00  0.93234578044E-11  0.17124000000E+03  0.17124000000E+03 0.  1.
       11    1    1    2    0    0  0.61546063550E-02  0.91329559853E-02  0.14174779190E+00  0.14217590441E+00  0.51109989000E-03 0.  1.
     -623    1    1    2    0    0  0.68277458555E-02 -0.55693877970E-02  0.13790913726E-02  0.17124000023E+03  0.17124000000E+03 0.  1.
     -611    1    1    2    0    0  0.37368419645E-01 -0.11017628105E-01  0.11852290165E+01  0.11858692464E+01  0.51109989000E-03 0. -1.
      611    1    1    2    0    0 -0.50350771856E-01  0.74540599164E-02  0.41716440765E+01  0.41719546169E+01  0.51109989000E-03 0.  1.
</event>
<event>
 6   3  0.2312675E+03  0.9118800E+02  0.7818608E-02  0.1180000E+00
       11   -1    0    0    0    0  0.00000000000E+00  0.00000000000E+00  0.54999999763E+01  0.55000000000E+01  0.51109989000E-03 0. -1.
     -623   -1    0    0    0    0  0.00000000000E+00  0.00000000000E+00  0.93234578044E-11  0.17124000000E+03  0.17124000000E+03 0.  1.
       11    1    1    2    0    0 -0.14586377911E-02 -0.11585169657E-02  0.57523784642E-04  0.19324383169E-02  0.51109989000E-03 0. -1.
     -623    1    1    2    0    0 -0.37871277389E-02  0.57176170965E-02  0.24614725281E-02  0.17124000016E+03  0.17124000000E+03 0.  1.
     -611    1    1    2    0    0 -0.31579654769E-01  0.18733785222E-01  0.25304406111E+01  0.25307070507E+01  0.51109989000E-03 0. -1.
      611    1    1    2    0    0  0.36825420299E-01 -0.23292885353E-01  0.29670403689E+01  0.29673603560E+01  0.51109989000E-03 0.  1.
</event>
<event>
 6   3  0.2312675E+03  0.9118800E+02  0.7818608E-02  0.1180000E+00
       11   -1    0    0    0    0  0.00000000000E+00  0.00000000000E+00  0.54999999763E+01  0.55000000000E+01  0.51109989000E-03 0. -1.
     -623   -1    0    0    0    0  0.00000000000E+00  0.00000000000E+00  0.93234578044E-11  0.17124000000E+03  0.17124000000E+03 0.  1.
       11    1    1    2    0    0  0.55556905149E-01 -0.13293230816E-01  0.23620201962E+00  0.24301221161E+00  0.51109989000E-03 0. -1.
     -623    1    1    2    0    0  0.27430416665E-01 -0.27877971781E-02  0.75225911626E-02  0.17124000238E+03  0.17124000000E+03 0.  1.
     -611    1    1    2    0    0 -0.53753774233E-01  0.11088158667E-01  0.38965169743E+01  0.38969035410E+01  0.51109989000E-03 0. -1.
      611    1    1    2    0    0 -0.29233547581E-01  0.49928693271E-02  0.13597583912E+01  0.13600818625E+01  0.51109989000E-03 0.  1.
</event>
<event>
 6   3  0.2312675E+03  0.9118800E+02  0.7818608E-02  0.1180000E+00
       11   -1    0    0    0    0  0.00000000000E+00  0.00000000000E+00  0.54999999763E+01  0.55000000000E+01  0.51109989000E-03 0.  1.
     -623   -1    0    0    0    0  0.00000000000E+00  0.00000000000E+00  0.93234578044E-11  0.17124000000E+03  0.17124000000E+03 0. -1.
       11    1    1    2    0    0 -0.61015174965E-01  0.49118751186E-02  0.60627126483E+00  0.60935382650E+00  0.51109989000E-03 0.  1.
     -623    1    1    2    0    0 -0.78025769674E-02  0.63751187430E-02  0.35813420489E-02  0.17124000033E+03  0.17124000000E+03 0. -1.
     -611    1    1    2    0    0  0.13579312143E-01 -0.25673652980E-02  0.88500086903E+00  0.88510891335E+00  0.51109989000E-03 0. -1.
      611    1    1    2    0    0  0.55238439786E-01 -0.87196285631E-02  0.40051465001E+01  0.40055369260E+01  0.51109989000E-03 0.  1.
</event>
<event>
 6   3  0.2312675E+03  0.9118800E+02  0.7818608E-02  0.1180000E+00
       11   -1    0    0    0    0  0.00000000000E+00  0.00000000000E+00  0.54999999763E+01  0.55000000000E+01  0.51109989000E-03 0. -1.
     -623   -1    0    0    0    0  0.00000000000E+00  0.00000000000E+00  0.93234578044E-11  0.17124000000E+03  0.17124000000E+03 0.  1.
       11    1    1    2    0    0  0.44333613623E-02  0.13598574228E-03  0.67745298645E-01  0.67892266840E-01  0.51109989000E-03 0. -1.
     -623    1    1    2    0    0 -0.10074922482E-01  0.74443355859E-02  0.12149883400E-02  0.17124000046E+03  0.17124000000E+03 0.  1.
     -611    1    1    2    0    0 -0.42174935620E-01 -0.15105951199E-01  0.39964156010E+01  0.39966667152E+01  0.51109989000E-03 0. -1.
      611    1    1    2    0    0  0.47816496739E-01  0.75256298705E-02  0.14346240882E+01  0.14354405554E+01  0.51109989000E-03 0.  1.
</event>
<event>
 6   3  0.2312675E+03  0.9118800E+02  0.7818608E-02  0.1180000E+00
       11   -1    0    0    0    0  0.00000000000E+00  0.00000000000E+00  0.54999999763E+01  0.55000000000E+01  0.51109989000E-03 0.  1.
     -623   -1    0    0    0    0  0.00000000000E+00  0.00000000000E+00  0.93234578044E-11  0.17124000000E+03  0.17124000000E+03 0. -1.
       11    1    1    2    0    0 -0.77127015096E-01 -0.42322492477E-02  0.56058634609E+00  0.56588320441E+00  0.51109989000E-03 0.  1.
     -623    1    1    2    0    0 -0.84774460941E-03 -0.49421730845E-01  0.62281863391E-02  0.17124000725E+03  0.17124000000E+03 0. -1.
     -611    1    1    2    0    0  0.61092969949E-01  0.47777815477E-01  0.40691344782E+01  0.40698735526E+01  0.51109989000E-03 0.  1.
      611    1    1    2    0    0  0.16881789756E-01  0.58761646156E-02  0.86405096557E+00  0.86423599581E+00  0.51109989000E-03 0. -1.
</event>
<event>
 6   3  0.2312675E+03  0.9118800E+02  0.7818608E-02  0.1180000E+00
       11   -1    0    0    0    0  0.00000000000E+00  0.00000000000E+00  0.54999999763E+01  0.55000000000E+01  0.51109989000E-03 0.  1.
     -623   -1    0    0    0    0  0.00000000000E+00  0.00000000000E+00  0.93234578044E-11  0.17124000000E+03  0.17124000000E+03 0. -1.
       11    1    1    2    0    0  0.63782905742E-02  0.74469721700E-02  0.87265959474E+00  0.87271482713E+00  0.51109989000E-03 0.  1.
     -623    1    1    2    0    0 -0.58254688750E-01 -0.34216342675E-01  0.43704869118E-03  0.17124001333E+03  0.17124000000E+03 0. -1.
     -611    1    1    2    0    0  0.24630743855E-01  0.12365196871E-01  0.22257105385E+01  0.22258812264E+01  0.51109989000E-03 0.  1.
      611    1    1    2    0    0  0.27245654069E-01  0.14404173490E-01  0.24011927708E+01  0.24013905950E+01  0.51109989000E-03 0.  1.
</event>
<event>
 6   3  0.2312675E+03  0.9118800E+02  0.7818608E-02  0.1180000E+00
       11   -1    0    0    0    0  0.00000000000E+00  0.00000000000E+00  0.54999999763E+01  0.55000000000E+01  0.51109989000E-03 0.  1.
     -623   -1    0    0    0    0  0.00000000000E+00  0.00000000000E+00  0.93234578044E-11  0.17124000000E+03  0.17124000000E+03 0.  1.
       11    1    1    2    0    0 -0.29474338864E-01 -0.10742528628E-01  0.87996036595E+00  0.88051953155E+00  0.51109989000E-03 0.  1.
     -623    1    1    2    0    0 -0.56572241595E-01  0.45276966500E-01  0.15365868251E-02  0.17124001534E+03  0.17124000000E+03 0.  1.
     -611    1    1    2    0    0  0.11808407670E-01 -0.23260707800E-02  0.90680764517E+00  0.90688765327E+00  0.51109989000E-03 0. -1.
      611    1    1    2    0    0  0.74238172789E-01 -0.32208367092E-01  0.37116953783E+01  0.37125774777E+01  0.51109989000E-03 0.  1.
</event>
<event>
 6   3  0.2312675E+03  0.9118800E+02  0.7818608E-02  0.1180000E+00
       11   -1    0    0    0    0  0.00000000000E+00  0.00000000000E+00  0.54999999763E+01  0.55000000000E+01  0.51109989000E-03 0. -1.
     -623   -1    0    0    0    0  0.00000000000E+00  0.00000000000E+00  0.93234578044E-11  0.17124000000E+03  0.17124000000E+03 0. -1.
       11    1    1    2    0    0 -0.10572720582E-01 -0.91932000381E-02  0.82134646693E+00  0.82146611452E+00  0.51109989000E-03 0. -1.
     -623    1    1    2    0    0  0.62846894609E-01  0.40217756893E-01  0.53297124238E-03  0.17124001626E+03  0.17124000000E+03 0. -1.
     -611    1    1    2    0    0 -0.30175128796E-01 -0.20407589791E-01  0.28027314907E+01  0.28029682621E+01  0.51109989000E-03 0.  1.
      611    1    1    2    0    0 -0.22099045286E-01 -0.10616967099E-01  0.18753890522E+01  0.18755493718E+01  0.51109989000E-03 0. -1.
</event>
<event>
 6   3  0.2312675E+03  0.9118800E+02  0.7818608E-02  0.1180000E+00
       11   -1    0    0    0    0  0.00000000000E+00  0.00000000000E+00  0.54999999763E+01  0.55000000000E+01  0.51109989000E-03 0. -1.
     -623   -1    0    0    0    0  0.00000000000E+00  0.00000000000E+00  0.93234578044E-11  0.17124000000E+03  0.17124000000E+03 0. -1.
       11    1    1    2    0    0  0.14903856766E-03  0.21316935104E-01  0.44487216016E+00  0.44538290722E+00  0.51109989000E-03 0. -1.
     -623    1    1    2    0    0  0.22283241117E-01  0.12652115219E-01  0.10868218446E-02  0.17124000192E+03  0.17124000000E+03 0. -1.
     -611    1    1    2    0    0 -0.41425716161E-01 -0.12730502327E-01  0.38166609393E+01  0.38169070126E+01  0.51109989000E-03 0.  1.
      611    1    1    2    0    0  0.18993436477E-01 -0.21238547996E-01  0.12373800550E+01  0.12377081596E+01  0.51109989000E-03 0. -1.
</event>
<event>
 6   3  0.2312675E+03  0.9118800E+02  0.7818608E-02  0.1180000E+00
       11   -1    0    0    0    0  0.00000000000E+00  0.00000000000E+00  0.54999999763E+01  0.55000000000E+01  0.51109989000E-03 0.  1.
     -623   -1    0    0    0    0  0.00000000000E+00  0.00000000000E+00  0.93234578044E-11  0.17124000000E+03  0.17124000000E+03 0. -1.
       11    1    1    2    0    0  0.35720720687E-01  0.36075969371E-01  0.31208393611E+00  0.31618679582E+00  0.51109989000E-03 0.  1.
     -623    1    1    2    0    0  0.22882614030E-01 -0.50325796747E-01  0.44656305771E-02  0.17124000898E+03  0.17124000000E+03 0. -1.
     -611    1    1    2    0    0 -0.37115730986E-01  0.77498052753E-02  0.34497001175E+01  0.34499085203E+01  0.51109989000E-03 0.  1.
      611    1    1    2    0    0 -0.21487603736E-01  0.65000221026E-02  0.17337502926E+01  0.17338957021E+01  0.51109989000E-03 0. -1.
</event>
<event>
 6   3  0.2312675E+03  0.9118800E+02  0.7818608E-02  0.1180000E+00
       11   -1    0    0    0    0  0.00000000000E+00  0.00000000000E+00  0.54999999763E+01  0.55000000000E+01  0.51109989000E-03 0. -1.
     -623   -1    0    0    0    0  0.00000000000E+00  0.00000000000E+00  0.93234578044E-11  0.17124000000E+03  0.17124000000E+03 0. -1.
       11    1    1    2    0    0  0.96286351781E-02  0.23343595714E-01  0.10386700374E+01  0.10389770651E+01  0.51109989000E-03 0. -1.
     -623    1    1    2    0    0 -0.18441146962E-01 -0.41396258052E-02  0.72074268628E-03  0.17124000104E+03  0.17124000000E+03 0. -1.
     -611    1    1    2    0    0 -0.22875234893E-01 -0.14304584445E-01  0.15373595096E+01  0.15375963126E+01  0.51109989000E-03 0.  1.
      611    1    1    2    0    0  0.31687746677E-01 -0.48993854629E-02  0.29232496869E+01  0.29234255780E+01  0.51109989000E-03 0. -1.
</event>
<event>
 6   3  0.5795532E+03  0.9118800E+02  0.7818608E-02  0.1180000E+00
       11   -1    0    0    0    0  0.00000000000E+00  0.00000000000E+00  0.54999999763E+01  0.55000000000E+01  0.51109989000E-03 0. -1.
     -623   -1    0    0    0    0  0.00000000000E+00  0.00000000000E+00  0.93234578044E-11  0.17124000000E+03  0.17124000000E+03 0. -1.
       11    1    1    2    0    0  0.13570740086E-03 -0.14755379669E-02 -0.90116164848E-03  0.18080221804E-02  0.51109989000E-03 0. -1.
     -623    1    1    2    0    0  0.12274206035E-03  0.23548243804E-02  0.37330024771E-02  0.17124000006E+03  0.17124000000E+03 0. -1.
     -611    1    1    2    0    0  0.42345660778E-01 -0.31222053932E-01  0.23480634103E+01  0.23486528078E+01  0.51109989000E-03 0. -1.
      611    1    1    2    0    0 -0.42604110239E-01  0.30342767518E-01  0.31491047251E+01  0.31495391131E+01  0.51109989000E-03 0.  1.
</event>
<event>
 6   3  0.2312675E+03  0.9118800E+02  0.7818608E-02  0.1180000E+00
       11   -1    0    0    0    0  0.00000000000E+00  0.00000000000E+00  0.54999999763E+01  0.55000000000E+01  0.51109989000E-03 0. -1.
     -623   -1    0    0    0    0  0.00000000000E+00  0.00000000000E+00  0.93234578044E-11  0.17124000000E+03  0.17124000000E+03 0.  1.
       11    1    1    2    0    0 -0.71941437788E-01 -0.41833073448E-01  0.26823381565E+00  0.28084732077E+00  0.51109989000E-03 0. -1.
     -623    1    1    2    0    0  0.11087357779E-02 -0.11403113949E-01  0.13368466391E-01  0.17124000091E+03  0.17124000000E+03 0.  1.
     -611    1    1    2    0    0  0.10183215593E-01  0.95526830198E-02  0.82177828884E+00  0.82189705491E+00  0.51109989000E-03 0.  1.
      611    1    1    2    0    0  0.60649486425E-01  0.43683504383E-01  0.43966194059E+01  0.43972547197E+01  0.51109989000E-03 0. -1.
</event>
<event>
 6   3  0.2312675E+03  0.9118800E+02  0.7818608E-02  0.1180000E+00
       11   -1    0    0    0    0  0.00000000000E+00  0.00000000000E+00  0.54999999763E+01  0.55000000000E+01  0.51109989000E-03 0. -1.
     -623   -1    0    0    0    0  0.00000000000E+00  0.00000000000E+00  0.93234578044E-11  0.17124000000E+03  0.17124000000E+03 0. -1.
       11    1    1    2    0    0  0.11136389369E+00  0.36113548515E-01  0.51533761635E+00  0.52846875523E+00  0.51109989000E-03 0. -1.
     -623    1    1    2    0    0 -0.10600196525E-02 -0.85545569012E-02  0.14434373460E-01  0.17124000083E+03  0.17124000000E+03 0. -1.
     -611    1    1    2    0    0 -0.29030947797E-01 -0.93209313583E-02  0.13401347413E+01  0.13404816529E+01  0.51109989000E-03 0.  1.
      611    1    1    2    0    0 -0.81272926249E-01 -0.18238060256E-01  0.36300932454E+01  0.36310487668E+01  0.51109989000E-03 0. -1.
</event>
<event>
 6   3  0.2312675E+03  0.9118800E+02  0.7818608E-02  0.1180000E+00
       11   -1    0    0    0    0  0.00000000000E+00  0.00000000000E+00  0.54999999763E+01  0.55000000000E+01  0.51109989000E-03 0.  1.
     -623   -1    0    0    0    0  0.00000000000E+00  0.00000000000E+00  0.93234578044E-11  0.17124000000E+03  0.17124000000E+03 0. -1.
       11    1    1    2    0    0 -0.26619391301E-02  0.11024321401E-02  0.67471958379E-01  0.67535380855E-01  0.51109989000E-03 0.  1.
     -623    1    1    2    0    0  0.12828663891E-02  0.19780154240E-02  0.62847128862E-03  0.17124000002E+03  0.17124000000E+03 0. -1.
     -611    1    1    2    0    0 -0.38203344507E-01 -0.45625974832E-02  0.24557116743E+01  0.24560131110E+01  0.51109989000E-03 0. -1.
      611    1    1    2    0    0  0.39582417247E-01  0.14821499191E-02  0.29761878723E+01  0.29764514908E+01  0.51109989000E-03 0.  1.
</event>
<event>
 6   3  0.2312675E+03  0.9118800E+02  0.7818608E-02  0.1180000E+00
       11   -1    0    0    0    0  0.00000000000E+00  0.00000000000E+00  0.54999999763E+01  0.55000000000E+01  0.51109989000E-03 0.  1.
     -623   -1    0    0    0    0  0.00000000000E+00  0.00000000000E+00  0.93234578044E-11  0.17124000000E+03  0.17124000000E+03 0.  1.
       11    1    1    2    0    0  0.36520419576E-02  0.21215049871E-03  0.11856075620E-01  0.12418138769E-01  0.51109989000E-03 0.  1.
     -623    1    1    2    0    0 -0.13787786608E-02 -0.19598377134E-02  0.93640384257E-03  0.17124000002E+03  0.17124000000E+03 0.  1.
     -611    1    1    2    0    0  0.27921952587E-01  0.14260343750E-01  0.25777806797E+01  0.25779713898E+01  0.51109989000E-03 0.  1.
      611    1    1    2    0    0 -0.30195215884E-01 -0.12512656536E-01  0.29094268171E+01  0.29096104520E+01  0.51109989000E-03 0. -1.
</event>
<event>
 6   3  0.2312675E+03  0.9118800E+02  0.7818608E-02  0.1180000E+00
       11   -1    0    0    0    0  0.00000000000E+00  0.00000000000E+00  0.54999999763E+01  0.55000000000E+01  0.51109989000E-03 0.  1.
     -623   -1    0    0    0    0  0.00000000000E+00  0.00000000000E+00  0.93234578044E-11  0.17124000000E+03  0.17124000000E+03 0. -1.
       11    1    1    2    0    0 -0.66058588207E-01 -0.83534607070E-01  0.39879857687E+00  0.41277394999E+00  0.51109989000E-03 0.  1.
     -623    1    1    2    0    0 -0.23997050383E-01 -0.76210050339E-02  0.15592473349E-01  0.17124000256E+03  0.17124000000E+03 0. -1.
     -611    1    1    2    0    0  0.37455790632E-01  0.36870492885E-01  0.21136235537E+01  0.21142769822E+01  0.51109989000E-03 0.  1.
      611    1    1    2    0    0  0.52599847976E-01  0.54285119238E-01  0.29719853734E+01  0.29729465079E+01  0.51109989000E-03 0. -1.
</event>
<event>
 6   3  0.2312675E+03  0.9118800E+02  0.7818608E-02  0.1180000E+00
       11   -1    0    0    0    0  0.00000000000E+00  0.00000000000E+00  0.54999999763E+01  0.55000000000E+01  0.51109989000E-03 0.  1.
     -623   -1    0    0    0    0  0.00000000000E+00  0.00000000000E+00  0.93234578044E-11  0.17124000000E+03  0.17124000000E+03 0.  1.
       11    1    1    2    0    0  0.55203149996E-02 -0.13068456224E-02  0.36892351288E+00  0.36896748001E+00  0.51109989000E-03 0.  1.
     -623    1    1    2    0    0  0.54724252703E-01 -0.94208956726E-02  0.41872564288E-03  0.17124000900E+03  0.17124000000E+03 0.  1.
     -611    1    1    2    0    0 -0.12432110962E-01  0.33378618795E-02  0.10864136450E+01  0.10864900221E+01  0.51109989000E-03 0. -1.
      611    1    1    2    0    0 -0.47812456751E-01  0.73898794174E-02  0.40442440934E+01  0.40445334947E+01  0.51109989000E-03 0.  1.
</event>
<event>
 6   3  0.2312675E+03  0.9118800E+02  0.7818608E-02  0.1180000E+00
       11   -1    0    0    0    0  0.00000000000E+00  0.00000000000E+00  0.54999999763E+01  0.55000000000E+01  0.51109989000E-03 0. -1.
     -623   -1    0    0    0    0  0.00000000000E+00  0.00000000000E+00  0.93234578044E-11  0.17124000000E+03  0.17124000000E+03 0.  1.
       11    1    1    2    0    0  0.49544792814E-02 -0.11405542789E-02  0.22790879871E-01  0.23356651246E-01  0.51109989000E-03 0. -1.
     -623    1    1    2    0    0 -0.22271481293E-02 -0.80009086458E-03  0.10165347045E-02  0.17124000002E+03  0.17124000000E+03 0.  1.
     -611    1    1    2    0    0 -0.32360064037E-01  0.17403914171E-01  0.27291257878E+01  0.27293731692E+01  0.51109989000E-03 0.  1.
      611    1    1    2    0    0  0.29632732885E-01 -0.15463269028E-01  0.27470667738E+01  0.27472701601E+01  0.51109989000E-03 0. -1.
</event>
<event>
 6   3  0.2312675E+03  0.9118800E+02  0.7818608E-02  0.1180000E+00
       11   -1    0    0    0    0  0.00000000000E+00  0.00000000000E+00  0.54999999763E+01  0.55000000000E+01  0.51109989000E-03 0. -1.
     -623   -1    0    0    0    0  0.00000000000E+00  0.00000000000E+00  0.93234578044E-11  0.17124000000E+03  0.17124000000E+03 0.  1.
       11    1    1    2    0    0  0.85016225969E-02 -0.18558035914E-01  0.10783256199E+00  0.10974880834E+00  0.51109989000E-03 0. -1.
     -623    1    1    2    0    0 -0.13335670496E-01  0.12114488431E-01  0.29643701675E-02  0.17124000097E+03  0.17124000000E+03 0.  1.
     -611    1    1    2    0    0  0.43512262576E-01  0.31077269339E-01  0.38289268617E+01  0.38293002347E+01  0.51109989000E-03 0. -1.
      611    1    1    2    0    0 -0.38678214677E-01 -0.24633721856E-01  0.15602761823E+01  0.15609499835E+01  0.51109989000E-03 0.  1.
</event>
<event>
 6   3  0.2312675E+03  0.9118800E+02  0.7818608E-02  0.1180000E+00
       11   -1    0    0    0    0  0.00000000000E+00  0.00000000000E+00  0.54999999763E+01  0.55000000000E+01  0.51109989000E-03 0. -1.
     -623   -1    0    0    0    0  0.00000000000E+00  0.00000000000E+00  0.93234578044E-11  0.17124000000E+03  0.17124000000E+03 0.  1.
       11    1    1    2    0    0 -0.16129133892E-01 -0.35222691484E-01  0.13891367594E+00  0.14421531660E+00  0.51109989000E-03 0. -1.
     -623    1    1    2    0    0  0.41768170717E-01  0.14531288200E-01  0.69038962507E-02  0.17124000585E+03  0.17124000000E+03 0.  1.
     -611    1    1    2    0    0  0.47412615649E-01  0.30059775599E-01  0.19993304781E+01  0.20001185385E+01  0.51109989000E-03 0.  1.
      611    1    1    2    0    0 -0.73051652475E-01 -0.93683723150E-02  0.33548519260E+01  0.33556602952E+01  0.51109989000E-03 0. -1.
</event>
<event>
 6   3  0.2312675E+03  0.9118800E+02  0.7818608E-02  0.1180000E+00
       11   -1    0    0    0    0  0.00000000000E+00  0.00000000000E+00  0.54999999763E+01  0.55000000000E+01  0.51109989000E-03 0. -1.
     -623   -1    0    0    0    0  0.00000000000E+00  0.00000000000E+00  0.93234578044E-11  0.17124000000E+03  0.17124000000E+03 0. -1.
       11    1    1    2    0    0 -0.13797962440E-01 -0.13076157037E-01  0.78868984333E+00  0.78891907053E+00  0.51109989000E-03 0. -1.
     -623    1    1    2    0    0 -0.19206817878E-02  0.47939679927E-03  0.20714836574E-02  0.17124000002E+03  0.17124000000E+03 0. -1.
     -611    1    1    2    0    0  0.73356772058E-01  0.97228676736E-02  0.26002021682E+01  0.26012549523E+01  0.51109989000E-03 0.  1.
      611    1    1    2    0    0 -0.57638127829E-01  0.28738925647E-02  0.21090364810E+01  0.21098259531E+01  0.51109989000E-03 0. -1.
</event>
<event>
 6   3  0.2312675E+03  0.9118800E+02  0.7818608E-02  0.1180000E+00
       11   -1    0    0    0    0  0.00000000000E+00  0.00000000000E+00  0.54999999763E+01  0.55000000000E+01  0.51109989000E-03 0.  1.
     -623   -1    0    0    0    0  0.00000000000E+00  0.00000000000E+00  0.93234578044E-11  0.17124000000E+03  0.17124000000E+03 0. -1.
       11    1    1    2    0    0 -0.11870617904E-01  0.16885606390E-02  0.90980071136E+00  0.90987985933E+00  0.51109989000E-03 0.  1.
     -623    1    1    2    0    0  0.72924152971E-01 -0.12978889509E-01  0.51544482562E-03  0.17124001602E+03  0.17124000000E+03 0. -1.
     -611    1    1    2    0    0 -0.45147864770E-01  0.89539014699E-02  0.34087936142E+01  0.34091043791E+01  0.51109989000E-03 0.  1.
      611    1    1    2    0    0 -0.15905670032E-01  0.23364273527E-02  0.11808901858E+01  0.11809997212E+01  0.51109989000E-03 0. -1.
</event>
<event>
 6   3  0.2312675E+03  0.9118800E+02  0.7818608E-02  0.1180000E+00
       11   -1    0    0    0    0  0.00000000000E+00  0.00000000000E+00  0.54999999763E+01  0.55000000000E+01  0.51109989000E-03 0. -1.
     -623   -1    0    0    0    0  0.00000000000E+00  0.00000000000E+00  0.93234578044E-11  0.17124000000E+03  0.17124000000E+03 0. -1.
       11    1    1    2    0    0 -0.71444892401E-01 -0.12442109894E-01  0.49319929717E+00  0.49850274493E+00  0.51109989000E-03 0. -1.
     -623    1    1    2    0    0 -0.63106655168E-02 -0.52354307775E-02  0.60837759226E-02  0.17124000030E+03  0.17124000000E+03 0. -1.
     -611    1    1    2    0    0  0.20129427272E-01  0.22856602352E-01  0.17574480221E+01  0.17577119872E+01  0.51109989000E-03 0.  1.
      611    1    1    2    0    0  0.57626130646E-01 -0.51790616801E-02  0.32432688811E+01  0.32437849635E+01  0.51109989000E-03 0. -1.
</event>
<event>
 6   3  0.2312675E+03  0.9118800E+02  0.7818608E-02  0.1180000E+00
       11   -1    0    0    0    0  0.00000000000E+00  0.00000000000E+00  0.54999999763E+01  0.55000000000E+01  0.51109989000E-03 0.  1.
     -623   -1    0    0    0    0  0.00000000000E+00  0.00000000000E+00  0.93234578044E-11  0.17124000000E+03  0.17124000000E+03 0.  1.
       11    1    1    2    0    0  0.30793221632E-01  0.59792651395E-01  0.47769091459E+00  0.48240258578E+00  0.51109989000E-03 0.  1.
     -623    1    1    2    0    0  0.25428341555E-01  0.22028394187E-01  0.57016289926E-02  0.17124000340E+03  0.17124000000E+03 0.  1.
     -611    1    1    2    0    0 -0.20417241465E-01 -0.34921545568E-01  0.19758169674E+01  0.19762310918E+01  0.51109989000E-03 0. -1.
      611    1    1    2    0    0 -0.35804321721E-01 -0.46899500013E-01  0.30407904652E+01  0.30413629226E+01  0.51109989000E-03 0.  1.
</event>
<event>
 6   3  0.2312675E+03  0.9118800E+02  0.7818608E-02  0.1180000E+00
       11   -1    0    0    0    0  0.00000000000E+00  0.00000000000E+00  0.54999999763E+01  0.55000000000E+01  0.51109989000E-03 0. -1.
     -623   -1    0    0    0    0  0.00000000000E+00  0.00000000000E+00  0.93234578044E-11  0.17124000000E+03  0.17124000000E+03 0.  1.
       11    1    1    2    0    0 -0.17962204512E-01  0.10070339776E+00  0.88625169596E+00  0.89213572114E+00  0.51109989000E-03 0. -1.
     -623    1    1    2    0    0 -0.48124019505E-01 -0.51301524759E-02  0.73566959652E-02  0.17124000700E+03  0.17124000000E+03 0.  1.
     -611    1    1    2    0    0  0.80667438459E-02 -0.11074628265E-01  0.54680016358E+00  0.54697202841E+00  0.51109989000E-03 0. -1.
      611    1    1    2    0    0  0.58019480192E-01 -0.84498617055E-01  0.40595914222E+01  0.40608852549E+01  0.51109989000E-03 0. -1.
</event>
<event>
 6   3  0.2312675E+03  0.9118800E+02  0.7818608E-02  0.1180000E+00
       11   -1    0    0    0    0  0.00000000000E+00  0.00000000000E+00  0.54999999763E+01  0.55000000000E+01  0.51109989000E-03 0.  1.
     -623   -1    0    0    0    0  0.00000000000E+00  0.00000000000E+00  0.93234578044E-11  0.17124000000E+03  0.17124000000E+03 0.  1.
       11    1    1    2    0    0  0.73251576834E-01 -0.50869965669E-01  0.64060583449E+00  0.64678407782E+00  0.51109989000E-03 0.  1.
     -623    1    1    2    0    0  0.94801672101E-02 -0.18915037860E-01  0.74166820913E-02  0.17124000147E+03  0.17124000000E+03 0.  1.
     -611    1    1    2    0    0 -0.74866031549E-01  0.55325842735E-01  0.41009139225E+01  0.41019703964E+01  0.51109989000E-03 0.  1.
      611    1    1    2    0    0 -0.78657124951E-02  0.14459160794E-01  0.75106353710E+00  0.75124405805E+00  0.51109989000E-03 0. -1.
</event>
<event>
 6   3  0.2312675E+03  0.9118800E+02  0.7818608E-02  0.1180000E+00
       11   -1    0    0    0    0  0.00000000000E+00  0.00000000000E+00  0.54999999763E+01  0.55000000000E+01  0.51109989000E-03 0. -1.
     -623   -1    0    0    0    0  0.00000000000E+00  0.00000000000E+00  0.93234578044E-11  0.17124000000E+03  0.17124000000E+03 0.  1.
       11    1    1    2    0    0  0.74132894193E-03 -0.78365244998E-02  0.14932563206E+00  0.14953382994E+00  0.51109989000E-03 0. -1.
     -623    1    1    2    0    0 -0.58591311250E-02  0.50984324860E-02  0.12697085646E-02  0.17124000018E+03  0.17124000000E+03 0.  1.
     -611    1    1    2    0    0 -0.44035583082E-01 -0.21304746936E-01  0.31545948621E+01  0.31549741727E+01  0.51109989000E-03 0. -1.
      611    1    1    2    0    0  0.49153385265E-01  0.24042838950E-01  0.21948097736E+01  0.21954918167E+01  0.51109989000E-03 0.  1.
</event>
<event>
 6   3  0.2312675E+03  0.9118800E+02  0.7818608E-02  0.1180000E+00
       11   -1    0    0    0    0  0.00000000000E+00  0.00000000000E+00  0.54999999763E+01  0.55000000000E+01  0.51109989000E-03 0.  1.
     -623   -1    0    0    0    0  0.00000000000E+00  0.00000000000E+00  0.93234578044E-11  0.17124000000E+03  0.17124000000E+03 0.  1.
       11    1    1    2    0    0  0.14014296478E-04  0.30271399913E-02  0.14327096986E+00  0.14330385829E+00  0.51109989000E-03 0.  1.
     -623    1    1    2    0    0  0.21307408306E-02  0.49306961150E-02  0.15987965966E-02  0.17124000009E+03  0.17124000000E+03 0.  1.
     -611    1    1    2    0    0  0.60907832735E-01  0.36357727187E-02  0.19252679850E+01  0.19262346841E+01  0.51109989000E-03 0. -1.
      611    1    1    2    0    0 -0.63052587862E-01 -0.11593608825E-01  0.34298622248E+01  0.34304613659E+01  0.51109989000E-03 0.  1.
</event>
<event>
 6   3  0.2312675E+03  0.9118800E+02  0.7818608E-02  0.1180000E+00
       11   -1    0    0    0    0  0.00000000000E+00  0.00000000000E+00  0.54999999763E+01  0.55000000000E+01  0.51109989000E-03 0.  1.
     -623   -1    0    0    0    0  0.00000000000E+00  0.00000000000E+00  0.93234578044E-11  0.17124000000E+03  0.17124000000E+03 0. -1.
       11    1    1    2    0    0 -0.19230099270E-01  0.23793738974E-01  0.27385578935E+00  0.27555978174E+00  0.51109989000E-03 0.  1.
     -623    1    1    2    0    0 -0.28573910897E-01  0.18698074965E-01  0.24594991706E-02  0.17124000342E+03  0.17124000000E+03 0. -1.
     -611    1    1    2    0    0 -0.11375382900E-01  0.44638079425E-02  0.10199433269E+01  0.10200166549E+01  0.51109989000E-03 0. -1.
      611    1    1    2    0    0  0.59179393067E-01 -0.46955621881E-01  0.42037413608E+01  0.42044201408E+01  0.51109989000E-03 0.  1.
</event>
<event>
 6   3  0.2312675E+03  0.9118800E+02  0.7818608E-02  0.1180000E+00
       11   -1    0    0    0    0  0.00000000000E+00  0.00000000000E+00  0.54999999763E+01  0.55000000000E+01  0.51109989000E-03 0. -1.
     -623   -1    0    0    0    0  0.00000000000E+00  0.00000000000E+00  0.93234578044E-11  0.17124000000E+03  0.17124000000E+03 0. -1.
       11    1    1    2    0    0  0.37158974651E-01 -0.84126619347E-01  0.10374183481E+01  0.10414869983E+01  0.51109989000E-03 0. -1.
     -623    1    1    2    0    0  0.13808584158E-01  0.11413927897E-01  0.49709507840E-02  0.17124000101E+03  0.17124000000E+03 0. -1.
     -611    1    1    2    0    0 -0.19563000058E-01  0.19056563721E-01  0.14850584625E+01  0.14853096518E+01  0.51109989000E-03 0.  1.
      611    1    1    2    0    0 -0.31404558752E-01  0.53656127729E-01  0.29725522149E+01  0.29732023406E+01  0.51109989000E-03 0. -1.
</event>
<event>
 6   3  0.2312675E+03  0.9118800E+02  0.7818608E-02  0.1180000E+00
       11   -1    0    0    0    0  0.00000000000E+00  0.00000000000E+00  0.54999999763E+01  0.55000000000E+01  0.51109989000E-03 0. -1.
     -623   -1    0    0    0    0  0.00000000000E+00  0.00000000000E+00  0.93234578044E-11  0.17124000000E+03  0.17124000000E+03 0. -1.
       11    1    1    2    0    0  0.22579171331E-01  0.27994956402E-03  0.28212674809E+00  0.28302943409E+00  0.51109989000E-03 0. -1.
     -623    1    1    2    0    0  0.65417978722E-01 -0.13870032641E-01  0.16976336020E-02  0.17124001307E+03  0.17124000000E+03 0. -1.
     -611    1    1    2    0    0 -0.72144922494E-01  0.16851418672E-01  0.43381698770E+01  0.43388024849E+01  0.51109989000E-03 0. -1.
      611    1    1    2    0    0 -0.15852227559E-01 -0.32613355949E-02  0.87800571754E+00  0.87815501518E+00  0.51109989000E-03 0.  1.
</event>
<event>
 6   3  0.2312675E+03  0.9118800E+02  0.7818608E-02  0.1180000E+00
       11   -1    0    0    0    0  0.00000000000E+00  0.00000000000E+00  0.54999999763E+01  0.55000000000E+01  0.51109989000E-03 0. -1.
     -623   -1    0    0    0    0  0.00000000000E+00  0.00000000000E+00  0.93234578044E-11  0.17124000000E+03  0.17124000000E+03 0.  1.
       11    1    1    2    0    0  0.33402211619E-02 -0.55204768831E-02  0.76723548922E-01  0.76996083827E-01  0.51109989000E-03 0. -1.
     -623    1    1    2    0    0 -0.24664792103E-02 -0.15364591077E-04  0.11941171191E-02  0.17124000002E+03  0.17124000000E+03 0.  1.
     -611    1    1    2    0    0 -0.32744456306E-01 -0.34754401193E-01  0.29655050775E+01  0.29658895282E+01  0.51109989000E-03 0.  1.
      611    1    1    2    0    0  0.31870714355E-01  0.40290242667E-01  0.24565772328E+01  0.24571143661E+01  0.51109989000E-03 0. -1.
</event>
<event>
 6   3  0.2312675E+03  0.9118800E+02  0.7818608E-02  0.1180000E+00
       11   -1    0    0    0    0  0.00000000000E+00  0.00000000000E+00  0.54999999763E+01  0.55000000000E+01  0.51109989000E-03 0. -1.
     -623   -1    0    0    0    0  0.00000000000E+00  0.00000000000E+00  0.93234578044E-11  0.17124000000E+03  0.17124000000E+03 0. -1.
       11    1    1    2    0    0 -0.12547329505E-01 -0.13514721246E-01  0.67994068155E-01  0.70452378920E-01  0.51109989000E-03 0. -1.
     -623    1    1    2    0    0 -0.67144995163E-02  0.41809591587E-02  0.42387327046E-02  0.17124000024E+03  0.17124000000E+03 0. -1.
     -611    1    1    2    0    0 -0.53629548321E-01 -0.10952144568E-01  0.14002084034E+01  0.14012779568E+01  0.51109989000E-03 0.  1.
      611    1    1    2    0    0  0.72891377342E-01  0.20285906655E-01  0.40275587720E+01  0.40282694292E+01  0.51109989000E-03 0. -1.
</event>
<event>
 6   3  0.2312675E+03  0.9118800E+02  0.7818608E-02  0.1180000E+00
       11   -1    0    0    0    0  0.00000000000E+00  0.00000000000E+00  0.54999999763E+01  0.55000000000E+01  0.51109989000E-03 0.  1.
     -623   -1    0    0    0    0  0.00000000000E+00  0.00000000000E+00  0.93234578044E-11  0.17124000000E+03  0.17124000000E+03 0.  1.
       11    1    1    2    0    0 -0.17661390592E-01 -0.23635423517E-02  0.73429347802E+00  0.73450982576E+00  0.51109989000E-03 0.  1.
     -623    1    1    2    0    0  0.78875083293E-01  0.73210188865E-02  0.63462172634E-03  0.17124001832E+03  0.17124000000E+03 0.  1.
     -611    1    1    2    0    0 -0.11615941099E-01  0.12879722112E-02  0.83017899910E+00  0.83026141710E+00  0.51109989000E-03 0. -1.
      611    1    1    2    0    0 -0.49597751615E-01 -0.62454487472E-02  0.39348928783E+01  0.39352104350E+01  0.51109989000E-03 0.  1.
</event>
<event>
 6   3  0.2312675E+03  0.9118800E+02  0.7818608E-02  0.1180000E+00
       11   -1    0    0    0    0  0.00000000000E+00  0.00000000000E+00  0.54999999763E+01  0.55000000000E+01  0.51109989000E-03 0.  1.
     -623   -1    0    0    0    0  0.00000000000E+00  0.00000000000E+00  0.93234578044E-11  0.17124000000E+03  0.17124000000E+03 0.  1.
       11    1    1    2    0    0 -0.92541059249E-02 -0.91621980191E-02  0.75478918247E+00  0.75490168601E+00  0.51109989000E-03 0.  1.
     -623    1    1    2    0    0  0.59972323337E-01  0.64238332509E-01  0.72706894521E-03  0.17124002255E+03  0.17124000000E+03 0.  1.
     -611    1    1    2    0    0 -0.14833892317E-01 -0.13988142523E-01  0.13149215045E+01  0.13150796694E+01  0.51109989000E-03 0. -1.
      611    1    1    2    0    0 -0.35884325192E-01 -0.41087992071E-01  0.34295622292E+01  0.34299961010E+01  0.51109989000E-03 0.  1.
</event>
<event>
 6   3  0.2312675E+03  0.9118800E+02  0.7818608E-02  0.1180000E+00
       11   -1    0    0    0    0  0.00000000000E+00  0.00000000000E+00  0.54999999763E+01  0.55000000000E+01  0.51109989000E-03 0.  1.
     -623   -1    0    0    0    0  0.00000000000E+00  0.00000000000E+00  0.93234578044E-11  0.17124000000E+03  0.17124000000E+03 0.  1.
       11    1    1    2    0    0 -0.11672502051E-01 -0.51488919013E-01  0.10373940949E+01  0.10387367932E+01  0.51109989000E-03 0.  1.
     -623    1    1    2    0    0  0.44206125765E-01 -0.33674234065E-02  0.21249209776E-02  0.17124000575E+03  0.17124000000E+03 0.  1.
     -611    1    1    2    0    0 -0.45117404823E-01  0.54299802346E-01  0.38241215408E+01  0.38247731787E+01  0.51109989000E-03 0.  1.
      611    1    1    2    0    0  0.12583781109E-01  0.55654007294E-03  0.63635941952E+00  0.63648427578E+00  0.51109989000E-03 0. -1.
</event>
<event>
 6   3  0.2312675E+03  0.9118800E+02  0.7818608E-02  0.1180000E+00
       11   -1    0    0    0    0  0.00000000000E+00  0.00000000000E+00  0.54999999763E+01  0.55000000000E+01  0.51109989000E-03 0. -1.
     -623   -1    0    0    0    0  0.00000000000E+00  0.00000000000E+00  0.93234578044E-11  0.17124000000E+03  0.17124000000E+03 0. -1.
       11    1    1    2    0    0 -0.81370767906E-02 -0.32038732729E-02  0.17256778167E-01  0.19352892250E-01  0.51109989000E-03 0. -1.
     -623    1    1    2    0    0  0.27968303918E-02  0.13330070046E-02  0.62138369108E-02  0.17124000014E+03  0.17124000000E+03 0. -1.
     -611    1    1    2    0    0  0.51725290537E-01  0.80483914794E-01  0.40886402005E+01  0.40897594204E+01  0.51109989000E-03 0. -1.
      611    1    1    2    0    0 -0.46385044138E-01 -0.78613048525E-01  0.13878891606E+01  0.13908875466E+01  0.51109989000E-03 0.  1.
</event>
<event>
 6   3  0.2312675E+03  0.9118800E+02  0.7818608E-02  0.1180000E+00
       11   -1    0    0    0    0  0.00000000000E+00  0.00000000000E+00  0.54999999763E+01  0.55000000000E+01  0.51109989000E-03 0. -1.
     -623   -1    0    0    0    0  0.00000000000E+00  0.00000000000E+00  0.93234578044E-11  0.17124000000E+03  0.17124000000E+03 0. -1.
       11    1    1    2    0    0 -0.37769951580E-02  0.26424566023E-01  0.28334084397E+00  0.28459588625E+00  0.51109989000E-03 0. -1.
     -623    1    1    2    0    0 -0.14940358948E-01  0.28375359314E-02  0.25020496858E-02  0.17124000069E+03  0.17124000000E+03 0. -1.
     -611    1    1    2    0    0  0.63970439005E-01 -0.21408800120E-01  0.28299570818E+01  0.28307610107E+01  0.51109989000E-03 0. -1.
      611    1    1    2    0    0 -0.45253084899E-01 -0.78533018350E-02  0.23842000008E+01  0.23846424095E+01  0.51109989000E-03 0.  1.
</event>
<event>
 6   3  0.2312675E+03  0.9118800E+02  0.7818608E-02  0.1180000E+00
       11   -1    0    0    0    0  0.00000000000E+00  0.00000000000E+00  0.54999999763E+01  0.55000000000E+01  0.51109989000E-03 0. -1.
     -623   -1    0    0    0    0  0.00000000000E+00  0.00000000000E+00  0.93234578044E-11  0.17124000000E+03  0.17124000000E+03 0.  1.
       11    1    1    2    0    0  0.96467582968E-01 -0.42402108679E-01  0.12231163764E+00  0.16144451464E+00  0.51109989000E-03 0. -1.
     -623    1    1    2    0    0  0.15297703291E+00  0.56524820080E-02  0.45531698290E-01  0.17124007448E+03  0.17124000000E+03 0.  1.
     -611    1    1    2    0    0 -0.21163190847E+00  0.52992805100E-01  0.43638878567E+01  0.43693379120E+01  0.51109989000E-03 0. -1.
      611    1    1    2    0    0 -0.37812707409E-01 -0.16243178428E-01  0.96826878364E+00  0.96914309587E+00  0.51109989000E-03 0.  1.
</event>
<event>
 6   3  0.2312675E+03  0.9118800E+02  0.7818608E-02  0.1180000E+00
       11   -1    0    0    0    0  0.00000000000E+00  0.00000000000E+00  0.54999999763E+01  0.55000000000E+01  0.51109989000E-03 0.  1.
     -623   -1    0    0    0    0  0.00000000000E+00  0.00000000000E+00  0.93234578044E-11  0.17124000000E+03  0.17124000000E+03 0.  1.
       11    1    1    2    0    0 -0.81130849990E-03  0.11069079104E-01  0.95989774942E-02  0.14682790120E-01  0.51109989000E-03 0.  1.
     -623    1    1    2    0    0  0.65876679093E-02 -0.43503833662E-02  0.63724539912E-02  0.17124000030E+03  0.17124000000E+03 0.  1.
     -611    1    1    2    0    0  0.45178940643E-01  0.19610145117E-02  0.42063799816E+01  0.42066230866E+01  0.51109989000E-03 0.  1.
      611    1    1    2    0    0 -0.50955300052E-01 -0.86797102492E-02  0.12776485632E+01  0.12786938227E+01  0.51109989000E-03 0. -1.
</event>
<event>
 6   3  0.2312675E+03  0.9118800E+02  0.7818608E-02  0.1180000E+00
       11   -1    0    0    0    0  0.00000000000E+00  0.00000000000E+00  0.54999999763E+01  0.55000000000E+01  0.51109989000E-03 0. -1.
     -623   -1    0    0    0    0  0.00000000000E+00  0.00000000000E+00  0.93234578044E-11  0.17124000000E+03  0.17124000000E+03 0. -1.
       11    1    1    2    0    0  0.15315961765E-01 -0.20270364032E-01  0.83786797671E+00  0.83825322782E+00  0.51109989000E-03 0. -1.
     -623    1    1    2    0    0 -0.10510388824E+00 -0.26683006352E-01  0.15837536562E-02  0.17124003434E+03  0.17124000000E+03 0. -1.
     -611    1    1    2    0    0  0.67912028667E-02  0.12216266305E-01  0.53139857329E+00  0.53158260178E+00  0.51109989000E-03 0.  1.
      611    1    1    2    0    0  0.82996723606E-01  0.34737104078E-01  0.41291496725E+01  0.41301298287E+01  0.51109989000E-03 0. -1.
</event>
<event>
 6   3  0.2312675E+03  0.9118800E+02  0.7818608E-02  0.1180000E+00
       11   -1    0    0    0    0  0.00000000000E+00  0.00000000000E+00  0.54999999763E+01  0.55000000000E+01  0.51109989000E-03 0.  1.
     -623   -1    0    0    0    0  0.00000000000E+00  0.00000000000E+00  0.93234578044E-11  0.17124000000E+03  0.17124000000E+03 0.  1.
       11    1    1    2    0    0 -0.13952541881E-01 -0.90365654592E-02  0.95587845960E-01  0.97023865407E-01  0.51109989000E-03 0.  1.
     -623    1    1    2    0    0  0.79118765380E-01  0.15841084769E-01  0.19166360590E-02  0.17124001902E+03  0.17124000000E+03 0.  1.
     -611    1    1    2    0    0 -0.36157444221E-01  0.88849556176E-02  0.25744564437E+01  0.25747257223E+01  0.51109989000E-03 0. -1.
      611    1    1    2    0    0 -0.29008779280E-01 -0.15689474928E-01  0.28280390506E+01  0.28282313912E+01  0.51109989000E-03 0.  1.
</event>
<event>
 6   3  0.2312675E+03  0.9118800E+02  0.7818608E-02  0.1180000E+00
       11   -1    0    0    0    0  0.00000000000E+00  0.00000000000E+00  0.54999999763E+01  0.55000000000E+01  0.51109989000E-03 0. -1.
     -623   -1    0    0    0    0  0.00000000000E+00  0.00000000000E+00  0.93234578044E-11  0.17124000000E+03  0.17124000000E+03 0.  1.
       11    1    1    2    0    0  0.32544721992E-02 -0.67297941575E-02  0.66645827521E-01  0.67065708583E-01  0.51109989000E-03 0. -1.
     -623    1    1    2    0    0  0.58658550381E-01  0.30401505944E-01  0.84022237755E-03  0.17124001275E+03  0.17124000000E+03 0.  1.
     -611    1    1    2    0    0 -0.45230960026E-01 -0.18107377161E-01  0.41834593380E+01  0.41837430622E+01  0.51109989000E-03 0. -1.
      611    1    1    2    0    0 -0.16682062553E-01 -0.55643346251E-02  0.12490545884E+01  0.12491784816E+01  0.51109989000E-03 0.  1.
</event>
<event>
 6   3  0.2312675E+03  0.9118800E+02  0.7818608E-02  0.1180000E+00
       11   -1    0    0    0    0  0.00000000000E+00  0.00000000000E+00  0.54999999763E+01  0.55000000000E+01  0.51109989000E-03 0.  1.
     -623   -1    0    0    0    0  0.00000000000E+00  0.00000000000E+00  0.93234578044E-11  0.17124000000E+03  0.17124000000E+03 0.  1.
       11    1    1    2    0    0 -0.13339381745E+00  0.19428569600E-01  0.36682435115E+00  0.39080909108E+00  0.51109989000E-03 0.  1.
     -623    1    1    2    0    0  0.15628845869E-01 -0.11912741472E+00  0.26572335138E-01  0.17124004421E+03  0.17124000000E+03 0.  1.
     -611    1    1    2    0    0  0.10080039678E+00  0.97274313691E-01  0.40886057092E+01  0.40910047566E+01  0.51109989000E-03 0.  1.
      611    1    1    2    0    0  0.16964574805E-01  0.24245314327E-02  0.10179975808E+01  0.10181419404E+01  0.51109989000E-03 0. -1.
</event>
<event>
 6   3  0.2312675E+03  0.9118800E+02  0.7818608E-02  0.1180000E+00
       11   -1    0    0    0    0  0.00000000000E+00  0.00000000000E+00  0.54999999763E+01  0.55000000000E+01  0.51109989000E-03 0.  1.
     -623   -1    0    0    0    0  0.00000000000E+00  0.00000000000E+00  0.93234578044E-11  0.17124000000E+03  0.17124000000E+03 0.  1.
       11    1    1    2    0    0 -0.63587512514E-01 -0.22763085745E-01  0.59261045441E+00  0.59644693118E+00  0.51109989000E-03 0.  1.
     -623    1    1    2    0    0  0.74690967229E-03  0.40537939730E-02  0.42761854288E-02  0.17124000010E+03  0.17124000000E+03 0.  1.
     -611    1    1    2    0    0  0.74095146579E-02  0.14481719232E-02  0.61836640748E+00  0.61841270462E+00  0.51109989000E-03 0. -1.
      611    1    1    2    0    0  0.55431088186E-01  0.17261119849E-01  0.42847469292E+01  0.42851402614E+01  0.51109989000E-03 0.  1.
</event>
<event>
 6   3  0.2312675E+03  0.9118800E+02  0.7818608E-02  0.1180000E+00
       11   -1    0    0    0    0  0.00000000000E+00  0.00000000000E+00  0.54999999763E+01  0.55000000000E+01  0.51109989000E-03 0.  1.
     -623   -1    0    0    0    0  0.00000000000E+00  0.00000000000E+00  0.93234578044E-11  0.17124000000E+03  0.17124000000E+03 0. -1.
       11    1    1    2    0    0  0.64989643135E-02 -0.19922303150E-02  0.45484921138E+00  0.45490028780E+00  0.51109989000E-03 0.  1.
     -623    1    1    2    0    0 -0.89508122908E-01 -0.85225031470E-02  0.76895510930E-03  0.17124002361E+03  0.17124000000E+03 0. -1.
     -611    1    1    2    0    0  0.12862125499E-01  0.21419387701E-02  0.78259633272E+00  0.78270511905E+00  0.51109989000E-03 0.  1.
      611    1    1    2    0    0  0.70147032945E-01  0.83727946769E-02  0.42617854678E+01  0.42623709769E+01  0.51109989000E-03 0.  1.
</event>
<event>
 6   3  0.2312675E+03  0.9118800E+02  0.7818608E-02  0.1180000E+00
       11   -1    0    0    0    0  0.00000000000E+00  0.00000000000E+00  0.54999999763E+01  0.55000000000E+01  0.51109989000E-03 0.  1.
     -623   -1    0    0    0    0  0.00000000000E+00  0.00000000000E+00  0.93234578044E-11  0.17124000000E+03  0.17124000000E+03 0.  1.
       11    1    1    2    0    0  0.29296706747E-02  0.22733388056E-03  0.93853460562E-02  0.98478725950E-02  0.51109989000E-03 0.  1.
     -623    1    1    2    0    0 -0.34438402857E-02 -0.23621179326E-02  0.45830314398E-02  0.17124000011E+03  0.17124000000E+03 0.  1.
     -611    1    1    2    0    0  0.80158333149E-01 -0.30011570472E-01  0.11164074572E+01  0.11196838502E+01  0.51109989000E-03 0. -1.
      611    1    1    2    0    0 -0.79644163538E-01  0.32146354524E-01  0.43696241416E+01  0.43704681649E+01  0.51109989000E-03 0.  1.
</event>
<event>
 6   3  0.2312675E+03  0.9118800E+02  0.7818608E-02  0.1180000E+00
       11   -1    0    0    0    0  0.00000000000E+00  0.00000000000E+00  0.54999999763E+01  0.55000000000E+01  0.51109989000E-03 0. -1.
     -623   -1    0    0    0    0  0.00000000000E+00  0.00000000000E+00  0.93234578044E-11  0.17124000000E+03  0.17124000000E+03 0. -1.
       11    1    1    2    0    0  0.12439014527E+00  0.61505884385E-01  0.82054425325E+00  0.83219529849E+00  0.51109989000E-03 0. -1.
     -623    1    1    2    0    0  0.14630269026E-01  0.74389358701E-01  0.15729148860E-01  0.17124001751E+03  0.17124000000E+03 0. -1.
     -611    1    1    2    0    0 -0.83473684829E-01 -0.86038305749E-01  0.27878377171E+01  0.27904139199E+01  0.51109989000E-03 0.  1.
      611    1    1    2    0    0 -0.55546729467E-01 -0.49856937335E-01  0.18758888570E+01  0.18773732763E+01  0.51109989000E-03 0. -1.
</event>
<event>
 6   3  0.2312675E+03  0.9118800E+02  0.7818608E-02  0.1180000E+00
       11   -1    0    0    0    0  0.00000000000E+00  0.00000000000E+00  0.54999999763E+01  0.55000000000E+01  0.51109989000E-03 0.  1.
     -623   -1    0    0    0    0  0.00000000000E+00  0.00000000000E+00  0.93234578044E-11  0.17124000000E+03  0.17124000000E+03 0. -1.
       11    1    1    2    0    0  0.49716048221E-01 -0.24066616826E-01  0.79811534571E+00  0.80002453324E+00  0.51109989000E-03 0.  1.
     -623    1    1    2    0    0  0.36010573108E-02 -0.11241785558E-02  0.22870882894E-02  0.17124000006E+03  0.17124000000E+03 0. -1.
     -611    1    1    2    0    0 -0.17846974513E-01  0.12808608198E-01  0.16417642420E+01  0.16419112833E+01  0.51109989000E-03 0. -1.
      611    1    1    2    0    0 -0.35470131019E-01  0.12382187184E-01  0.30578333004E+01  0.30580641267E+01  0.51109989000E-03 0.  1.
</event>
<event>
 6   3  0.2312675E+03  0.9118800E+02  0.7818608E-02  0.1180000E+00
       11   -1    0    0    0    0  0.00000000000E+00  0.00000000000E+00  0.54999999763E+01  0.55000000000E+01  0.51109989000E-03 0. -1.
     -623   -1    0    0    0    0  0.00000000000E+00  0.00000000000E+00  0.93234578044E-11  0.17124000000E+03  0.17124000000E+03 0. -1.
       11    1    1    2    0    0 -0.39583808002E-01 -0.16228634863E-01  0.39837097223E+00  0.40066187638E+00  0.51109989000E-03 0. -1.
     -623    1    1    2    0    0 -0.13478696978E-02  0.77293383390E-02  0.34771705299E-02  0.17124000022E+03  0.17124000000E+03 0. -1.
     -611    1    1    2    0    0 -0.15881076897E-01 -0.28239778917E-01  0.80341940739E+00  0.80407257080E+00  0.51109989000E-03 0.  1.
      611    1    1    2    0    0  0.56812754597E-01  0.36739075440E-01  0.42947324261E+01  0.42952653378E+01  0.51109989000E-03 0. -1.
</event>
<event>
 6   3  0.2312675E+03  0.9118800E+02  0.7818608E-02  0.1180000E+00
       11   -1    0    0    0    0  0.00000000000E+00  0.00000000000E+00  0.54999999763E+01  0.55000000000E+01  0.51109989000E-03 0.  1.
     -623   -1    0    0    0    0  0.00000000000E+00  0.00000000000E+00  0.93234578044E-11  0.17124000000E+03  0.17124000000E+03 0. -1.
       11    1    1    2    0    0 -0.21866933478E-01 -0.14221070502E-01  0.90212913239E+00  0.90250630710E+00  0.51109989000E-03 0.  1.
     -623    1    1    2    0    0 -0.31861674506E-01  0.20811365414E-01  0.70688347730E-03  0.17124000423E+03  0.17124000000E+03 0. -1.
     -611    1    1    2    0    0  0.35519479608E-01 -0.78442767242E-02  0.31677376680E+01  0.31679465527E+01  0.51109989000E-03 0.  1.
      611    1    1    2    0    0  0.18209128375E-01  0.12539818127E-02  0.14294262921E+01  0.14295429097E+01  0.51109989000E-03 0. -1.
</event>
<event>
 6   3  0.2312675E+03  0.9118800E+02  0.7818608E-02  0.1180000E+00
       11   -1    0    0    0    0  0.00000000000E+00  0.00000000000E+00  0.54999999763E+01  0.55000000000E+01  0.51109989000E-03 0. -1.
     -623   -1    0    0    0    0  0.00000000000E+00  0.00000000000E+00  0.93234578044E-11  0.17124000000E+03  0.17124000000E+03 0. -1.
       11    1    1    2    0    0  0.42547756829E-02  0.77172523754E-02  0.17262676699E-01  0.19388664994E-01  0.51109989000E-03 0. -1.
     -623    1    1    2    0    0 -0.15935648026E-01  0.12399107999E-02  0.73813850346E-02  0.17124000091E+03  0.17124000000E+03 0. -1.
     -611    1    1    2    0    0  0.11176563677E+00  0.38516178485E-02  0.15823056237E+01  0.15862527354E+01  0.51109989000E-03 0.  1.
      611    1    1    2    0    0 -0.10008476443E+00 -0.12808781024E-01  0.38930502909E+01  0.38943576946E+01  0.51109989000E-03 0. -1.
</event>
<event>
 6   3  0.2312675E+03  0.9118800E+02  0.7818608E-02  0.1180000E+00
       11   -1    0    0    0    0  0.00000000000E+00  0.00000000000E+00  0.54999999763E+01  0.55000000000E+01  0.51109989000E-03 0.  1.
     -623   -1    0    0    0    0  0.00000000000E+00  0.00000000000E+00  0.93234578044E-11  0.17124000000E+03  0.17124000000E+03 0.  1.
       11    1    1    2    0    0  0.11168110369E-01  0.84295786979E-02  0.74891151250E-01  0.76188780308E-01  0.51109989000E-03 0.  1.
     -623    1    1    2    0    0 -0.13065432302E-02 -0.60945412964E-02  0.17604079244E-02  0.17124000012E+03  0.17124000000E+03 0.  1.
     -611    1    1    2    0    0 -0.36188581979E-01 -0.17422531204E-01  0.33438481061E+01  0.33440893493E+01  0.51109989000E-03 0. -1.
      611    1    1    2    0    0  0.26327014841E-01  0.15087493803E-01  0.20795003108E+01  0.20797217478E+01  0.51109989000E-03 0.  1.
</event>
<event>
 6   3  0.2312675E+03  0.9118800E+02  0.7818608E-02  0.1180000E+00
       11   -1    0    0    0    0  0.00000000000E+00  0.00000000000E+00  0.54999999763E+01  0.55000000000E+01  0.51109989000E-03 0.  1.
     -623   -1    0    0    0    0  0.00000000000E+00  0.00000000000E+00  0.93234578044E-11  0.17124000000E+03  0.17124000000E+03 0.  1.
       11    1    1    2    0    0 -0.23322565394E-02 -0.10065981627E-01  0.10095617244E+00  0.10148484312E+00  0.51109989000E-03 0.  1.
     -623    1    1    2    0    0  0.40597946641E-02  0.15046290364E-01  0.16805793515E-02  0.17124000072E+03  0.17124000000E+03 0.  1.
     -611    1    1    2    0    0 -0.41443161569E-01 -0.32993306253E-01  0.39064672218E+01  0.39068263988E+01  0.51109989000E-03 0.  1.
      611    1    1    2    0    0  0.39715623444E-01  0.28012997516E-01  0.14908960027E+01  0.14916880407E+01  0.51109989000E-03 0. -1.
</event>
<event>
 6   3  0.2312675E+03  0.9118800E+02  0.7818608E-02  0.1180000E+00
       11   -1    0    0    0    0  0.00000000000E+00  0.00000000000E+00  0.54999999763E+01  0.55000000000E+01  0.51109989000E-03 0. -1.
     -623   -1    0    0    0    0  0.00000000000E+00  0.00000000000E+00  0.93234578044E-11  0.17124000000E+03  0.17124000000E+03 0. -1.
       11    1    1    2    0    0 -0.64776936424E-01 -0.38314399999E-01  0.77953688859E+00  0.78316158399E+00  0.51109989000E-03 0. -1.
     -623    1    1    2    0    0  0.70330872551E-01 -0.16862553991E-01  0.81900490299E-02  0.17124001547E+03  0.17124000000E+03 0. -1.
     -611    1    1    2    0    0  0.85580713105E-01  0.72469680883E-01  0.22312981609E+01  0.22341145130E+01  0.51109989000E-03 0.  1.
      611    1    1    2    0    0 -0.91134649231E-01 -0.17292726894E-01  0.24809748777E+01  0.24827084339E+01  0.51109989000E-03 0. -1.
</event>
<event>
 6   3  0.2312675E+03  0.9118800E+02  0.7818608E-02  0.1180000E+00
       11   -1    0    0    0    0  0.00000000000E+00  0.00000000000E+00  0.54999999763E+01  0.55000000000E+01  0.51109989000E-03 0. -1.
     -623   -1    0    0    0    0  0.00000000000E+00  0.00000000000E+00  0.93234578044E-11  0.17124000000E+03  0.17124000000E+03 0.  1.
       11    1    1    2    0    0 -0.35081870631E-03  0.18870559891E-02  0.12742342431E-01  0.12896223005E-01  0.51109989000E-03 0. -1.
     -623    1    1    2    0    0  0.57080230170E-03 -0.58368660865E-03  0.75388252887E-03  0.17124000000E+03  0.17124000000E+03 0.  1.
     -611    1    1    2    0    0 -0.32965453451E-01 -0.23703786984E-01  0.31728406127E+01  0.31731004405E+01  0.51109989000E-03 0.  1.
      611    1    1    2    0    0  0.32745469855E-01  0.22400417604E-01  0.23136631386E+01  0.23140033329E+01  0.51109989000E-03 0. -1.
</event>
<event>
 6   3  0.2312675E+03  0.9118800E+02  0.7818608E-02  0.1180000E+00
       11   -1    0    0    0    0  0.00000000000E+00  0.00000000000E+00  0.54999999763E+01  0.55000000000E+01  0.51109989000E-03 0. -1.
     -623   -1    0    0    0    0  0.00000000000E+00  0.00000000000E+00  0.93234578044E-11  0.17124000000E+03  0.17124000000E+03 0.  1.
       11    1    1    2    0    0  0.23548806033E-02 -0.16291275747E-02  0.53567495865E+00  0.53568285587E+00  0.51109989000E-03 0. -1.
     -623    1    1    2    0    0 -0.12233984803E+00  0.30770341857E-01  0.16097475883E-02  0.17124004647E+03  0.17124000000E+03 0.  1.
     -611    1    1    2    0    0  0.21463959833E-01 -0.10472602833E-01  0.88018317199E+00  0.88050727110E+00  0.51109989000E-03 0.  1.
      611    1    1    2    0    0  0.98521007619E-01 -0.18668611455E-01  0.40825320991E+01  0.40837634001E+01  0.51109989000E-03 0. -1.
</event>
<event>
 6   3  0.2312675E+03  0.9118800E+02  0.7818608E-02  0.1180000E+00
       11   -1    0    0    0    0  0.00000000000E+00  0.00000000000E+00  0.54999999763E+01  0.55000000000E+01  0.51109989000E-03 0. -1.
     -623   -1    0    0    0    0  0.00000000000E+00  0.00000000000E+00  0.93234578044E-11  0.17124000000E+03  0.17124000000E+03 0.  1.
       11    1    1    2    0    0  0.38366206429E-01  0.42528820013E-01  0.45585452367E+00  0.45943908660E+00  0.51109989000E-03 0. -1.
     -623    1    1    2    0    0  0.13284428987E-01 -0.23434655193E-01  0.38891584031E-02  0.17124000216E+03  0.17124000000E+03 0.  1.
     -611    1    1    2    0    0 -0.32825492288E-01 -0.10319950989E-01  0.32209295954E+01  0.32211134308E+01  0.51109989000E-03 0. -1.
      611    1    1    2    0    0 -0.18825143118E-01 -0.87742138269E-02  0.18193266978E+01  0.18194453186E+01  0.51109989000E-03 0.  1.
</event>
<event>
 6   3  0.2312675E+03  0.9118800E+02  0.7818608E-02  0.1180000E+00
       11   -1    0    0    0    0  0.00000000000E+00  0.00000000000E+00  0.54999999763E+01  0.55000000000E+01  0.51109989000E-03 0. -1.
     -623   -1    0    0    0    0  0.00000000000E+00  0.00000000000E+00  0.93234578044E-11  0.17124000000E+03  0.17124000000E+03 0. -1.
       11    1    1    2    0    0 -0.94151086006E-01 -0.55923342982E-01  0.97487299741E+00  0.98100431681E+00  0.51109989000E-03 0. -1.
     -623    1    1    2    0    0 -0.15963837164E-01  0.36747172750E-01  0.75188242791E-02  0.17124000485E+03  0.17124000000E+03 0. -1.
     -611    1    1    2    0    0  0.67616413125E-01  0.11472028284E-01  0.27805491524E+01  0.27813948725E+01  0.51109989000E-03 0. -1.
      611    1    1    2    0    0  0.42498510183E-01  0.77041419715E-02  0.17370590079E+01  0.17375959643E+01  0.51109989000E-03 0. -1.
</event>
<event>
 6   3  0.2312675E+03  0.9118800E+02  0.7818608E-02  0.1180000E+00
       11   -1    0    0    0    0  0.00000000000E+00  0.00000000000E+00  0.54999999763E+01  0.55000000000E+01  0.51109989000E-03 0.  1.
     -623   -1    0    0    0    0  0.00000000000E+00  0.00000000000E+00  0.93234578044E-11  0.17124000000E+03  0.17124000000E+03 0. -1.
       11    1    1    2    0    0  0.12134989443E+00 -0.87879441999E-01  0.10242176829E+01  0.10351186967E+01  0.51109989000E-03 0.  1.
     -623    1    1    2    0    0 -0.23716169731E-01 -0.25088829557E-01  0.13415422577E-01  0.17124000401E+03  0.17124000000E+03 0. -1.
     -611    1    1    2    0    0 -0.42262619527E-01  0.45017081017E-01  0.19846645506E+01  0.19856249158E+01  0.51109989000E-03 0.  1.
      611    1    1    2    0    0 -0.55371105176E-01  0.67951190543E-01  0.24777023203E+01  0.24792523819E+01  0.51109989000E-03 0. -1.
</event>
<event>
 6   3  0.2312675E+03  0.9118800E+02  0.7818608E-02  0.1180000E+00
       11   -1    0    0    0    0  0.00000000000E+00  0.00000000000E+00  0.54999999763E+01  0.55000000000E+01  0.51109989000E-03 0.  1.
     -623   -1    0    0    0    0  0.00000000000E+00  0.00000000000E+00  0.93234578044E-11  0.17124000000E+03  0.17124000000E+03 0.  1.
       11    1    1    2    0    0 -0.58328386795E-02  0.30561100843E-01  0.95021488603E+00  0.95072424696E+00  0.51109989000E-03 0.  1.
     -623    1    1    2    0    0  0.24044938644E-01 -0.21425411148E-01  0.10025428936E-02  0.17124000303E+03  0.17124000000E+03 0.  1.
     -611    1    1    2    0    0  0.22864948979E-01 -0.60708494209E-02  0.11715231343E+01  0.11717620819E+01  0.51109989000E-03 0. -1.
      611    1    1    2    0    0 -0.41077048943E-01 -0.30648402735E-02  0.33772594130E+01  0.33775106397E+01  0.51109989000E-03 0.  1.
</event>
<event>
 6   3  0.2312675E+03  0.9118800E+02  0.7818608E-02  0.1180000E+00
       11   -1    0    0    0    0  0.00000000000E+00  0.00000000000E+00  0.54999999763E+01  0.55000000000E+01  0.51109989000E-03 0. -1.
     -623   -1    0    0    0    0  0.00000000000E+00  0.00000000000E+00  0.93234578044E-11  0.17124000000E+03  0.17124000000E+03 0.  1.
       11    1    1    2    0    0 -0.66032731341E-01  0.40403538087E-01  0.43549478469E+00  0.44232198251E+00  0.51109989000E-03 0. -1.
     -623    1    1    2    0    0  0.14106790145E-01 -0.27695847286E-02  0.72349880262E-02  0.17124000076E+03  0.17124000000E+03 0.  1.
     -611    1    1    2    0    0  0.40481044457E-01 -0.29303838717E-01  0.39980776410E+01  0.39983899903E+01  0.51109989000E-03 0. -1.
      611    1    1    2    0    0  0.11444896737E-01 -0.83301146411E-02  0.10591925624E+01  0.10592872707E+01  0.51109989000E-03 0.  1.
</event>
<event>
 6   3  0.2312675E+03  0.9118800E+02  0.7818608E-02  0.1180000E+00
       11   -1    0    0    0    0  0.00000000000E+00  0.00000000000E+00  0.54999999763E+01  0.55000000000E+01  0.51109989000E-03 0.  1.
     -623   -1    0    0    0    0  0.00000000000E+00  0.00000000000E+00  0.93234578044E-11  0.17124000000E+03  0.17124000000E+03 0.  1.
       11    1    1    2    0    0  0.40188298439E-02 -0.13910207219E-01  0.13826647870E+00  0.13902347001E+00  0.51109989000E-03 0.  1.
     -623    1    1    2    0    0 -0.18385844567E-01  0.10238776576E-02  0.14889960681E-02  0.17124000100E+03  0.17124000000E+03 0.  1.
     -611    1    1    2    0    0 -0.31865952104E-01 -0.67657804451E-02  0.31081109881E+01  0.31082817425E+01  0.51109989000E-03 0. -1.
      611    1    1    2    0    0  0.46232966827E-01  0.19652110006E-01  0.22521335134E+01  0.22526937910E+01  0.51109989000E-03 0.  1.
</event>
<event>
 6   3  0.2993389E+03  0.9118800E+02  0.7818608E-02  0.1180000E+00
       11   -1    0    0    0    0  0.00000000000E+00  0.00000000000E+00  0.54999999763E+01  0.55000000000E+01  0.51109989000E-03 0. -1.
     -623   -1    0    0    0    0  0.00000000000E+00  0.00000000000E+00  0.93234578044E-11  0.17124000000E+03  0.17124000000E+03 0. -1.
       11    1    1    2    0    0 -0.21433412954E-02 -0.11445778387E-02 -0.14958211888E-02  0.28987367013E-02  0.51109989000E-03 0. -1.
     -623    1    1    2    0    0  0.22127083560E-02  0.52821172554E-02  0.84665070530E-02  0.17124000031E+03  0.17124000000E+03 0. -1.
     -611    1    1    2    0    0  0.49941621560E-01 -0.62779185276E-01  0.46145287823E+01  0.46152260547E+01  0.51109989000E-03 0. -1.
      611    1    1    2    0    0 -0.50010988621E-01  0.58641645859E-01  0.87850050810E+00  0.88187490358E+00  0.51109989000E-03 0.  1.
</event>
<event>
 6   3  0.2312675E+03  0.9118800E+02  0.7818608E-02  0.1180000E+00
       11   -1    0    0    0    0  0.00000000000E+00  0.00000000000E+00  0.54999999763E+01  0.55000000000E+01  0.51109989000E-03 0.  1.
     -623   -1    0    0    0    0  0.00000000000E+00  0.00000000000E+00  0.93234578044E-11  0.17124000000E+03  0.17124000000E+03 0.  1.
       11    1    1    2    0    0  0.14875708694E-01 -0.40045705688E-03  0.93641996870E+00  0.93653834202E+00  0.51109989000E-03 0.  1.
     -623    1    1    2    0    0  0.36342680784E-01  0.16972441348E-01  0.44074192721E-03  0.17124000470E+03  0.17124000000E+03 0.  1.
     -611    1    1    2    0    0 -0.37121774563E-01 -0.11879675320E-01  0.33167688764E+01  0.33169979189E+01  0.51109989000E-03 0.  1.
      611    1    1    2    0    0 -0.14096614795E-01 -0.46923089318E-02  0.12463703783E+01  0.12464590300E+01  0.51109989000E-03 0.  1.
</event>
<event>
 6   3  0.2312675E+03  0.9118800E+02  0.7818608E-02  0.1180000E+00
       11   -1    0    0    0    0  0.00000000000E+00  0.00000000000E+00  0.54999999763E+01  0.55000000000E+01  0.51109989000E-03 0.  1.
     -623   -1    0    0    0    0  0.00000000000E+00  0.00000000000E+00  0.93234578044E-11  0.17124000000E+03  0.17124000000E+03 0. -1.
       11    1    1    2    0    0  0.18478123959E-01  0.51117932175E-02  0.95151529344E+00  0.95170856168E+00  0.51109989000E-03 0.  1.
     -623    1    1    2    0    0  0.32806831881E-01  0.10031797374E-01  0.51152866636E-03  0.17124000344E+03  0.17124000000E+03 0. -1.
     -611    1    1    2    0    0 -0.35472592153E-01 -0.11087841706E-01  0.32084893414E+01  0.32087046234E+01  0.51109989000E-03 0.  1.
      611    1    1    2    0    0 -0.15812363675E-01 -0.40557488817E-02  0.13394838116E+01  0.13395833766E+01  0.51109989000E-03 0. -1.
</event>
<event>
 6   3  0.2312675E+03  0.9118800E+02  0.7818608E-02  0.1180000E+00
       11   -1    0    0    0    0  0.00000000000E+00  0.00000000000E+00  0.54999999763E+01  0.55000000000E+01  0.51109989000E-03 0.  1.
     -623   -1    0    0    0    0  0.00000000000E+00  0.00000000000E+00  0.93234578044E-11  0.17124000000E+03  0.17124000000E+03 0.  1.
       11    1    1    2    0    0  0.10341521769E-01  0.16564683772E-01  0.10725936260E+00  0.10902370343E+00  0.51109989000E-03 0.  1.
     -623    1    1    2    0    0 -0.70533229687E-02 -0.51140793674E-02  0.28005762412E-02  0.17124000024E+03  0.17124000000E+03 0.  1.
     -611    1    1    2    0    0 -0.50954528278E-01 -0.11933806813E-02  0.18564655168E+01  0.18571651150E+01  0.51109989000E-03 0. -1.
      611    1    1    2    0    0  0.47666329478E-01 -0.10257223724E-01  0.35334745206E+01  0.35338109370E+01  0.51109989000E-03 0.  1.
</event>
<event>
 6   3  0.2312675E+03  0.9118800E+02  0.7818608E-02  0.1180000E+00
       11   -1    0    0    0    0  0.00000000000E+00  0.00000000000E+00  0.54999999763E+01  0.55000000000E+01  0.51109989000E-03 0. -1.
     -623   -1    0    0    0    0  0.00000000000E+00  0.00000000000E+00  0.93234578044E-11  0.17124000000E+03  0.17124000000E+03 0. -1.
       11    1    1    2    0    0  0.19547801763E-02  0.37971982672E-02  0.11180121886E+00  0.11188392933E+00  0.51109989000E-03 0. -1.
     -623    1    1    2    0    0  0.70878295779E-01 -0.80515893931E-02  0.61990011195E-03  0.17124001486E+03  0.17124000000E+03 0. -1.
     -611    1    1    2    0    0 -0.47232709251E-01 -0.55659027278E-02  0.33333560726E+01  0.33336953784E+01  0.51109989000E-03 0. -1.
      611    1    1    2    0    0 -0.25600366687E-01  0.98202938516E-02  0.20542227833E+01  0.20544058318E+01  0.51109989000E-03 0.  1.
</event>
<event>
 6   3  0.2312675E+03  0.9118800E+02  0.7818608E-02  0.1180000E+00
       11   -1    0    0    0    0  0.00000000000E+00  0.00000000000E+00  0.54999999763E+01  0.55000000000E+01  0.51109989000E-03 0. -1.
     -623   -1    0    0    0    0  0.00000000000E+00  0.00000000000E+00  0.93234578044E-11  0.17124000000E+03  0.17124000000E+03 0.  1.
       11    1    1    2    0    0  0.13068329932E-01  0.19144069562E-02  0.30348238116E+00  0.30377008263E+00  0.51109989000E-03 0. -1.
     -623    1    1    2    0    0  0.51692550114E-01 -0.27522040500E-01  0.76553527788E-03  0.17124001002E+03  0.17124000000E+03 0.  1.
     -611    1    1    2    0    0 -0.26612028708E-01  0.12258983602E-01  0.22040983538E+01  0.22042931514E+01  0.51109989000E-03 0.  1.
      611    1    1    2    0    0 -0.38148851347E-01  0.13348649946E-01  0.29916537067E+01  0.29919267510E+01  0.51109989000E-03 0. -1.
</event>
<event>
 6   3  0.2312675E+03  0.9118800E+02  0.7818608E-02  0.1180000E+00
       11   -1    0    0    0    0  0.00000000000E+00  0.00000000000E+00  0.54999999763E+01  0.55000000000E+01  0.51109989000E-03 0. -1.
     -623   -1    0    0    0    0  0.00000000000E+00  0.00000000000E+00  0.93234578044E-11  0.17124000000E+03  0.17124000000E+03 0.  1.
       11    1    1    2    0    0 -0.44755021342E-01 -0.30868947624E-01  0.35473384122E+00  0.35887638985E+00  0.51109989000E-03 0. -1.
     -623    1    1    2    0    0 -0.16548278642E-01 -0.71329279002E-03  0.46061852530E-02  0.17124000086E+03  0.17124000000E+03 0.  1.
     -611    1    1    2    0    0  0.21254681898E-01  0.10669420364E-01  0.18154147889E+01  0.18155706306E+01  0.51109989000E-03 0. -1.
      611    1    1    2    0    0  0.40048618155E-01  0.20912820087E-01  0.33252451668E+01  0.33255521223E+01  0.51109989000E-03 0. -1.
</event>
<event>
 6   3  0.2312675E+03  0.9118800E+02  0.7818608E-02  0.1180000E+00
       11   -1    0    0    0    0  0.00000000000E+00  0.00000000000E+00  0.54999999763E+01  0.55000000000E+01  0.51109989000E-03 0. -1.
     -623   -1    0    0    0    0  0.00000000000E+00  0.00000000000E+00  0.93234578044E-11  0.17124000000E+03  0.17124000000E+03 0.  1.
       11    1    1    2    0    0  0.52582633945E-01  0.84916779149E-02  0.75069364764E+00  0.75258106262E+00  0.51109989000E-03 0. -1.
     -623    1    1    2    0    0  0.18427335104E-02  0.17672494884E-01  0.22726559547E-02  0.17124000094E+03  0.17124000000E+03 0.  1.
     -611    1    1    2    0    0 -0.21127188653E-01 -0.95920145149E-02  0.18118495492E+01  0.18119981829E+01  0.51109989000E-03 0. -1.
      611    1    1    2    0    0 -0.33298178852E-01 -0.16572158308E-01  0.29351841278E+01  0.29354198218E+01  0.51109989000E-03 0. -1.
</event>
<event>
 6   3  0.2312675E+03  0.9118800E+02  0.7818608E-02  0.1180000E+00
       11   -1    0    0    0    0  0.00000000000E+00  0.00000000000E+00  0.54999999763E+01  0.55000000000E+01  0.51109989000E-03 0. -1.
     -623   -1    0    0    0    0  0.00000000000E+00  0.00000000000E+00  0.93234578044E-11  0.17124000000E+03  0.17124000000E+03 0.  1.
       11    1    1    2    0    0  0.61523304438E-01  0.84487603046E-02  0.88323828375E+00  0.88541889841E+00  0.51109989000E-03 0. -1.
     -623    1    1    2    0    0 -0.20781009626E-02  0.30160292903E-02  0.25785021254E-02  0.17124000006E+03  0.17124000000E+03 0.  1.
     -611    1    1    2    0    0 -0.10088041521E-01 -0.27428686039E-02  0.81522282553E+00  0.81529001490E+00  0.51109989000E-03 0. -1.
      611    1    1    2    0    0 -0.49357161954E-01 -0.87219209909E-02  0.37989603648E+01  0.37992910281E+01  0.51109989000E-03 0. -1.
</event>
<event>
 6   3  0.2312675E+03  0.9118800E+02  0.7818608E-02  0.1180000E+00
       11   -1    0    0    0    0  0.00000000000E+00  0.00000000000E+00  0.54999999763E+01  0.55000000000E+01  0.51109989000E-03 0.  1.
     -623   -1    0    0    0    0  0.00000000000E+00  0.00000000000E+00  0.93234578044E-11  0.17124000000E+03  0.17124000000E+03 0.  1.
       11    1    1    2    0    0 -0.54803263158E-01  0.23299984244E-01  0.84913721976E+00  0.85122298261E+00  0.51109989000E-03 0.  1.
     -623    1    1    2    0    0 -0.14657699042E-01 -0.92844909806E-03  0.26594818556E-02  0.17124000065E+03  0.17124000000E+03 0.  1.
     -611    1    1    2    0    0  0.10558334655E-01 -0.31040563426E-02  0.70692390353E+00  0.70700974548E+00  0.51109989000E-03 0.  1.
      611    1    1    2    0    0  0.58902627460E-01 -0.19267478776E-01  0.39412793654E+01  0.39417666157E+01  0.51109989000E-03 0.  1.
</event>
<event>
 6   3  0.2312675E+03  0.9118800E+02  0.7818608E-02  0.1180000E+00
       11   -1    0    0    0    0  0.00000000000E+00  0.00000000000E+00  0.54999999763E+01  0.55000000000E+01  0.51109989000E-03 0. -1.
     -623   -1    0    0    0    0  0.00000000000E+00  0.00000000000E+00  0.93234578044E-11  0.17124000000E+03  0.17124000000E+03 0. -1.
       11    1    1    2    0    0 -0.84571785028E-02  0.23309179945E-01  0.27125885649E+00  0.27239029018E+00  0.51109989000E-03 0. -1.
     -623    1    1    2    0    0 -0.95765702860E-01  0.12393807723E-02  0.22555853093E-02  0.17124002680E+03  0.17124000000E+03 0. -1.
     -611    1    1    2    0    0  0.43866557086E-01 -0.10811128239E-01  0.22596042840E+01  0.22600559588E+01  0.51109989000E-03 0. -1.
      611    1    1    2    0    0  0.60356324300E-01 -0.13737432484E-01  0.29668812516E+01  0.29675269544E+01  0.51109989000E-03 0. -1.
</event>
<event>
 6   3  0.2312675E+03  0.9118800E+02  0.7818608E-02  0.1180000E+00
       11   -1    0    0    0    0  0.00000000000E+00  0.00000000000E+00  0.54999999763E+01  0.55000000000E+01  0.51109989000E-03 0.  1.
     -623   -1    0    0    0    0  0.00000000000E+00  0.00000000000E+00  0.93234578044E-11  0.17124000000E+03  0.17124000000E+03 0.  1.
       11    1    1    2    0    0  0.65689103188E-01 -0.25655436242E-01  0.75253302814E+00  0.75583032445E+00  0.51109989000E-03 0.  1.
     -623    1    1    2    0    0  0.29703158862E-01 -0.10132422653E-01  0.43952051908E-02  0.17124000293E+03  0.17124000000E+03 0.  1.
     -611    1    1    2    0    0 -0.73753213735E-01  0.28575348534E-01  0.36506785464E+01  0.36515353206E+01  0.51109989000E-03 0.  1.
      611    1    1    2    0    0 -0.21639048319E-01  0.72125103633E-02  0.10923931967E+01  0.10926314228E+01  0.51109989000E-03 0. -1.
</event>
<event>
 6   3  0.2312675E+03  0.9118800E+02  0.7818608E-02  0.1180000E+00
       11   -1    0    0    0    0  0.00000000000E+00  0.00000000000E+00  0.54999999763E+01  0.55000000000E+01  0.51109989000E-03 0.  1.
     -623   -1    0    0    0    0  0.00000000000E+00  0.00000000000E+00  0.93234578044E-11  0.17124000000E+03  0.17124000000E+03 0. -1.
       11    1    1    2    0    0 -0.57694673530E-01  0.15734171384E-02  0.61008451072E+00  0.61280871603E+00  0.51109989000E-03 0.  1.
     -623    1    1    2    0    0 -0.20167087154E-01  0.96318550941E-02  0.33601527874E-02  0.17124000149E+03  0.17124000000E+03 0. -1.
     -611    1    1    2    0    0  0.36292382964E-01 -0.35366627435E-02  0.22325577606E+01  0.22328555844E+01  0.51109989000E-03 0. -1.
      611    1    1    2    0    0  0.41569377724E-01 -0.76686094894E-02  0.26539975523E+01  0.26543342084E+01  0.51109989000E-03 0.  1.
</event>
<event>
 6   3  0.2312675E+03  0.9118800E+02  0.7818608E-02  0.1180000E+00
       11   -1    0    0    0    0  0.00000000000E+00  0.00000000000E+00  0.54999999763E+01  0.55000000000E+01  0.51109989000E-03 0. -1.
     -623   -1    0    0    0    0  0.00000000000E+00  0.00000000000E+00  0.93234578044E-11  0.17124000000E+03  0.17124000000E+03 0. -1.
       11    1    1    2    0    0 -0.72229927611E-01  0.80855720355E-02  0.10714947167E+01  0.10739570420E+01  0.51109989000E-03 0. -1.
     -623    1    1    2    0    0  0.14485711707E-01  0.18650326216E-02  0.28628216499E-02  0.17124000065E+03  0.17124000000E+03 0. -1.
     -611    1    1    2    0    0  0.29688005728E-01 -0.94443961032E-03  0.19937929426E+01  0.19940142499E+01  0.51109989000E-03 0.  1.
      611    1    1    2    0    0  0.28056210176E-01 -0.90061650466E-02  0.24318494953E+01  0.24320280613E+01  0.51109989000E-03 0. -1.
</event>
<event>
 6   3  0.2312675E+03  0.9118800E+02  0.7818608E-02  0.1180000E+00
       11   -1    0    0    0    0  0.00000000000E+00  0.00000000000E+00  0.54999999763E+01  0.55000000000E+01  0.51109989000E-03 0. -1.
     -623   -1    0    0    0    0  0.00000000000E+00  0.00000000000E+00  0.93234578044E-11  0.17124000000E+03  0.17124000000E+03 0.  1.
       11    1    1    2    0    0 -0.27495665221E-01  0.11748587064E-01  0.66613838499E+00  0.66680930564E+00  0.51109989000E-03 0. -1.
     -623    1    1    2    0    0 -0.33911170909E-02  0.46568592395E-02  0.18172724389E-02  0.17124000011E+03  0.17124000000E+03 0.  1.
     -611    1    1    2    0    0  0.67248517372E-01 -0.11730900988E-01  0.33204667831E+01  0.33211684534E+01  0.51109989000E-03 0. -1.
      611    1    1    2    0    0 -0.36361735060E-01 -0.46745453154E-02  0.15115775357E+01  0.15120221344E+01  0.51109989000E-03 0.  1.
</event>
<event>
 6   3  0.2312675E+03  0.9118800E+02  0.7818608E-02  0.1180000E+00
       11   -1    0    0    0    0  0.00000000000E+00  0.00000000000E+00  0.54999999763E+01  0.55000000000E+01  0.51109989000E-03 0.  1.
     -623   -1    0    0    0    0  0.00000000000E+00  0.00000000000E+00  0.93234578044E-11  0.17124000000E+03  0.17124000000E+03 0.  1.
       11    1    1    2    0    0  0.25655636917E-01  0.16566950491E-01  0.12420902718E+00  0.12790941799E+00  0.51109989000E-03 0.  1.
     -623    1    1    2    0    0 -0.90751809640E-03  0.12034695609E-01  0.53157598137E-02  0.17124000051E+03  0.17124000000E+03 0.  1.
     -611    1    1    2    0    0  0.26478641373E-01  0.37690105954E-01  0.23591040261E+01  0.23595537141E+01  0.51109989000E-03 0. -1.
      611    1    1    2    0    0 -0.51226760194E-01 -0.66291752054E-01  0.30113711632E+01  0.30125363601E+01  0.51109989000E-03 0.  1.
</event>
<event>
 6   3  0.2312675E+03  0.9118800E+02  0.7818608E-02  0.1180000E+00
       11   -1    0    0    0    0  0.00000000000E+00  0.00000000000E+00  0.54999999763E+01  0.55000000000E+01  0.51109989000E-03 0.  1.
     -623   -1    0    0    0    0  0.00000000000E+00  0.00000000000E+00  0.93234578044E-11  0.17124000000E+03  0.17124000000E+03 0.  1.
       11    1    1    2    0    0 -0.30734293429E-01 -0.19495486746E-02  0.51249409200E+00  0.51341878919E+00  0.51109989000E-03 0.  1.
     -623    1    1    2    0    0 -0.23847380877E-01 -0.30025774252E-04  0.12256302598E-02  0.17124000166E+03  0.17124000000E+03 0.  1.
     -611    1    1    2    0    0  0.12223008938E-01  0.58527390296E-03  0.11058407467E+01  0.11059085689E+01  0.51109989000E-03 0.  1.
      611    1    1    2    0    0  0.42358665369E-01  0.13943005460E-02  0.38804395074E+01  0.38806709771E+01  0.51109989000E-03 0.  1.
</event>
<event>
 6   3  0.2312675E+03  0.9118800E+02  0.7818608E-02  0.1180000E+00
       11   -1    0    0    0    0  0.00000000000E+00  0.00000000000E+00  0.54999999763E+01  0.55000000000E+01  0.51109989000E-03 0.  1.
     -623   -1    0    0    0    0  0.00000000000E+00  0.00000000000E+00  0.93234578044E-11  0.17124000000E+03  0.17124000000E+03 0. -1.
       11    1    1    2    0    0  0.68991256727E-01  0.27387058807E-01  0.79585371134E+00  0.79930797292E+00  0.51109989000E-03 0.  1.
     -623    1    1    2    0    0  0.89053446658E-02 -0.17567845880E-01  0.41197277738E-02  0.17124000118E+03  0.17124000000E+03 0. -1.
     -611    1    1    2    0    0 -0.61519376106E-01 -0.40783931185E-02  0.36416026651E+01  0.36421245858E+01  0.51109989000E-03 0.  1.
      611    1    1    2    0    0 -0.16377225289E-01 -0.57408198089E-02  0.10584238722E+01  0.10585662592E+01  0.51109989000E-03 0. -1.
</event>
<event>
 6   3  0.2312675E+03  0.9118800E+02  0.7818608E-02  0.1180000E+00
       11   -1    0    0    0    0  0.00000000000E+00  0.00000000000E+00  0.54999999763E+01  0.55000000000E+01  0.51109989000E-03 0.  1.
     -623   -1    0    0    0    0  0.00000000000E+00  0.00000000000E+00  0.93234578044E-11  0.17124000000E+03  0.17124000000E+03 0.  1.
       11    1    1    2    0    0  0.19627743241E-01  0.17310259623E-01  0.89112343536E+00  0.89150778554E+00  0.51109989000E-03 0.  1.
     -623    1    1    2    0    0 -0.11981292056E+00  0.44114830734E-01  0.19310801867E-02  0.17124004761E+03  0.17124000000E+03 0.  1.
     -611    1    1    2    0    0  0.40329617874E-01 -0.24599613538E-01  0.18138329925E+01  0.18144481268E+01  0.51109989000E-03 0.  1.
      611    1    1    2    0    0  0.59855559409E-01 -0.36825476800E-01  0.27931124667E+01  0.27939964776E+01  0.51109989000E-03 0. -1.
</event>
<event>
 6   3  0.2312675E+03  0.9118800E+02  0.7818608E-02  0.1180000E+00
       11   -1    0    0    0    0  0.00000000000E+00  0.00000000000E+00  0.54999999763E+01  0.55000000000E+01  0.51109989000E-03 0. -1.
     -623   -1    0    0    0    0  0.00000000000E+00  0.00000000000E+00  0.93234578044E-11  0.17124000000E+03  0.17124000000E+03 0.  1.
       11    1    1    2    0    0 -0.73640843980E-03  0.11616936183E-01  0.63549891991E+00  0.63560572207E+00  0.51109989000E-03 0. -1.
     -623    1    1    2    0    0 -0.21018264506E-02 -0.64042602875E-02  0.11176408095E-02  0.17124000014E+03  0.17124000000E+03 0.  1.
     -611    1    1    2    0    0  0.44014801817E-01  0.18900707990E-01  0.17926106093E+01  0.17932505673E+01  0.51109989000E-03 0.  1.
      611    1    1    2    0    0 -0.41176566927E-01 -0.24113383886E-01  0.30707728064E+01  0.30711435744E+01  0.51109989000E-03 0. -1.
</event>
<event>
 6   3  0.2312675E+03  0.9118800E+02  0.7818608E-02  0.1180000E+00
       11   -1    0    0    0    0  0.00000000000E+00  0.00000000000E+00  0.54999999763E+01  0.55000000000E+01  0.51109989000E-03 0.  1.
     -623   -1    0    0    0    0  0.00000000000E+00  0.00000000000E+00  0.93234578044E-11  0.17124000000E+03  0.17124000000E+03 0. -1.
       11    1    1    2    0    0  0.20745289796E-01 -0.78850771480E-02  0.50450085086E+00  0.50498902090E+00  0.51109989000E-03 0.  1.
     -623    1    1    2    0    0  0.50151717993E-01  0.40547116838E-01  0.11104131355E-02  0.17124001215E+03  0.17124000000E+03 0. -1.
     -611    1    1    2    0    0 -0.23931962158E-01 -0.11080999379E-01  0.17051988810E+01  0.17054028886E+01  0.51109989000E-03 0. -1.
      611    1    1    2    0    0 -0.46965045666E-01 -0.21581040328E-01  0.32891898338E+01  0.32895959450E+01  0.51109989000E-03 0.  1.
</event>
<event>
 6   3  0.2312675E+03  0.9118800E+02  0.7818608E-02  0.1180000E+00
       11   -1    0    0    0    0  0.00000000000E+00  0.00000000000E+00  0.54999999763E+01  0.55000000000E+01  0.51109989000E-03 0.  1.
     -623   -1    0    0    0    0  0.00000000000E+00  0.00000000000E+00  0.93234578044E-11  0.17124000000E+03  0.17124000000E+03 0.  1.
       11    1    1    2    0    0 -0.10177587236E-01  0.32097450554E-02  0.77045804692E+00  0.77053212070E+00  0.51109989000E-03 0.  1.
     -623    1    1    2    0    0 -0.61139139486E-02  0.12876263172E-01  0.58697864944E-03  0.17124000059E+03  0.17124000000E+03 0.  1.
     -611    1    1    2    0    0 -0.24768039801E-01 -0.85693427591E-02  0.13499989116E+01  0.13502533881E+01  0.51109989000E-03 0. -1.
      611    1    1    2    0    0  0.41059540985E-01 -0.75166654688E-02  0.33789560391E+01  0.33792138970E+01  0.51109989000E-03 0.  1.
</event>
<event>
 6   3  0.2312675E+03  0.9118800E+02  0.7818608E-02  0.1180000E+00
       11   -1    0    0    0    0  0.00000000000E+00  0.00000000000E+00  0.54999999763E+01  0.55000000000E+01  0.51109989000E-03 0. -1.
     -623   -1    0    0    0    0  0.00000000000E+00  0.00000000000E+00  0.93234578044E-11  0.17124000000E+03  0.17124000000E+03 0. -1.
       11    1    1    2    0    0 -0.68485652768E-01 -0.44438699650E-01  0.80032223134E+00  0.80447561670E+00  0.51109989000E-03 0. -1.
     -623    1    1    2    0    0  0.74516197918E-02 -0.11426216483E-01  0.70029956802E-02  0.17124000069E+03  0.17124000000E+03 0. -1.
     -611    1    1    2    0    0 -0.14543234347E-01 -0.39089416143E-01  0.13625959516E+01  0.13632341973E+01  0.51109989000E-03 0.  1.
      611    1    1    2    0    0  0.75577267323E-01  0.94954332276E-01  0.33300787977E+01  0.33322894995E+01  0.51109989000E-03 0. -1.
</event>
<event>
 6   3  0.2312675E+03  0.9118800E+02  0.7818608E-02  0.1180000E+00
       11   -1    0    0    0    0  0.00000000000E+00  0.00000000000E+00  0.54999999763E+01  0.55000000000E+01  0.51109989000E-03 0.  1.
     -623   -1    0    0    0    0  0.00000000000E+00  0.00000000000E+00  0.93234578044E-11  0.17124000000E+03  0.17124000000E+03 0. -1.
       11    1    1    2    0    0  0.13792116990E-02 -0.83354927987E-02 -0.14374260469E-02  0.85854575792E-02  0.51109989000E-03 0.  1.
     -623    1    1    2    0    0  0.69032353100E-02  0.16900463252E-01  0.11752771745E-01  0.17124000138E+03  0.17124000000E+03 0. -1.
     -611    1    1    2    0    0 -0.44621210725E-01  0.47637669726E-01  0.19404605751E+01  0.19415581127E+01  0.51109989000E-03 0. -1.
      611    1    1    2    0    0  0.36338763716E-01 -0.56202640179E-01  0.35492240554E+01  0.35498550533E+01  0.51109989000E-03 0.  1.
</event>
<event>
 6   3  0.2312675E+03  0.9118800E+02  0.7818608E-02  0.1180000E+00
       11   -1    0    0    0    0  0.00000000000E+00  0.00000000000E+00  0.54999999763E+01  0.55000000000E+01  0.51109989000E-03 0.  1.
     -623   -1    0    0    0    0  0.00000000000E+00  0.00000000000E+00  0.93234578044E-11  0.17124000000E+03  0.17124000000E+03 0.  1.
       11    1    1    2    0    0  0.44445149911E-03  0.92313155263E-03  0.75645159221E-02  0.76506753449E-02  0.51109989000E-03 0.  1.
     -623    1    1    2    0    0  0.26184319085E-03 -0.18761466704E-02  0.75636380530E-03  0.17124000001E+03  0.17124000000E+03 0.  1.
     -611    1    1    2    0    0 -0.34143335550E-01  0.25547604431E-01  0.22467437083E+01  0.22471484151E+01  0.51109989000E-03 0. -1.
      611    1    1    2    0    0  0.33437040860E-01 -0.24594589313E-01  0.32449353882E+01  0.32452008974E+01  0.51109989000E-03 0.  1.
</event>
<event>
 6   3  0.2312675E+03  0.9118800E+02  0.7818608E-02  0.1180000E+00
       11   -1    0    0    0    0  0.00000000000E+00  0.00000000000E+00  0.54999999763E+01  0.55000000000E+01  0.51109989000E-03 0. -1.
     -623   -1    0    0    0    0  0.00000000000E+00  0.00000000000E+00  0.93234578044E-11  0.17124000000E+03  0.17124000000E+03 0.  1.
       11    1    1    2    0    0 -0.18086568521E-01  0.73368644307E-02  0.92906293885E+00  0.92926807709E+00  0.51109989000E-03 0. -1.
     -623    1    1    2    0    0  0.65890750603E-01 -0.13941962916E-01  0.47392480697E-03  0.17124001325E+03  0.17124000000E+03 0.  1.
     -611    1    1    2    0    0 -0.63970278336E-02  0.20028974246E-03  0.57536308183E+00  0.57539890444E+00  0.51109989000E-03 0. -1.
      611    1    1    2    0    0 -0.41407154259E-01  0.64048087443E-02  0.39951000319E+01  0.39953197745E+01  0.51109989000E-03 0. -1.
</event>
<event>
 6   3  0.2312675E+03  0.9118800E+02  0.7818608E-02  0.1180000E+00
       11   -1    0    0    0    0  0.00000000000E+00  0.00000000000E+00  0.54999999763E+01  0.55000000000E+01  0.51109989000E-03 0.  1.
     -623   -1    0    0    0    0  0.00000000000E+00  0.00000000000E+00  0.93234578044E-11  0.17124000000E+03  0.17124000000E+03 0.  1.
       11    1    1    2    0    0  0.46112411547E-02 -0.34950024909E-02  0.24119924614E+00  0.24126917779E+00  0.51109989000E-03 0.  1.
     -623    1    1    2    0    0 -0.93422053479E-01  0.56094861953E-01  0.11182953666E-02  0.17124003468E+03  0.17124000000E+03 0.  1.
     -611    1    1    2    0    0  0.43560394365E-01 -0.25654034860E-01  0.25160827320E+01  0.25165905931E+01  0.51109989000E-03 0.  1.
      611    1    1    2    0    0  0.45250418041E-01 -0.26945824651E-01  0.27415997075E+01  0.27421055588E+01  0.51109989000E-03 0. -1.
</event>
<event>
 6   3  0.2312675E+03  0.9118800E+02  0.7818608E-02  0.1180000E+00
       11   -1    0    0    0    0  0.00000000000E+00  0.00000000000E+00  0.54999999763E+01  0.55000000000E+01  0.51109989000E-03 0.  1.
     -623   -1    0    0    0    0  0.00000000000E+00  0.00000000000E+00  0.93234578044E-11  0.17124000000E+03  0.17124000000E+03 0.  1.
       11    1    1    2    0    0  0.18747947318E-01 -0.14688158083E-01  0.30141199080E+00  0.30235190911E+00  0.51109989000E-03 0.  1.
     -623    1    1    2    0    0  0.44645383323E-01  0.11547693450E-01  0.13396232065E-02  0.17124000621E+03  0.17124000000E+03 0.  1.
     -611    1    1    2    0    0 -0.25805920798E-01  0.10429407589E-02  0.18110597061E+01  0.18112439243E+01  0.51109989000E-03 0. -1.
      611    1    1    2    0    0 -0.37587409845E-01  0.20975238740E-02  0.33861886563E+01  0.33863979522E+01  0.51109989000E-03 0.  1.
</event>
<event>
 6   3  0.4103776E+03  0.9118800E+02  0.7818608E-02  0.1180000E+00
       11   -1    0    0    0    0  0.00000000000E+00  0.00000000000E+00  0.54999999763E+01  0.55000000000E+01  0.51109989000E-03 0. -1.
     -623   -1    0    0    0    0  0.00000000000E+00  0.00000000000E+00  0.93234578044E-11  0.17124000000E+03  0.17124000000E+03 0. -1.
       11    1    1    2    0    0 -0.34531309206E-03 -0.26392178549E-03  0.55513710871E-03  0.87080201391E-03  0.51109989000E-03 0. -1.
     -623    1    1    2    0    0  0.82132165717E-03  0.45434943947E-03  0.81415598903E-03  0.17124000000E+03  0.17124000000E+03 0. -1.
     -611    1    1    2    0    0 -0.29692900809E-01 -0.22388556128E-01  0.29460970686E+01  0.29463318066E+01  0.51109989000E-03 0.  1.
      611    1    1    2    0    0  0.29216892244E-01  0.22198128474E-01  0.25525336145E+01  0.25527973868E+01  0.51109989000E-03 0. -1.
</event>
<event>
 6   3  0.2312675E+03  0.9118800E+02  0.7818608E-02  0.1180000E+00
       11   -1    0    0    0    0  0.00000000000E+00  0.00000000000E+00  0.54999999763E+01  0.55000000000E+01  0.51109989000E-03 0.  1.
     -623   -1    0    0    0    0  0.00000000000E+00  0.00000000000E+00  0.93234578044E-11  0.17124000000E+03  0.17124000000E+03 0.  1.
       11    1    1    2    0    0 -0.56469987003E-01 -0.96108389641E-02  0.65087481216E+00  0.65339077892E+00  0.51109989000E-03 0.  1.
     -623    1    1    2    0    0 -0.11403145009E-01  0.10460781261E-01  0.29922109909E-02  0.17124000073E+03  0.17124000000E+03 0.  1.
     -611    1    1    2    0    0  0.13977250382E-01  0.11530050971E-05  0.99259316336E+00  0.99269170073E+00  0.51109989000E-03 0.  1.
      611    1    1    2    0    0  0.53895881632E-01 -0.85109530156E-03  0.38535397899E+01  0.38539167951E+01  0.51109989000E-03 0.  1.
</event>
<event>
 6   3  0.2312675E+03  0.9118800E+02  0.7818608E-02  0.1180000E+00
       11   -1    0    0    0    0  0.00000000000E+00  0.00000000000E+00  0.54999999763E+01  0.55000000000E+01  0.51109989000E-03 0.  1.
     -623   -1    0    0    0    0  0.00000000000E+00  0.00000000000E+00  0.93234578044E-11  0.17124000000E+03  0.17124000000E+03 0.  1.
       11    1    1    2    0    0  0.38545157225E-01  0.32654136700E-01  0.99287059358E+00  0.99415506769E+00  0.51109989000E-03 0.  1.
     -623    1    1    2    0    0  0.24508064664E-01  0.18432118546E-01  0.84892773219E-02  0.17124000296E+03  0.17124000000E+03 0.  1.
     -611    1    1    2    0    0 -0.12952178800E+00  0.17265732292E-01  0.14982127522E+01  0.15039001666E+01  0.51109989000E-03 0. -1.
      611    1    1    2    0    0  0.66468566114E-01 -0.68351987539E-01  0.30004273531E+01  0.30019418094E+01  0.51109989000E-03 0.  1.
</event>
<event>
 6   3  0.2312675E+03  0.9118800E+02  0.7818608E-02  0.1180000E+00
       11   -1    0    0    0    0  0.00000000000E+00  0.00000000000E+00  0.54999999763E+01  0.55000000000E+01  0.51109989000E-03 0. -1.
     -623   -1    0    0    0    0  0.00000000000E+00  0.00000000000E+00  0.93234578044E-11  0.17124000000E+03  0.17124000000E+03 0. -1.
       11    1    1    2    0    0  0.60983966328E-02  0.78065885482E-02  0.54826615354E-02  0.11333757844E-01  0.51109989000E-03 0. -1.
     -623    1    1    2    0    0 -0.12406433108E-01 -0.23917881508E-02  0.95646360825E-02  0.17124000073E+03  0.17124000000E+03 0. -1.
     -611    1    1    2    0    0 -0.97487410901E-01 -0.92027316071E-03  0.24701625501E+01  0.24720857443E+01  0.51109989000E-03 0.  1.
      611    1    1    2    0    0  0.10379544738E+00 -0.44945272367E-02  0.30147901286E+01  0.30165797646E+01  0.51109989000E-03 0. -1.
</event>
<event>
 6   3  0.2312675E+03  0.9118800E+02  0.7818608E-02  0.1180000E+00
       11   -1    0    0    0    0  0.00000000000E+00  0.00000000000E+00  0.54999999763E+01  0.55000000000E+01  0.51109989000E-03 0. -1.
     -623   -1    0    0    0    0  0.00000000000E+00  0.00000000000E+00  0.93234578044E-11  0.17124000000E+03  0.17124000000E+03 0.  1.
       11    1    1    2    0    0  0.20579813227E-01  0.32494490964E-02  0.25519716472E+00  0.25604675693E+00  0.51109989000E-03 0. -1.
     -623    1    1    2    0    0  0.23223259451E-02 -0.90455075473E-02  0.23317147034E-02  0.17124000027E+03  0.17124000000E+03 0.  1.
     -611    1    1    2    0    0  0.41948842199E-01  0.25908246175E-01  0.13707552488E+01  0.13716417739E+01  0.51109989000E-03 0.  1.
      611    1    1    2    0    0 -0.64850981372E-01 -0.20112187724E-01  0.38717158481E+01  0.38723111987E+01  0.51109989000E-03 0. -1.
</event>
<event>
 6   3  0.2312675E+03  0.9118800E+02  0.7818608E-02  0.1180000E+00
       11   -1    0    0    0    0  0.00000000000E+00  0.00000000000E+00  0.54999999763E+01  0.55000000000E+01  0.51109989000E-03 0.  1.
     -623   -1    0    0    0    0  0.00000000000E+00  0.00000000000E+00  0.93234578044E-11  0.17124000000E+03  0.17124000000E+03 0. -1.
       11    1    1    2    0    0 -0.53883743729E-01  0.13061962528E-01  0.93578382482E+00  0.93742503738E+00  0.51109989000E-03 0.  1.
     -623    1    1    2    0    0 -0.10099896114E-01 -0.11247919524E-01  0.20914255006E-02  0.17124000068E+03  0.17124000000E+03 0. -1.
     -611    1    1    2    0    0  0.10482294744E-01 -0.46870169746E-03  0.79335111543E+00  0.79342066508E+00  0.51109989000E-03 0.  1.
      611    1    1    2    0    0  0.53501345088E-01 -0.13453413053E-02  0.37687736097E+01  0.37691536167E+01  0.51109989000E-03 0.  1.
</event>
<event>
 6   3  0.2312675E+03  0.9118800E+02  0.7818608E-02  0.1180000E+00
       11   -1    0    0    0    0  0.00000000000E+00  0.00000000000E+00  0.54999999763E+01  0.55000000000E+01  0.51109989000E-03 0.  1.
     -623   -1    0    0    0    0  0.00000000000E+00  0.00000000000E+00  0.93234578044E-11  0.17124000000E+03  0.17124000000E+03 0. -1.
       11    1    1    2    0    0 -0.34097022355E-01  0.24435253527E-01  0.81771586569E+00  0.81879129623E+00  0.51109989000E-03 0.  1.
     -623    1    1    2    0    0 -0.88743252221E-03 -0.28772150421E-01  0.69259731788E-02  0.17124000256E+03  0.17124000000E+03 0. -1.
     -611    1    1    2    0    0  0.78504053282E-01  0.20283899555E-01  0.58576522895E+00  0.59135056238E+00  0.51109989000E-03 0. -1.
      611    1    1    2    0    0 -0.43519598405E-01 -0.15947002661E-01  0.40895929084E+01  0.40898555819E+01  0.51109989000E-03 0.  1.
</event>
<event>
 6   3  0.2312675E+03  0.9118800E+02  0.7818608E-02  0.1180000E+00
       11   -1    0    0    0    0  0.00000000000E+00  0.00000000000E+00  0.54999999763E+01  0.55000000000E+01  0.51109989000E-03 0.  1.
     -623   -1    0    0    0    0  0.00000000000E+00  0.00000000000E+00  0.93234578044E-11  0.17124000000E+03  0.17124000000E+03 0. -1.
       11    1    1    2    0    0  0.66043485137E-02 -0.27106621065E-02  0.88419687270E-01  0.88708891484E-01  0.51109989000E-03 0.  1.
     -623    1    1    2    0    0 -0.32286038481E-02  0.43514688475E-02  0.15098015470E-02  0.17124000009E+03  0.17124000000E+03 0. -1.
     -611    1    1    2    0    0 -0.39332659104E-01 -0.41163647078E-01  0.20304203085E+01  0.20312184507E+01  0.51109989000E-03 0. -1.
      611    1    1    2    0    0  0.35956914438E-01  0.39522840337E-01  0.33796501789E+01  0.33800725655E+01  0.51109989000E-03 0.  1.
</event>
<event>
 6   3  0.2312675E+03  0.9118800E+02  0.7818608E-02  0.1180000E+00
       11   -1    0    0    0    0  0.00000000000E+00  0.00000000000E+00  0.54999999763E+01  0.55000000000E+01  0.51109989000E-03 0.  1.
     -623   -1    0    0    0    0  0.00000000000E+00  0.00000000000E+00  0.93234578044E-11  0.17124000000E+03  0.17124000000E+03 0. -1.
       11    1    1    2    0    0 -0.96563629566E-02 -0.30606447912E-01  0.42130102377E+00  0.42252196849E+00  0.51109989000E-03 0.  1.
     -623    1    1    2    0    0 -0.55873720734E-02  0.52024300119E-02  0.22497861404E-02  0.17124000018E+03  0.17124000000E+03 0. -1.
     -611    1    1    2    0    0 -0.23791679491E-01  0.46309194327E-01  0.18761536395E+01  0.18768759484E+01  0.51109989000E-03 0. -1.
      611    1    1    2    0    0  0.39035414521E-01 -0.20905176427E-01  0.32002955269E+01  0.32006018982E+01  0.51109989000E-03 0.  1.
</event>
<event>
 6   3  0.2312675E+03  0.9118800E+02  0.7818608E-02  0.1180000E+00
       11   -1    0    0    0    0  0.00000000000E+00  0.00000000000E+00  0.54999999763E+01  0.55000000000E+01  0.51109989000E-03 0. -1.
     -623   -1    0    0    0    0  0.00000000000E+00  0.00000000000E+00  0.93234578044E-11  0.17124000000E+03  0.17124000000E+03 0.  1.
       11    1    1    2    0    0 -0.56799716776E-01 -0.51790337289E-01  0.55302634785E+00  0.55834294972E+00  0.51109989000E-03 0. -1.
     -623    1    1    2    0    0 -0.65314387832E-01 -0.46128338878E-01  0.79048001570E-02  0.17124001885E+03  0.17124000000E+03 0.  1.
     -611    1    1    2    0    0  0.62484367558E-01  0.68712701206E-01  0.28143447619E+01  0.28158768495E+01  0.51109989000E-03 0. -1.
      611    1    1    2    0    0  0.59629737050E-01  0.29205974960E-01  0.21247240663E+01  0.21257613492E+01  0.51109989000E-03 0.  1.
</event>
<event>
 6   3  0.2312675E+03  0.9118800E+02  0.7818608E-02  0.1180000E+00
       11   -1    0    0    0    0  0.00000000000E+00  0.00000000000E+00  0.54999999763E+01  0.55000000000E+01  0.51109989000E-03 0.  1.
     -623   -1    0    0    0    0  0.00000000000E+00  0.00000000000E+00  0.93234578044E-11  0.17124000000E+03  0.17124000000E+03 0. -1.
       11    1    1    2    0    0  0.15409128791E-01  0.16566391716E-01  0.25746618218E-01  0.34278800407E-01  0.51109989000E-03 0.  1.
     -623    1    1    2    0    0 -0.27191149435E-01 -0.27713619115E-03  0.11070798341E-01  0.17124000252E+03  0.17124000000E+03 0. -1.
     -611    1    1    2    0    0 -0.74712556052E-01  0.79657001412E-02  0.28589806204E+01  0.28599678088E+01  0.51109989000E-03 0. -1.
      611    1    1    2    0    0  0.86494576696E-01 -0.24254955666E-01  0.26042019393E+01  0.26057508738E+01  0.51109989000E-03 0.  1.
</event>
<event>
 6   3  0.2312675E+03  0.9118800E+02  0.7818608E-02  0.1180000E+00
       11   -1    0    0    0    0  0.00000000000E+00  0.00000000000E+00  0.54999999763E+01  0.55000000000E+01  0.51109989000E-03 0. -1.
     -623   -1    0    0    0    0  0.00000000000E+00  0.00000000000E+00  0.93234578044E-11  0.17124000000E+03  0.17124000000E+03 0.  1.
       11    1    1    2    0    0 -0.28359875081E-02 -0.16994965611E-02  0.51431799943E+00  0.51432888007E+00  0.51109989000E-03 0. -1.
     -623    1    1    2    0    0  0.61290287754E-01  0.14493023000E-01  0.38167448602E-03  0.17124001158E+03  0.17124000000E+03 0.  1.
     -611    1    1    2    0    0 -0.24404425708E-01 -0.50956523771E-02  0.20842197155E+01  0.20843688793E+01  0.51109989000E-03 0. -1.
      611    1    1    2    0    0 -0.34049874599E-01 -0.76978740765E-02  0.29010805924E+01  0.29012906639E+01  0.51109989000E-03 0. -1.
</event>
<event>
 6   3  0.2312675E+03  0.9118800E+02  0.7818608E-02  0.1180000E+00
       11   -1    0    0    0    0  0.00000000000E+00  0.00000000000E+00  0.54999999763E+01  0.55000000000E+01  0.51109989000E-03 0.  1.
     -623   -1    0    0    0    0  0.00000000000E+00  0.00000000000E+00  0.93234578044E-11  0.17124000000E+03  0.17124000000E+03 0.  1.
       11    1    1    2    0    0 -0.83757010756E-01 -0.19674861216E-01  0.56308924323E+00  0.56962452026E+00  0.51109989000E-03 0.  1.
     -623    1    1    2    0    0  0.23085145473E-01 -0.55694188168E-02  0.69810163143E-02  0.17124000179E+03  0.17124000000E+03 0.  1.
     -611    1    1    2    0    0  0.45337739409E-01  0.15566182591E-01  0.34614800878E+01  0.34618120221E+01  0.51109989000E-03 0.  1.
      611    1    1    2    0    0  0.15334125875E-01  0.96780974421E-02  0.14684496290E+01  0.14685616688E+01  0.51109989000E-03 0. -1.
</event>
<event>
 6   3  0.2312675E+03  0.9118800E+02  0.7818608E-02  0.1180000E+00
       11   -1    0    0    0    0  0.00000000000E+00  0.00000000000E+00  0.54999999763E+01  0.55000000000E+01  0.51109989000E-03 0. -1.
     -623   -1    0    0    0    0  0.00000000000E+00  0.00000000000E+00  0.93234578044E-11  0.17124000000E+03  0.17124000000E+03 0.  1.
       11    1    1    2    0    0  0.49541844122E-02 -0.19736133350E-01 -0.33683771271E-02  0.20631676868E-01  0.51109989000E-03 0. -1.
     -623    1    1    2    0    0  0.42127514122E-01  0.62164174702E-02  0.29549622132E-01  0.17124000784E+03  0.17124000000E+03 0.  1.
     -611    1    1    2    0    0  0.51516644486E-01  0.96678386871E-01  0.18444086885E+01  0.18476591533E+01  0.51109989000E-03 0.  1.
      611    1    1    2    0    0 -0.98598343020E-01 -0.83158670991E-01  0.36294100427E+01  0.36317013254E+01  0.51109989000E-03 0. -1.
</event>
<event>
 6   3  0.2312675E+03  0.9118800E+02  0.7818608E-02  0.1180000E+00
       11   -1    0    0    0    0  0.00000000000E+00  0.00000000000E+00  0.54999999763E+01  0.55000000000E+01  0.51109989000E-03 0. -1.
     -623   -1    0    0    0    0  0.00000000000E+00  0.00000000000E+00  0.93234578044E-11  0.17124000000E+03  0.17124000000E+03 0. -1.
       11    1    1    2    0    0 -0.27974302350E-01 -0.22344022605E-01  0.45922816939E+00  0.46062195966E+00  0.51109989000E-03 0. -1.
     -623    1    1    2    0    0 -0.26096910803E-01 -0.62125326267E-02  0.17671770615E-02  0.17124000211E+03  0.17124000000E+03 0. -1.
     -611    1    1    2    0    0  0.45006701411E-01  0.23496993360E-01  0.41572132256E+01  0.41575232742E+01  0.51109989000E-03 0. -1.
      611    1    1    2    0    0  0.90645117357E-02  0.50595618688E-02  0.88179140370E+00  0.88185265515E+00  0.51109989000E-03 0. -1.
</event>
<event>
 6   3  0.2312675E+03  0.9118800E+02  0.7818608E-02  0.1180000E+00
       11   -1    0    0    0    0  0.00000000000E+00  0.00000000000E+00  0.54999999763E+01  0.55000000000E+01  0.51109989000E-03 0.  1.
     -623   -1    0    0    0    0  0.00000000000E+00  0.00000000000E+00  0.93234578044E-11  0.17124000000E+03  0.17124000000E+03 0. -1.
       11    1    1    2    0    0 -0.11414014692E-01  0.17529070461E-01  0.15117843635E+00  0.15261955603E+00  0.51109989000E-03 0.  1.
     -623    1    1    2    0    0 -0.55686910826E-01 -0.31768026718E-01  0.18935970605E-02  0.17124001201E+03  0.17124000000E+03 0. -1.
     -611    1    1    2    0    0  0.12664359670E-01  0.19957035258E-02  0.97435979070E+00  0.97444426818E+00  0.51109989000E-03 0.  1.
      611    1    1    2    0    0  0.54436565837E-01  0.12243252729E-01  0.43725681513E+01  0.43729241630E+01  0.51109989000E-03 0.  1.
</event>
<event>
 6   3  0.2312675E+03  0.9118800E+02  0.7818608E-02  0.1180000E+00
       11   -1    0    0    0    0  0.00000000000E+00  0.00000000000E+00  0.54999999763E+01  0.55000000000E+01  0.51109989000E-03 0. -1.
     -623   -1    0    0    0    0  0.00000000000E+00  0.00000000000E+00  0.93234578044E-11  0.17124000000E+03  0.17124000000E+03 0.  1.
       11    1    1    2    0    0 -0.86765336528E-02 -0.26222873283E-01  0.68491255482E-01  0.73852790198E-01  0.51109989000E-03 0. -1.
     -623    1    1    2    0    0  0.20765360193E-01 -0.42597969907E-02  0.63193751373E-02  0.17124000143E+03  0.17124000000E+03 0.  1.
     -611    1    1    2    0    0 -0.52975936685E-01  0.29949094675E-01  0.31123240383E+01  0.31129189804E+01  0.51109989000E-03 0. -1.
      611    1    1    2    0    0  0.40887110145E-01  0.53357559845E-03  0.23128653073E+01  0.23132268007E+01  0.51109989000E-03 0.  1.
</event>
<event>
 6   3  0.2312675E+03  0.9118800E+02  0.7818608E-02  0.1180000E+00
       11   -1    0    0    0    0  0.00000000000E+00  0.00000000000E+00  0.54999999763E+01  0.55000000000E+01  0.51109989000E-03 0.  1.
     -623   -1    0    0    0    0  0.00000000000E+00  0.00000000000E+00  0.93234578044E-11  0.17124000000E+03  0.17124000000E+03 0.  1.
       11    1    1    2    0    0  0.34989406821E-03  0.15618942155E-01  0.68588735296E-01  0.70347349719E-01  0.51109989000E-03 0.  1.
     -623    1    1    2    0    0 -0.10844210740E-01 -0.25892367022E-01  0.30899047786E-02  0.17124000233E+03  0.17124000000E+03 0.  1.
     -611    1    1    2    0    0  0.53284069862E-01  0.15292683805E-01  0.44880046004E+01  0.44883469800E+01  0.51109989000E-03 0.  1.
      611    1    1    2    0    0 -0.42789753190E-01 -0.50192589381E-02  0.94031673578E+00  0.94130334152E+00  0.51109989000E-03 0. -1.
</event>
<event>
 6   3  0.2312675E+03  0.9118800E+02  0.7818608E-02  0.1180000E+00
       11   -1    0    0    0    0  0.00000000000E+00  0.00000000000E+00  0.54999999763E+01  0.55000000000E+01  0.51109989000E-03 0.  1.
     -623   -1    0    0    0    0  0.00000000000E+00  0.00000000000E+00  0.93234578044E-11  0.17124000000E+03  0.17124000000E+03 0. -1.
       11    1    1    2    0    0 -0.80630836286E-01  0.56999856544E-01  0.18860542906E+00  0.21289101555E+00  0.51109989000E-03 0.  1.
     -623    1    1    2    0    0 -0.21783724014E-01  0.44406433154E-01  0.26268718193E-01  0.17124000916E+03  0.17124000000E+03 0. -1.
     -611    1    1    2    0    0  0.24209647713E-01 -0.18424705450E-01  0.11362717751E+01  0.11366791037E+01  0.51109989000E-03 0. -1.
      611    1    1    2    0    0  0.78204912588E-01 -0.82981584248E-01  0.41488540540E+01  0.41504207225E+01  0.51109989000E-03 0.  1.
</event>
<event>
 6   3  0.2312675E+03  0.9118800E+02  0.7818608E-02  0.1180000E+00
       11   -1    0    0    0    0  0.00000000000E+00  0.00000000000E+00  0.54999999763E+01  0.55000000000E+01  0.51109989000E-03 0. -1.
     -623   -1    0    0    0    0  0.00000000000E+00  0.00000000000E+00  0.93234578044E-11  0.17124000000E+03  0.17124000000E+03 0. -1.
       11    1    1    2    0    0  0.61158151109E-02 -0.16051547800E-02  0.47299506480E-01  0.47722995010E-01  0.51109989000E-03 0. -1.
     -623    1    1    2    0    0 -0.29466911995E-02  0.25926275486E-02  0.20240143049E-02  0.17124000006E+03  0.17124000000E+03 0. -1.
     -611    1    1    2    0    0 -0.36398025276E-01 -0.55248871218E-01  0.32837995927E+01  0.32844660571E+01  0.51109989000E-03 0. -1.
      611    1    1    2    0    0  0.33228901365E-01  0.54261398450E-01  0.21668768628E+01  0.21678108909E+01  0.51109989000E-03 0.  1.
</event>
<event>
 6   3  0.2312675E+03  0.9118800E+02  0.7818608E-02  0.1180000E+00
       11   -1    0    0    0    0  0.00000000000E+00  0.00000000000E+00  0.54999999763E+01  0.55000000000E+01  0.51109989000E-03 0.  1.
     -623   -1    0    0    0    0  0.00000000000E+00  0.00000000000E+00  0.93234578044E-11  0.17124000000E+03  0.17124000000E+03 0.  1.
       11    1    1    2    0    0  0.36294030683E-01  0.27197466356E-01  0.12414265584E+00  0.13216890354E+00  0.51109989000E-03 0.  1.
     -623    1    1    2    0    0  0.29097205987E-01 -0.12314977745E-01  0.84532276901E-02  0.17124000312E+03  0.17124000000E+03 0.  1.
     -611    1    1    2    0    0 -0.18202788684E-01 -0.94149091033E-03  0.14007906836E+01  0.14009093576E+01  0.51109989000E-03 0. -1.
      611    1    1    2    0    0 -0.47188447987E-01 -0.13940997701E-01  0.39666134092E+01  0.39669186153E+01  0.51109989000E-03 0.  1.
</event>
<event>
 6   3  0.2312675E+03  0.9118800E+02  0.7818608E-02  0.1180000E+00
       11   -1    0    0    0    0  0.00000000000E+00  0.00000000000E+00  0.54999999763E+01  0.55000000000E+01  0.51109989000E-03 0. -1.
     -623   -1    0    0    0    0  0.00000000000E+00  0.00000000000E+00  0.93234578044E-11  0.17124000000E+03  0.17124000000E+03 0. -1.
       11    1    1    2    0    0 -0.42230042094E-02  0.32530943114E-03  0.34646860312E+00  0.34649486830E+00  0.51109989000E-03 0. -1.
     -623    1    1    2    0    0 -0.14402106738E+00 -0.28114028777E-01  0.22975535491E-02  0.17124006289E+03  0.17124000000E+03 0. -1.
     -611    1    1    2    0    0  0.97831961763E-01  0.17918263049E-01  0.34383140413E+01  0.34397522970E+01  0.51109989000E-03 0. -1.
      611    1    1    2    0    0  0.50412109835E-01  0.98704562981E-02  0.17129197785E+01  0.17136899473E+01  0.51109989000E-03 0.  1.
</event>
<event>
 6   3  0.2312675E+03  0.9118800E+02  0.7818608E-02  0.1180000E+00
       11   -1    0    0    0    0  0.00000000000E+00  0.00000000000E+00  0.54999999763E+01  0.55000000000E+01  0.51109989000E-03 0. -1.
     -623   -1    0    0    0    0  0.00000000000E+00  0.00000000000E+00  0.93234578044E-11  0.17124000000E+03  0.17124000000E+03 0. -1.
       11    1    1    2    0    0  0.18846824624E-02  0.15178671613E-03  0.27168105290E+00  0.27168811309E+00  0.51109989000E-03 0. -1.
     -623    1    1    2    0    0 -0.59927507670E-01 -0.27210866466E-01  0.42299936808E-03  0.17124001265E+03  0.17124000000E+03 0. -1.
     -611    1    1    2    0    0  0.46677063592E-01  0.26199340095E-01  0.43044564359E+01  0.43047892659E+01  0.51109989000E-03 0. -1.
      611    1    1    2    0    0  0.11365761725E-01  0.85973970537E-03  0.92343949816E+00  0.92350998244E+00  0.51109989000E-03 0.  1.
</event>
<event>
 6   3  0.2312675E+03  0.9118800E+02  0.7818608E-02  0.1180000E+00
       11   -1    0    0    0    0  0.00000000000E+00  0.00000000000E+00  0.54999999763E+01  0.55000000000E+01  0.51109989000E-03 0.  1.
     -623   -1    0    0    0    0  0.00000000000E+00  0.00000000000E+00  0.93234578044E-11  0.17124000000E+03  0.17124000000E+03 0.  1.
       11    1    1    2    0    0  0.23088973837E-01 -0.62183372412E-01  0.61768165583E+00  0.62123325868E+00  0.51109989000E-03 0.  1.
     -623    1    1    2    0    0  0.34788171504E-01  0.30710644780E-01  0.40045772984E-02  0.17124000633E+03  0.17124000000E+03 0.  1.
     -611    1    1    2    0    0 -0.25811144137E-01  0.14848956246E-01  0.20641688745E+01  0.20643837120E+01  0.51109989000E-03 0. -1.
      611    1    1    2    0    0 -0.32066001214E-01  0.16623771392E-01  0.28141448694E+01  0.28143766958E+01  0.51109989000E-03 0.  1.
</event>
<event>
 6   3  0.2312675E+03  0.9118800E+02  0.7818608E-02  0.1180000E+00
       11   -1    0    0    0    0  0.00000000000E+00  0.00000000000E+00  0.54999999763E+01  0.55000000000E+01  0.51109989000E-03 0.  1.
     -623   -1    0    0    0    0  0.00000000000E+00  0.00000000000E+00  0.93234578044E-11  0.17124000000E+03  0.17124000000E+03 0. -1.
       11    1    1    2    0    0 -0.79166304601E-01  0.14702992776E-01  0.39384897615E+00  0.40199596891E+00  0.51109989000E-03 0.  1.
     -623    1    1    2    0    0 -0.17500045992E-01 -0.38308981724E-01  0.10099393540E-01  0.17124000548E+03  0.17124000000E+03 0. -1.
     -611    1    1    2    0    0  0.56626085809E-01 -0.16893684458E-01  0.11348736487E+01  0.11364111800E+01  0.51109989000E-03 0. -1.
      611    1    1    2    0    0  0.40040264784E-01  0.40499673407E-01  0.39611779578E+01  0.39615873739E+01  0.51109989000E-03 0.  1.
</event>
<event>
 6   3  0.2312675E+03  0.9118800E+02  0.7818608E-02  0.1180000E+00
       11   -1    0    0    0    0  0.00000000000E+00  0.00000000000E+00  0.54999999763E+01  0.55000000000E+01  0.51109989000E-03 0.  1.
     -623   -1    0    0    0    0  0.00000000000E+00  0.00000000000E+00  0.93234578044E-11  0.17124000000E+03  0.17124000000E+03 0.  1.
       11    1    1    2    0    0  0.16379051214E-02 -0.21984883122E-02  0.14259310894E-02  0.31321855972E-02  0.51109989000E-03 0.  1.
     -623    1    1    2    0    0 -0.58357214227E-02  0.36016166593E-02  0.27841465188E-02  0.17124000016E+03  0.17124000000E+03 0.  1.
     -611    1    1    2    0    0 -0.51096232637E-01 -0.10862292878E-01  0.23864927448E+01  0.23870644517E+01  0.51109989000E-03 0. -1.
      611    1    1    2    0    0  0.55294048939E-01  0.94591645313E-02  0.31092971539E+01  0.31098032028E+01  0.51109989000E-03 0.  1.
</event>
<event>
 6   3  0.2312675E+03  0.9118800E+02  0.7818608E-02  0.1180000E+00
       11   -1    0    0    0    0  0.00000000000E+00  0.00000000000E+00  0.54999999763E+01  0.55000000000E+01  0.51109989000E-03 0. -1.
     -623   -1    0    0    0    0  0.00000000000E+00  0.00000000000E+00  0.93234578044E-11  0.17124000000E+03  0.17124000000E+03 0.  1.
       11    1    1    2    0    0 -0.26518681974E-01 -0.51772844887E-01  0.34005808250E+00  0.34499772268E+00  0.51109989000E-03 0. -1.
     -623    1    1    2    0    0  0.13372130566E-02 -0.76547671709E-02  0.58663367002E-02  0.17124000028E+03  0.17124000000E+03 0.  1.
     -611    1    1    2    0    0  0.48487562156E-01  0.55882569656E-01  0.37774755781E+01  0.37782000886E+01  0.51109989000E-03 0. -1.
      611    1    1    2    0    0 -0.23306093239E-01  0.35450424023E-02  0.13765999790E+01  0.13768019119E+01  0.51109989000E-03 0.  1.
</event>
<event>
 6   3  0.2312675E+03  0.9118800E+02  0.7818608E-02  0.1180000E+00
       11   -1    0    0    0    0  0.00000000000E+00  0.00000000000E+00  0.54999999763E+01  0.55000000000E+01  0.51109989000E-03 0.  1.
     -623   -1    0    0    0    0  0.00000000000E+00  0.00000000000E+00  0.93234578044E-11  0.17124000000E+03  0.17124000000E+03 0.  1.
       11    1    1    2    0    0  0.52838938554E-01 -0.14657465893E-01  0.10890044427E+01  0.10903842131E+01  0.51109989000E-03 0.  1.
     -623    1    1    2    0    0 -0.43546397515E-04 -0.78617410669E-03  0.17269893355E-02  0.17124000001E+03  0.17124000000E+03 0.  1.
     -611    1    1    2    0    0 -0.40440271515E-01  0.14260922814E-01  0.34790464656E+01  0.34793107594E+01  0.51109989000E-03 0.  1.
      611    1    1    2    0    0 -0.12355120642E-01  0.11827171851E-02  0.93022207858E+00  0.93030501694E+00  0.51109989000E-03 0. -1.
</event>
<event>
 6   3  0.2312675E+03  0.9118800E+02  0.7818608E-02  0.1180000E+00
       11   -1    0    0    0    0  0.00000000000E+00  0.00000000000E+00  0.54999999763E+01  0.55000000000E+01  0.51109989000E-03 0.  1.
     -623   -1    0    0    0    0  0.00000000000E+00  0.00000000000E+00  0.93234578044E-11  0.17124000000E+03  0.17124000000E+03 0. -1.
       11    1    1    2    0    0 -0.83407058066E-02 -0.48950938123E-02  0.25359101249E+00  0.25377586993E+00  0.51109989000E-03 0.  1.
     -623    1    1    2    0    0  0.18361341538E-02 -0.96891031643E-02  0.89593704154E-03  0.17124000029E+03  0.17124000000E+03 0. -1.
     -611    1    1    2    0    0  0.30922373605E-01 -0.24298989734E-01  0.28433197100E+01  0.28435917198E+01  0.51109989000E-03 0.  1.
      611    1    1    2    0    0 -0.24417801952E-01  0.38883186710E-01  0.24021933168E+01  0.24026321241E+01  0.51109989000E-03 0. -1.
</event>
<event>
 6   3  0.2312675E+03  0.9118800E+02  0.7818608E-02  0.1180000E+00
       11   -1    0    0    0    0  0.00000000000E+00  0.00000000000E+00  0.54999999763E+01  0.55000000000E+01  0.51109989000E-03 0.  1.
     -623   -1    0    0    0    0  0.00000000000E+00  0.00000000000E+00  0.93234578044E-11  0.17124000000E+03  0.17124000000E+03 0.  1.
       11    1    1    2    0    0  0.37404400157E-01  0.20479836081E-01  0.54200396245E+00  0.54367919711E+00  0.51109989000E-03 0.  1.
     -623    1    1    2    0    0 -0.26204289901E-01 -0.52603181273E-02  0.55666503222E-02  0.17124000218E+03  0.17124000000E+03 0.  1.
     -611    1    1    2    0    0  0.81372901344E-01  0.25199612125E-01  0.15044039266E+01  0.15068138589E+01  0.51109989000E-03 0. -1.
      611    1    1    2    0    0 -0.92573011601E-01 -0.40419130078E-01  0.34480254368E+01  0.34495047678E+01  0.51109989000E-03 0.  1.
</event>
<event>
 6   3  0.2312675E+03  0.9118800E+02  0.7818608E-02  0.1180000E+00
       11   -1    0    0    0    0  0.00000000000E+00  0.00000000000E+00  0.54999999763E+01  0.55000000000E+01  0.51109989000E-03 0. -1.
     -623   -1    0    0    0    0  0.00000000000E+00  0.00000000000E+00  0.93234578044E-11  0.17124000000E+03  0.17124000000E+03 0. -1.
       11    1    1    2    0    0  0.63237628004E-01 -0.57801750530E-01  0.60731549473E+00  0.61332895849E+00  0.51109989000E-03 0. -1.
     -623    1    1    2    0    0  0.59318770587E-02  0.25058900506E-01  0.66149264658E-02  0.17124000206E+03  0.17124000000E+03 0. -1.
     -611    1    1    2    0    0 -0.45496988730E-01  0.21779655610E-01  0.32103981391E+01  0.32107944191E+01  0.51109989000E-03 0. -1.
      611    1    1    2    0    0 -0.23672516247E-01  0.10963194373E-01  0.16756714099E+01  0.16758745523E+01  0.51109989000E-03 0. -1.
</event>
<event>
 6   3  0.2312675E+03  0.9118800E+02  0.7818608E-02  0.1180000E+00
       11   -1    0    0    0    0  0.00000000000E+00  0.00000000000E+00  0.54999999763E+01  0.55000000000E+01  0.51109989000E-03 0. -1.
     -623   -1    0    0    0    0  0.00000000000E+00  0.00000000000E+00  0.93234578044E-11  0.17124000000E+03  0.17124000000E+03 0.  1.
       11    1    1    2    0    0 -0.55185831869E-01  0.42502291049E-02  0.77462909671E+00  0.77660417149E+00  0.51109989000E-03 0. -1.
     -623    1    1    2    0    0  0.28429938133E-02  0.34797720836E-02  0.22716628782E-02  0.17124000007E+03  0.17124000000E+03 0.  1.
     -611    1    1    2    0    0  0.14728201461E-01 -0.23152326905E-02  0.13083189835E+01  0.13084040293E+01  0.51109989000E-03 0. -1.
      611    1    1    2    0    0  0.37614636524E-01 -0.54147684873E-02  0.34147802267E+01  0.34149917186E+01  0.51109989000E-03 0. -1.
</event>
<event>
 6   3  0.2312675E+03  0.9118800E+02  0.7818608E-02  0.1180000E+00
       11   -1    0    0    0    0  0.00000000000E+00  0.00000000000E+00  0.54999999763E+01  0.55000000000E+01  0.51109989000E-03 0.  1.
     -623   -1    0    0    0    0  0.00000000000E+00  0.00000000000E+00  0.93234578044E-11  0.17124000000E+03  0.17124000000E+03 0.  1.
       11    1    1    2    0    0 -0.37970432102E-01  0.63452453372E-01  0.93179938006E+00  0.93472900536E+00  0.51109989000E-03 0.  1.
     -623    1    1    2    0    0  0.11966599890E-01  0.21834013897E-02  0.90192135826E-02  0.17124000067E+03  0.17124000000E+03 0.  1.
     -611    1    1    2    0    0 -0.55941466009E-01 -0.90066645088E-02  0.36844442156E+01  0.36848799175E+01  0.51109989000E-03 0.  1.
      611    1    1    2    0    0  0.81945298220E-01 -0.56629190252E-01  0.87473716706E+00  0.88039040757E+00  0.51109989000E-03 0. -1.
</event>
<event>
 6   3  0.2312675E+03  0.9118800E+02  0.7818608E-02  0.1180000E+00
       11   -1    0    0    0    0  0.00000000000E+00  0.00000000000E+00  0.54999999763E+01  0.55000000000E+01  0.51109989000E-03 0. -1.
     -623   -1    0    0    0    0  0.00000000000E+00  0.00000000000E+00  0.93234578044E-11  0.17124000000E+03  0.17124000000E+03 0. -1.
       11    1    1    2    0    0  0.19873723170E-01  0.20295844547E-02  0.26459869724E+00  0.26535224870E+00  0.51109989000E-03 0. -1.
     -623    1    1    2    0    0 -0.78045088446E-02 -0.61228371808E-02  0.13080042675E-02  0.17124000029E+03  0.17124000000E+03 0. -1.
     -611    1    1    2    0    0  0.30458658228E-01  0.12240842692E-01  0.23344112011E+01  0.23346420465E+01  0.51109989000E-03 0.  1.
      611    1    1    2    0    0 -0.42527872553E-01 -0.81475899654E-02  0.28996820737E+01  0.29000054126E+01  0.51109989000E-03 0. -1.
</event>
<event>
 6   3  0.2312675E+03  0.9118800E+02  0.7818608E-02  0.1180000E+00
       11   -1    0    0    0    0  0.00000000000E+00  0.00000000000E+00  0.54999999763E+01  0.55000000000E+01  0.51109989000E-03 0. -1.
     -623   -1    0    0    0    0  0.00000000000E+00  0.00000000000E+00  0.93234578044E-11  0.17124000000E+03  0.17124000000E+03 0. -1.
       11    1    1    2    0    0 -0.22755698293E-01 -0.61409721236E-02  0.48011847970E+00  0.48069694103E+00  0.51109989000E-03 0. -1.
     -623    1    1    2    0    0 -0.93389439517E-02  0.97694302750E-02  0.23222885626E-02  0.17124000055E+03  0.17124000000E+03 0. -1.
     -611    1    1    2    0    0 -0.37891897780E-01  0.23277243390E-01  0.30350680516E+01  0.30353938731E+01  0.51109989000E-03 0. -1.
      611    1    1    2    0    0  0.69986540025E-01 -0.26905701542E-01  0.19824911564E+01  0.19839086368E+01  0.51109989000E-03 0.  1.
</event>
<event>
 6   3  0.2312675E+03  0.9118800E+02  0.7818608E-02  0.1180000E+00
       11   -1    0    0    0    0  0.00000000000E+00  0.00000000000E+00  0.54999999763E+01  0.55000000000E+01  0.51109989000E-03 0. -1.
     -623   -1    0    0    0    0  0.00000000000E+00  0.00000000000E+00  0.93234578044E-11  0.17124000000E+03  0.17124000000E+03 0.  1.
       11    1    1    2    0    0  0.88053964098E-01 -0.31271431203E-01  0.81968228907E+00  0.82499134495E+00  0.51109989000E-03 0. -1.
     -623    1    1    2    0    0  0.61426121524E-01 -0.25582765775E-01  0.80587114911E-02  0.17124001312E+03  0.17124000000E+03 0.  1.
     -611    1    1    2    0    0 -0.31485089557E-01  0.12383052256E-01  0.98310018304E+00  0.98368230744E+00  0.51109989000E-03 0. -1.
      611    1    1    2    0    0 -0.11799499602E+00  0.44471144705E-01  0.36891587912E+01  0.36913132283E+01  0.51109989000E-03 0. -1.
</event>
<event>
 6   3  0.2312675E+03  0.9118800E+02  0.7818608E-02  0.1180000E+00
       11   -1    0    0    0    0  0.00000000000E+00  0.00000000000E+00  0.54999999763E+01  0.55000000000E+01  0.51109989000E-03 0.  1.
     -623   -1    0    0    0    0  0.00000000000E+00  0.00000000000E+00  0.93234578044E-11  0.17124000000E+03  0.17124000000E+03 0.  1.
       11    1    1    2    0    0 -0.22405952485E-02 -0.13837691677E-01  0.34143366803E+00  0.34172168919E+00  0.51109989000E-03 0.  1.
     -623    1    1    2    0    0  0.63772148803E-01  0.10307533612E+00  0.14703598991E-02  0.17124004290E+03  0.17124000000E+03 0.  1.
     -611    1    1    2    0    0 -0.53951803130E-01 -0.77625180934E-01  0.44812696816E+01  0.44822666907E+01  0.51109989000E-03 0.  1.
      611    1    1    2    0    0 -0.75797504063E-02 -0.11612463477E-01  0.67582626519E+00  0.67596871515E+00  0.51109989000E-03 0.  1.
</event>
<event>
 6   3  0.2312675E+03  0.9118800E+02  0.7818608E-02  0.1180000E+00
       11   -1    0    0    0    0  0.00000000000E+00  0.00000000000E+00  0.54999999763E+01  0.55000000000E+01  0.51109989000E-03 0.  1.
     -623   -1    0    0    0    0  0.00000000000E+00  0.00000000000E+00  0.93234578044E-11  0.17124000000E+03  0.17124000000E+03 0.  1.
       11    1    1    2    0    0  0.38049375747E-02  0.56910714556E-02  0.23947171573E-01  0.24911726028E-01  0.51109989000E-03 0.  1.
     -623    1    1    2    0    0 -0.41829693784E-02 -0.82710674421E-02  0.47490002689E-02  0.17124000032E+03  0.17124000000E+03 0.  1.
     -611    1    1    2    0    0 -0.69598983785E-01 -0.36058087360E-01  0.44396145976E+01  0.44403065481E+01  0.51109989000E-03 0.  1.
      611    1    1    2    0    0  0.69977015589E-01  0.38638083346E-01  0.10316892068E+01  0.10347814092E+01  0.51109989000E-03 0. -1.
</event>
<event>
 6   3  0.2312675E+03  0.9118800E+02  0.7818608E-02  0.1180000E+00
       11   -1    0    0    0    0  0.00000000000E+00  0.00000000000E+00  0.54999999763E+01  0.55000000000E+01  0.51109989000E-03 0. -1.
     -623   -1    0    0    0    0  0.00000000000E+00  0.00000000000E+00  0.93234578044E-11  0.17124000000E+03  0.17124000000E+03 0.  1.
       11    1    1    2    0    0 -0.19188642904E-01 -0.16609963078E-01  0.54321405513E+00  0.54380682766E+00  0.51109989000E-03 0. -1.
     -623    1    1    2    0    0 -0.16801986209E-02  0.33462425680E-01  0.15633819097E-02  0.17124000328E+03  0.17124000000E+03 0.  1.
     -611    1    1    2    0    0 -0.25439408361E-01 -0.27050907368E-01  0.10102730518E+01  0.10109553974E+01  0.51109989000E-03 0.  1.
      611    1    1    2    0    0  0.46308249886E-01  0.10198444766E-01  0.39449494874E+01  0.39452344901E+01  0.51109989000E-03 0. -1.
</event>
<event>
 6   3  0.2312675E+03  0.9118800E+02  0.7818608E-02  0.1180000E+00
       11   -1    0    0    0    0  0.00000000000E+00  0.00000000000E+00  0.54999999763E+01  0.55000000000E+01  0.51109989000E-03 0.  1.
     -623   -1    0    0    0    0  0.00000000000E+00  0.00000000000E+00  0.93234578044E-11  0.17124000000E+03  0.17124000000E+03 0.  1.
       11    1    1    2    0    0  0.26023472503E-01  0.18240051831E-01  0.66429487640E+00  0.66505478319E+00  0.51109989000E-03 0.  1.
     -623    1    1    2    0    0 -0.82898697231E-02 -0.45008363561E-01  0.25932278899E-02  0.17124000614E+03  0.17124000000E+03 0.  1.
     -611    1    1    2    0    0  0.55200532926E-01  0.78686960861E-02  0.24581691308E+01  0.24588014869E+01  0.51109989000E-03 0. -1.
      611    1    1    2    0    0 -0.72934135705E-01  0.18899615644E-01  0.23749427411E+01  0.23761375946E+01  0.51109989000E-03 0.  1.
</event>
<event>
 6   3  0.2312675E+03  0.9118800E+02  0.7818608E-02  0.1180000E+00
       11   -1    0    0    0    0  0.00000000000E+00  0.00000000000E+00  0.54999999763E+01  0.55000000000E+01  0.51109989000E-03 0. -1.
     -623   -1    0    0    0    0  0.00000000000E+00  0.00000000000E+00  0.93234578044E-11  0.17124000000E+03  0.17124000000E+03 0.  1.
       11    1    1    2    0    0  0.11403067819E-01  0.79032904646E-02  0.89205366196E+00  0.89216169442E+00  0.51109989000E-03 0. -1.
     -623    1    1    2    0    0  0.75661376333E-04 -0.29608127111E-02  0.46415988702E-03  0.17124000003E+03  0.17124000000E+03 0.  1.
     -611    1    1    2    0    0  0.18940978940E-01 -0.15962863685E-01  0.18328816514E+01  0.18330490945E+01  0.51109989000E-03 0.  1.
      611    1    1    2    0    0 -0.30419708135E-01  0.11020385932E-01  0.27746005030E+01  0.27747891848E+01  0.51109989000E-03 0. -1.
</event>
<event>
 6   3  0.2312675E+03  0.9118800E+02  0.7818608E-02  0.1180000E+00
       11   -1    0    0    0    0  0.00000000000E+00  0.00000000000E+00  0.54999999763E+01  0.55000000000E+01  0.51109989000E-03 0. -1.
     -623   -1    0    0    0    0  0.00000000000E+00  0.00000000000E+00  0.93234578044E-11  0.17124000000E+03  0.17124000000E+03 0.  1.
       11    1    1    2    0    0  0.42822377442E-01  0.14849047861E-02  0.72850609199E+00  0.72976526927E+00  0.51109989000E-03 0. -1.
     -623    1    1    2    0    0 -0.10112285675E-01 -0.17565208999E-01  0.43909479842E-02  0.17124000126E+03  0.17124000000E+03 0.  1.
     -611    1    1    2    0    0 -0.54499120456E-01  0.84736023631E-01  0.27551434055E+01  0.27569849100E+01  0.51109989000E-03 0.  1.
      611    1    1    2    0    0  0.21789028689E-01 -0.68655719419E-01  0.20119595308E+01  0.20132485650E+01  0.51109989000E-03 0. -1.
</event>
<event>
 6   3  0.2312675E+03  0.9118800E+02  0.7818608E-02  0.1180000E+00
       11   -1    0    0    0    0  0.00000000000E+00  0.00000000000E+00  0.54999999763E+01  0.55000000000E+01  0.51109989000E-03 0.  1.
     -623   -1    0    0    0    0  0.00000000000E+00  0.00000000000E+00  0.93234578044E-11  0.17124000000E+03  0.17124000000E+03 0.  1.
       11    1    1    2    0    0 -0.47436138384E-02  0.36221424248E-02  0.11336405563E-01  0.12821743337E-01  0.51109989000E-03 0.  1.
     -623    1    1    2    0    0 -0.82704734165E-02 -0.64327168749E-02  0.21002171107E-02  0.17124000033E+03  0.17124000000E+03 0.  1.
     -611    1    1    2    0    0 -0.27834857152E-01 -0.20004934112E-01  0.27628345367E+01  0.27630472155E+01  0.51109989000E-03 0.  1.
      611    1    1    2    0    0  0.40848944407E-01  0.22815508562E-01  0.27237288168E+01  0.27241307077E+01  0.51109989000E-03 0. -1.
</event>
<event>
 6   3  0.2312675E+03  0.9118800E+02  0.7818608E-02  0.1180000E+00
       11   -1    0    0    0    0  0.00000000000E+00  0.00000000000E+00  0.54999999763E+01  0.55000000000E+01  0.51109989000E-03 0. -1.
     -623   -1    0    0    0    0  0.00000000000E+00  0.00000000000E+00  0.93234578044E-11  0.17124000000E+03  0.17124000000E+03 0. -1.
       11    1    1    2    0    0  0.71853404640E-02 -0.10709958430E-03  0.73749047916E-01  0.74100093653E-01  0.51109989000E-03 0. -1.
     -623    1    1    2    0    0 -0.61697210793E-02  0.17353273733E-02  0.26130155763E-02  0.17124000014E+03  0.17124000000E+03 0. -1.
     -611    1    1    2    0    0 -0.78179859206E-01 -0.55474367468E-02  0.24235127585E+01  0.24247798284E+01  0.51109989000E-03 0.  1.
      611    1    1    2    0    0  0.77164239821E-01  0.39192089578E-02  0.30001251542E+01  0.30011199380E+01  0.51109989000E-03 0. -1.
</event>
<event>
 6   3  0.2312675E+03  0.9118800E+02  0.7818608E-02  0.1180000E+00
       11   -1    0    0    0    0  0.00000000000E+00  0.00000000000E+00  0.54999999763E+01  0.55000000000E+01  0.51109989000E-03 0.  1.
     -623   -1    0    0    0    0  0.00000000000E+00  0.00000000000E+00  0.93234578044E-11  0.17124000000E+03  0.17124000000E+03 0.  1.
       11    1    1    2    0    0 -0.61382033493E-01  0.20972889694E-01  0.10407199458E+01  0.10427396046E+01  0.51109989000E-03 0.  1.
     -623    1    1    2    0    0 -0.42303258869E-01 -0.39937956223E-02  0.33388471360E-02  0.17124000530E+03  0.17124000000E+03 0.  1.
     -611    1    1    2    0    0  0.10012217024E-01  0.54449013752E-02  0.61881568279E+00  0.61892083656E+00  0.51109989000E-03 0. -1.
      611    1    1    2    0    0  0.93673075337E-01 -0.22423995447E-01  0.38371255004E+01  0.38383342543E+01  0.51109989000E-03 0.  1.
</event>
<event>
 6   3  0.2312675E+03  0.9118800E+02  0.7818608E-02  0.1180000E+00
       11   -1    0    0    0    0  0.00000000000E+00  0.00000000000E+00  0.54999999763E+01  0.55000000000E+01  0.51109989000E-03 0.  1.
     -623   -1    0    0    0    0  0.00000000000E+00  0.00000000000E+00  0.93234578044E-11  0.17124000000E+03  0.17124000000E+03 0.  1.
       11    1    1    2    0    0  0.75747608949E-03 -0.21321323095E-02  0.37030781366E+00  0.37031507914E+00  0.51109989000E-03 0.  1.
     -623    1    1    2    0    0 -0.54862272533E-01 -0.21349765073E-01  0.35952819238E-03  0.17124001012E+03  0.17124000000E+03 0.  1.
     -611    1    1    2    0    0  0.22332423004E-01  0.10993854508E-01  0.19535909997E+01  0.19537496404E+01  0.51109989000E-03 0. -1.
      611    1    1    2    0    0  0.31772373492E-01  0.12488042895E-01  0.31757416400E+01  0.31759251660E+01  0.51109989000E-03 0.  1.
</event>
<event>
 6   3  0.2312675E+03  0.9118800E+02  0.7818608E-02  0.1180000E+00
       11   -1    0    0    0    0  0.00000000000E+00  0.00000000000E+00  0.54999999763E+01  0.55000000000E+01  0.51109989000E-03 0.  1.
     -623   -1    0    0    0    0  0.00000000000E+00  0.00000000000E+00  0.93234578044E-11  0.17124000000E+03  0.17124000000E+03 0.  1.
       11    1    1    2    0    0  0.48638217495E-02  0.87591582166E-02  0.11956390006E+00  0.11998402826E+00  0.51109989000E-03 0.  1.
     -623    1    1    2    0    0  0.15492033434E-02 -0.85578073524E-02  0.19180483097E-02  0.17124000023E+03  0.17124000000E+03 0.  1.
     -611    1    1    2    0    0 -0.60721378278E-01 -0.13104702806E-02  0.39471672577E+01  0.39476345353E+01  0.51109989000E-03 0.  1.
      611    1    1    2    0    0  0.54308353185E-01  0.11091194166E-02  0.14313507703E+01  0.14323812049E+01  0.51109989000E-03 0. -1.
</event>
<event>
 6   3  0.2312675E+03  0.9118800E+02  0.7818608E-02  0.1180000E+00
       11   -1    0    0    0    0  0.00000000000E+00  0.00000000000E+00  0.54999999763E+01  0.55000000000E+01  0.51109989000E-03 0. -1.
     -623   -1    0    0    0    0  0.00000000000E+00  0.00000000000E+00  0.93234578044E-11  0.17124000000E+03  0.17124000000E+03 0. -1.
       11    1    1    2    0    0 -0.67407058871E-01  0.19981243584E-01  0.38604543794E+00  0.39239559510E+00  0.51109989000E-03 0. -1.
     -623    1    1    2    0    0 -0.18807012477E-01 -0.31278229693E-01  0.71507120104E-02  0.17124000404E+03  0.17124000000E+03 0. -1.
     -611    1    1    2    0    0  0.40541993699E-01 -0.43434710093E-02  0.27479553690E+01  0.27482579010E+01  0.51109989000E-03 0.  1.
      611    1    1    2    0    0  0.45672077649E-01  0.15640457118E-01  0.23588484573E+01  0.23593424652E+01  0.51109989000E-03 0. -1.
</event>
<event>
 6   3  0.2312675E+03  0.9118800E+02  0.7818608E-02  0.1180000E+00
       11   -1    0    0    0    0  0.00000000000E+00  0.00000000000E+00  0.54999999763E+01  0.55000000000E+01  0.51109989000E-03 0. -1.
     -623   -1    0    0    0    0  0.00000000000E+00  0.00000000000E+00  0.93234578044E-11  0.17124000000E+03  0.17124000000E+03 0.  1.
       11    1    1    2    0    0 -0.46604899829E-01  0.45068581229E-01  0.72865980882E+00  0.73153849654E+00  0.51109989000E-03 0. -1.
     -623    1    1    2    0    0 -0.70557436586E-02  0.32725816716E-01  0.38194270174E-02  0.17124000332E+03  0.17124000000E+03 0.  1.
     -611    1    1    2    0    0  0.20262114125E-01 -0.30041407003E-01  0.18901257454E+01  0.18904731244E+01  0.51109989000E-03 0. -1.
      611    1    1    2    0    0  0.33398529347E-01 -0.47752990919E-01  0.28773949936E+01  0.28779850625E+01  0.51109989000E-03 0. -1.
</event>
<event>
 6   3  0.2312675E+03  0.9118800E+02  0.7818608E-02  0.1180000E+00
       11   -1    0    0    0    0  0.00000000000E+00  0.00000000000E+00  0.54999999763E+01  0.55000000000E+01  0.51109989000E-03 0. -1.
     -623   -1    0    0    0    0  0.00000000000E+00  0.00000000000E+00  0.93234578044E-11  0.17124000000E+03  0.17124000000E+03 0.  1.
       11    1    1    2    0    0  0.81287931228E-03 -0.36424837061E-01  0.84591498667E-01  0.92105441737E-01  0.51109989000E-03 0. -1.
     -623    1    1    2    0    0  0.78521877215E-02  0.15019431844E-02  0.95625459964E-02  0.17124000045E+03  0.17124000000E+03 0.  1.
     -611    1    1    2    0    0  0.41338989006E-01 -0.35823272682E-01  0.29791239860E+01  0.29796261853E+01  0.51109989000E-03 0. -1.
      611    1    1    2    0    0 -0.50004056040E-01  0.70746166559E-01  0.24267219455E+01  0.24282679193E+01  0.51109989000E-03 0.  1.
</event>
<event>
 6   3  0.2312675E+03  0.9118800E+02  0.7818608E-02  0.1180000E+00
       11   -1    0    0    0    0  0.00000000000E+00  0.00000000000E+00  0.54999999763E+01  0.55000000000E+01  0.51109989000E-03 0. -1.
     -623   -1    0    0    0    0  0.00000000000E+00  0.00000000000E+00  0.93234578044E-11  0.17124000000E+03  0.17124000000E+03 0.  1.
       11    1    1    2    0    0 -0.13329339977E-02  0.19895141476E-02  0.93473517884E-02  0.96627681406E-02  0.51109989000E-03 0. -1.
     -623    1    1    2    0    0  0.82103249173E-03  0.18372935158E-02  0.74709512528E-03  0.17124000001E+03  0.17124000000E+03 0.  1.
     -611    1    1    2    0    0  0.33314066465E-01 -0.10485698396E-01  0.31136901214E+01  0.31138860304E+01  0.51109989000E-03 0. -1.
      611    1    1    2    0    0 -0.32802164959E-01  0.66588907325E-02  0.23762154078E+01  0.23764511879E+01  0.51109989000E-03 0.  1.
</event>
<event>
 6   3  0.2312675E+03  0.9118800E+02  0.7818608E-02  0.1180000E+00
       11   -1    0    0    0    0  0.00000000000E+00  0.00000000000E+00  0.54999999763E+01  0.55000000000E+01  0.51109989000E-03 0. -1.
     -623   -1    0    0    0    0  0.00000000000E+00  0.00000000000E+00  0.93234578044E-11  0.17124000000E+03  0.17124000000E+03 0.  1.
       11    1    1    2    0    0 -0.67479820968E-01 -0.19265052796E-01  0.40813203029E+00  0.41412158102E+00  0.51109989000E-03 0. -1.
     -623    1    1    2    0    0 -0.13363439417E-01 -0.70452563078E-02  0.67102802131E-02  0.17124000080E+03  0.17124000000E+03 0.  1.
     -611    1    1    2    0    0  0.32846371279E-01  0.64237652098E-02  0.18502835797E+01  0.18505863220E+01  0.51109989000E-03 0.  1.
      611    1    1    2    0    0  0.47996889107E-01  0.19886543894E-01  0.32348740861E+01  0.32352912991E+01  0.51109989000E-03 0. -1.
</event>
<event>
 6   3  0.2312675E+03  0.9118800E+02  0.7818608E-02  0.1180000E+00
       11   -1    0    0    0    0  0.00000000000E+00  0.00000000000E+00  0.54999999763E+01  0.55000000000E+01  0.51109989000E-03 0. -1.
     -623   -1    0    0    0    0  0.00000000000E+00  0.00000000000E+00  0.93234578044E-11  0.17124000000E+03  0.17124000000E+03 0.  1.
       11    1    1    2    0    0  0.32813439044E-02 -0.20867771536E-02  0.50542586779E-01  0.50694537754E-01  0.51109989000E-03 0. -1.
     -623    1    1    2    0    0 -0.22609579341E-02  0.44305407778E-02  0.10975107759E-02  0.17124000008E+03  0.17124000000E+03 0.  1.
     -611    1    1    2    0    0 -0.45263864288E-01 -0.14491505430E-01  0.38308727105E+01  0.38311675514E+01  0.51109989000E-03 0. -1.
      611    1    1    2    0    0  0.44243478318E-01  0.12147741805E-01  0.16174871681E+01  0.16181378351E+01  0.51109989000E-03 0.  1.
</event>
<event>
 6   3  0.2312675E+03  0.9118800E+02  0.7818608E-02  0.1180000E+00
       11   -1    0    0    0    0  0.00000000000E+00  0.00000000000E+00  0.54999999763E+01  0.55000000000E+01  0.51109989000E-03 0. -1.
     -623   -1    0    0    0    0  0.00000000000E+00  0.00000000000E+00  0.93234578044E-11  0.17124000000E+03  0.17124000000E+03 0. -1.
       11    1    1    2    0    0  0.11556033040E-01 -0.77170044983E-02  0.75070209440E+00  0.75083086632E+00  0.51109989000E-03 0. -1.
     -623    1    1    2    0    0  0.63779565027E-01  0.24089237129E-01  0.76876072797E-03  0.17124001357E+03  0.17124000000E+03 0. -1.
     -611    1    1    2    0    0 -0.20737361817E-01 -0.54004587716E-02  0.12908056577E+01  0.12909836212E+01  0.51109989000E-03 0. -1.
      611    1    1    2    0    0 -0.54598236244E-01 -0.10971773858E-01  0.34577234630E+01  0.34581719383E+01  0.51109989000E-03 0.  1.
</event>
<event>
 6   3  0.2312675E+03  0.9118800E+02  0.7818608E-02  0.1180000E+00
       11   -1    0    0    0    0  0.00000000000E+00  0.00000000000E+00  0.54999999763E+01  0.55000000000E+01  0.51109989000E-03 0.  1.
     -623   -1    0    0    0    0  0.00000000000E+00  0.00000000000E+00  0.93234578044E-11  0.17124000000E+03  0.17124000000E+03 0. -1.
       11    1    1    2    0    0 -0.15875923037E-03  0.14209184369E-01  0.94403401535E-01  0.95468264724E-01  0.51109989000E-03 0.  1.
     -623    1    1    2    0    0  0.92856071320E-02 -0.38108007348E-03  0.57633082045E-02  0.17124000035E+03  0.17124000000E+03 0. -1.
     -611    1    1    2    0    0 -0.81757081959E-01 -0.13686025417E-01  0.83174613780E+00  0.83586687140E+00  0.51109989000E-03 0.  1.
      611    1    1    2    0    0  0.72630234058E-01 -0.14207887921E-03  0.45680871287E+01  0.45686645147E+01  0.51109989000E-03 0. -1.
</event>
<event>
 6   3  0.2312675E+03  0.9118800E+02  0.7818608E-02  0.1180000E+00
       11   -1    0    0    0    0  0.00000000000E+00  0.00000000000E+00  0.54999999763E+01  0.55000000000E+01  0.51109989000E-03 0. -1.
     -623   -1    0    0    0    0  0.00000000000E+00  0.00000000000E+00  0.93234578044E-11  0.17124000000E+03  0.17124000000E+03 0. -1.
       11    1    1    2    0    0 -0.14097581491E-01 -0.15067736244E-01  0.39275888820E+00  0.39330088223E+00  0.51109989000E-03 0. -1.
     -623    1    1    2    0    0 -0.62218765010E-03  0.29373617510E-03  0.10056882856E-02  0.17124000000E+03  0.17124000000E+03 0. -1.
     -611    1    1    2    0    0  0.39745825092E-01  0.34065206601E-03  0.27763306202E+01  0.27766151733E+01  0.51109989000E-03 0.  1.
      611    1    1    2    0    0 -0.25026055951E-01  0.14433348003E-01  0.23299047796E+01  0.23300839401E+01  0.51109989000E-03 0. -1.
</event>
<event>
 6   3  0.2312675E+03  0.9118800E+02  0.7818608E-02  0.1180000E+00
       11   -1    0    0    0    0  0.00000000000E+00  0.00000000000E+00  0.54999999763E+01  0.55000000000E+01  0.51109989000E-03 0. -1.
     -623   -1    0    0    0    0  0.00000000000E+00  0.00000000000E+00  0.93234578044E-11  0.17124000000E+03  0.17124000000E+03 0.  1.
       11    1    1    2    0    0  0.63397510476E-01  0.41291431724E-01  0.65708943000E+00  0.66143102959E+00  0.51109989000E-03 0. -1.
     -623    1    1    2    0    0 -0.81939655142E-02  0.16887492497E-01  0.50227797595E-02  0.17124000110E+03  0.17124000000E+03 0.  1.
     -611    1    1    2    0    0 -0.34013820791E-01 -0.30113486124E-01  0.29946548890E+01  0.29949994870E+01  0.51109989000E-03 0.  1.
      611    1    1    2    0    0 -0.21189724172E-01 -0.28065438097E-01  0.18432328776E+01  0.18435683810E+01  0.51109989000E-03 0. -1.
</event>
<event>
 6   3  0.2312675E+03  0.9118800E+02  0.7818608E-02  0.1180000E+00
       11   -1    0    0    0    0  0.00000000000E+00  0.00000000000E+00  0.54999999763E+01  0.55000000000E+01  0.51109989000E-03 0.  1.
     -623   -1    0    0    0    0  0.00000000000E+00  0.00000000000E+00  0.93234578044E-11  0.17124000000E+03  0.17124000000E+03 0. -1.
       11    1    1    2    0    0 -0.19616923030E-01  0.31905211000E-01  0.56884413245E+00  0.57007602511E+00  0.51109989000E-03 0.  1.
     -623    1    1    2    0    0  0.17034712077E-01 -0.66337084734E-02  0.25507176164E-02  0.17124000099E+03  0.17124000000E+03 0. -1.
     -611    1    1    2    0    0 -0.46084399213E-01 -0.32032813154E-01  0.35476504995E+01  0.35480944464E+01  0.51109989000E-03 0.  1.
      611    1    1    2    0    0  0.48666610166E-01  0.67613106279E-02  0.13809546267E+01  0.13818285337E+01  0.51109989000E-03 0. -1.
</event>
<event>
 6   3  0.2312675E+03  0.9118800E+02  0.7818608E-02  0.1180000E+00
       11   -1    0    0    0    0  0.00000000000E+00  0.00000000000E+00  0.54999999763E+01  0.55000000000E+01  0.51109989000E-03 0. -1.
     -623   -1    0    0    0    0  0.00000000000E+00  0.00000000000E+00  0.93234578044E-11  0.17124000000E+03  0.17124000000E+03 0.  1.
       11    1    1    2    0    0 -0.93694904452E-01  0.15083963546E-01  0.86311163315E+00  0.86831343049E+00  0.51109989000E-03 0. -1.
     -623    1    1    2    0    0  0.70461151832E-01 -0.90170372230E-02  0.59281363050E-02  0.17124001484E+03  0.17124000000E+03 0.  1.
     -611    1    1    2    0    0  0.48254502051E-01 -0.20225995682E-01  0.30992091757E+01  0.30996508455E+01  0.51109989000E-03 0.  1.
      611    1    1    2    0    0 -0.25020749431E-01  0.14159069359E-01  0.15317510311E+01  0.15320208875E+01  0.51109989000E-03 0. -1.
</event>
<event>
 6   3  0.2312675E+03  0.9118800E+02  0.7818608E-02  0.1180000E+00
       11   -1    0    0    0    0  0.00000000000E+00  0.00000000000E+00  0.54999999763E+01  0.55000000000E+01  0.51109989000E-03 0.  1.
     -623   -1    0    0    0    0  0.00000000000E+00  0.00000000000E+00  0.93234578044E-11  0.17124000000E+03  0.17124000000E+03 0. -1.
       11    1    1    2    0    0  0.13213441281E-01  0.25369239192E-02  0.11525089421E-01  0.17723428639E-01  0.51109989000E-03 0.  1.
     -623    1    1    2    0    0  0.15600149814E-02 -0.27652972418E-01  0.92730479203E-02  0.17124000249E+03  0.17124000000E+03 0. -1.
     -611    1    1    2    0    0 -0.65966267255E-01 -0.68068992273E-02  0.47838708623E+01  0.47843305248E+01  0.51109989000E-03 0.  1.
      611    1    1    2    0    0  0.51192810993E-01  0.31922947727E-01  0.69533097661E+00  0.69794355556E+00  0.51109989000E-03 0. -1.
</event>
<event>
 6   3  0.2312675E+03  0.9118800E+02  0.7818608E-02  0.1180000E+00
       11   -1    0    0    0    0  0.00000000000E+00  0.00000000000E+00  0.54999999763E+01  0.55000000000E+01  0.51109989000E-03 0. -1.
     -623   -1    0    0    0    0  0.00000000000E+00  0.00000000000E+00  0.93234578044E-11  0.17124000000E+03  0.17124000000E+03 0. -1.
       11    1    1    2    0    0 -0.95039620080E-01 -0.84286593278E-01  0.73412276337E+00  0.74503238326E+00  0.51109989000E-03 0. -1.
     -623    1    1    2    0    0  0.20978686522E-01  0.30168834894E-01  0.11798961079E-01  0.17124000435E+03  0.17124000000E+03 0. -1.
     -611    1    1    2    0    0  0.45480978007E-01  0.32873976352E-01  0.29251839670E+01  0.29257222561E+01  0.51109989000E-03 0.  1.
      611    1    1    2    0    0  0.28579955666E-01  0.21243782115E-01  0.18288942922E+01  0.18292410189E+01  0.51109989000E-03 0. -1.
</event>
<event>
 6   3  0.2312675E+03  0.9118800E+02  0.7818608E-02  0.1180000E+00
       11   -1    0    0    0    0  0.00000000000E+00  0.00000000000E+00  0.54999999763E+01  0.55000000000E+01  0.51109989000E-03 0.  1.
     -623   -1    0    0    0    0  0.00000000000E+00  0.00000000000E+00  0.93234578044E-11  0.17124000000E+03  0.17124000000E+03 0. -1.
       11    1    1    2    0    0  0.56128740544E-01 -0.19336229267E-01  0.72221326310E+00  0.72464928338E+00  0.51109989000E-03 0.  1.
     -623    1    1    2    0    0 -0.30077268988E-02 -0.40833106465E-02  0.28580037172E-02  0.17124000010E+03  0.17124000000E+03 0. -1.
     -611    1    1    2    0    0 -0.23114003523E-01  0.20685810622E-01  0.17802560505E+01  0.17805263341E+01  0.51109989000E-03 0. -1.
      611    1    1    2    0    0 -0.30007010122E-01  0.27337292912E-02  0.29946726589E+01  0.29948242835E+01  0.51109989000E-03 0.  1.
</event>
<event>
 6   3  0.2312675E+03  0.9118800E+02  0.7818608E-02  0.1180000E+00
       11   -1    0    0    0    0  0.00000000000E+00  0.00000000000E+00  0.54999999763E+01  0.55000000000E+01  0.51109989000E-03 0.  1.
     -623   -1    0    0    0    0  0.00000000000E+00  0.00000000000E+00  0.93234578044E-11  0.17124000000E+03  0.17124000000E+03 0.  1.
       11    1    1    2    0    0 -0.18572215520E-02  0.14872246394E-02  0.23350910387E+00  0.23352178469E+00  0.51109989000E-03 0. -1.
     -623    1    1    2    0    0  0.56701066232E-01 -0.84327952203E-02  0.31267941133E-03  0.17124000960E+03  0.17124000000E+03 0.  1.
     -611    1    1    2    0    0 -0.10469035799E-01  0.97916127040E-03  0.97861839084E+00  0.97867501019E+00  0.51109989000E-03 0. -1.
      611    1    1    2    0    0 -0.44374808840E-01  0.59664093042E-02  0.42875597982E+01  0.42877936058E+01  0.51109989000E-03 0.  1.
</event>
<event>
 6   3  0.2312675E+03  0.9118800E+02  0.7818608E-02  0.1180000E+00
       11   -1    0    0    0    0  0.00000000000E+00  0.00000000000E+00  0.54999999763E+01  0.55000000000E+01  0.51109989000E-03 0. -1.
     -623   -1    0    0    0    0  0.00000000000E+00  0.00000000000E+00  0.93234578044E-11  0.17124000000E+03  0.17124000000E+03 0.  1.
       11    1    1    2    0    0 -0.34490150070E-01 -0.39284856867E-01  0.94160597835E+00  0.94305617548E+00  0.51109989000E-03 0. -1.
     -623    1    1    2    0    0 -0.12825950329E-01 -0.20007829298E-01  0.20854344216E-02  0.17124000166E+03  0.17124000000E+03 0.  1.
     -611    1    1    2    0    0  0.14438878735E-01  0.20554771874E-01  0.14293367176E+01  0.14295575167E+01  0.51109989000E-03 0. -1.
      611    1    1    2    0    0  0.32877221664E-01  0.38737914291E-01  0.31269718458E+01  0.31273846459E+01  0.51109989000E-03 0.  1.
</event>
<event>
 6   3  0.2312675E+03  0.9118800E+02  0.7818608E-02  0.1180000E+00
       11   -1    0    0    0    0  0.00000000000E+00  0.00000000000E+00  0.54999999763E+01  0.55000000000E+01  0.51109989000E-03 0. -1.
     -623   -1    0    0    0    0  0.00000000000E+00  0.00000000000E+00  0.93234578044E-11  0.17124000000E+03  0.17124000000E+03 0. -1.
       11    1    1    2    0    0 -0.37697366770E-02 -0.11877642935E-01  0.10903360284E+01  0.10904073575E+01  0.51109989000E-03 0. -1.
     -623    1    1    2    0    0  0.20374334889E-02 -0.16823845966E-02  0.45814220497E-03  0.17124000002E+03  0.17124000000E+03 0. -1.
     -611    1    1    2    0    0  0.28231407715E-01  0.14588123946E-01  0.25312218578E+01  0.25314213755E+01  0.51109989000E-03 0. -1.
      611    1    1    2    0    0 -0.26499104527E-01 -0.10280964144E-02  0.18779839480E+01  0.18781712461E+01  0.51109989000E-03 0.  1.
</event>
<event>
 6   3  0.2312675E+03  0.9118800E+02  0.7818608E-02  0.1180000E+00
       11   -1    0    0    0    0  0.00000000000E+00  0.00000000000E+00  0.54999999763E+01  0.55000000000E+01  0.51109989000E-03 0.  1.
     -623   -1    0    0    0    0  0.00000000000E+00  0.00000000000E+00  0.93234578044E-11  0.17124000000E+03  0.17124000000E+03 0. -1.
       11    1    1    2    0    0  0.13481466700E-01  0.53627126068E-02  0.83897404196E+00  0.83909964423E+00  0.51109989000E-03 0.  1.
     -623    1    1    2    0    0  0.28220035738E-02  0.58814850447E-02  0.13930349514E-02  0.17124000013E+03  0.17124000000E+03 0. -1.
     -611    1    1    2    0    0  0.33494608748E-01 -0.27359721078E-01  0.10535206049E+01  0.10544080658E+01  0.51109989000E-03 0. -1.
      611    1    1    2    0    0 -0.49798079022E-01  0.16115523427E-01  0.36061122945E+01  0.36064921601E+01  0.51109989000E-03 0.  1.
</event>
<event>
 6   3  0.2312675E+03  0.9118800E+02  0.7818608E-02  0.1180000E+00
       11   -1    0    0    0    0  0.00000000000E+00  0.00000000000E+00  0.54999999763E+01  0.55000000000E+01  0.51109989000E-03 0. -1.
     -623   -1    0    0    0    0  0.00000000000E+00  0.00000000000E+00  0.93234578044E-11  0.17124000000E+03  0.17124000000E+03 0. -1.
       11    1    1    2    0    0 -0.66186530475E-03  0.19975717930E-02  0.24980952297E-01  0.25074639768E-01  0.51109989000E-03 0. -1.
     -623    1    1    2    0    0  0.71837980059E-03  0.46699134906E-03  0.64797431603E-03  0.17124000000E+03  0.17124000000E+03 0. -1.
     -611    1    1    2    0    0  0.33049580857E-01  0.17461680343E-01  0.32915368742E+01  0.32917491460E+01  0.51109989000E-03 0. -1.
      611    1    1    2    0    0 -0.33106095353E-01 -0.19926243485E-01  0.21828341756E+01  0.21831762110E+01  0.51109989000E-03 0.  1.
</event>
<event>
 6   3  0.2312675E+03  0.9118800E+02  0.7818608E-02  0.1180000E+00
       11   -1    0    0    0    0  0.00000000000E+00  0.00000000000E+00  0.54999999763E+01  0.55000000000E+01  0.51109989000E-03 0. -1.
     -623   -1    0    0    0    0  0.00000000000E+00  0.00000000000E+00  0.93234578044E-11  0.17124000000E+03  0.17124000000E+03 0.  1.
       11    1    1    2    0    0 -0.37112011266E-01 -0.52639693491E-02  0.34994908198E+00  0.35195117836E+00  0.51109989000E-03 0. -1.
     -623    1    1    2    0    0 -0.23248250818E-01  0.47506522050E-01  0.25376959530E-02  0.17124000819E+03  0.17124000000E+03 0.  1.
     -611    1    1    2    0    0  0.19344438214E-01 -0.13027608986E-01  0.16512593692E+01  0.16514241404E+01  0.51109989000E-03 0. -1.
      611    1    1    2    0    0  0.41015823953E-01 -0.29214943772E-01  0.34962538361E+01  0.34966165015E+01  0.51109989000E-03 0. -1.
</event>
<event>
 6   3  0.2312675E+03  0.9118800E+02  0.7818608E-02  0.1180000E+00
       11   -1    0    0    0    0  0.00000000000E+00  0.00000000000E+00  0.54999999763E+01  0.55000000000E+01  0.51109989000E-03 0. -1.
     -623   -1    0    0    0    0  0.00000000000E+00  0.00000000000E+00  0.93234578044E-11  0.17124000000E+03  0.17124000000E+03 0.  1.
       11    1    1    2    0    0  0.24267842953E-02 -0.29503322907E-01  0.72998129795E+00  0.73058147522E+00  0.51109989000E-03 0. -1.
     -623    1    1    2    0    0  0.57778863813E-01 -0.76688113064E-02  0.13362219309E-02  0.17124000992E+03  0.17124000000E+03 0.  1.
     -611    1    1    2    0    0 -0.66828497713E-01  0.36703919218E-01  0.42562727206E+01  0.42569555975E+01  0.51109989000E-03 0. -1.
      611    1    1    2    0    0  0.66228496040E-02  0.46821499514E-03  0.51240973578E+00  0.51245300263E+00  0.51109989000E-03 0.  1.
</event>
<event>
 6   3  0.2312675E+03  0.9118800E+02  0.7818608E-02  0.1180000E+00
       11   -1    0    0    0    0  0.00000000000E+00  0.00000000000E+00  0.54999999763E+01  0.55000000000E+01  0.51109989000E-03 0. -1.
     -623   -1    0    0    0    0  0.00000000000E+00  0.00000000000E+00  0.93234578044E-11  0.17124000000E+03  0.17124000000E+03 0.  1.
       11    1    1    2    0    0  0.26355067240E-01 -0.38685199915E-01  0.86048968252E+00  0.86176208387E+00  0.51109989000E-03 0. -1.
     -623    1    1    2    0    0  0.15968272700E-02 -0.47226298341E-03  0.22821753329E-02  0.17124000002E+03  0.17124000000E+03 0.  1.
     -611    1    1    2    0    0 -0.45456600826E-01  0.55978164534E-01  0.32803100949E+01  0.32811026253E+01  0.51109989000E-03 0.  1.
      611    1    1    2    0    0  0.17504706316E-01 -0.16820701636E-01  0.13569180235E+01  0.13571352676E+01  0.51109989000E-03 0. -1.
</event>
<event>
 6   3  0.2312675E+03  0.9118800E+02  0.7818608E-02  0.1180000E+00
       11   -1    0    0    0    0  0.00000000000E+00  0.00000000000E+00  0.54999999763E+01  0.55000000000E+01  0.51109989000E-03 0. -1.
     -623   -1    0    0    0    0  0.00000000000E+00  0.00000000000E+00  0.93234578044E-11  0.17124000000E+03  0.17124000000E+03 0.  1.
       11    1    1    2    0    0  0.70879085848E-01  0.23677255661E-01  0.58833865285E+00  0.59306583860E+00  0.51109989000E-03 0. -1.
     -623    1    1    2    0    0  0.65987101274E-02  0.11549446065E-02  0.54315795338E-02  0.17124000022E+03  0.17124000000E+03 0.  1.
     -611    1    1    2    0    0 -0.35389342091E-01 -0.19713723935E-01  0.25735983210E+01  0.25739171734E+01  0.51109989000E-03 0. -1.
      611    1    1    2    0    0 -0.42088453885E-01 -0.51184763324E-02  0.23326314229E+01  0.23330167709E+01  0.51109989000E-03 0.  1.
</event>
<event>
 6   3  0.2312675E+03  0.9118800E+02  0.7818608E-02  0.1180000E+00
       11   -1    0    0    0    0  0.00000000000E+00  0.00000000000E+00  0.54999999763E+01  0.55000000000E+01  0.51109989000E-03 0.  1.
     -623   -1    0    0    0    0  0.00000000000E+00  0.00000000000E+00  0.93234578044E-11  0.17124000000E+03  0.17124000000E+03 0. -1.
       11    1    1    2    0    0 -0.10636452228E-01 -0.69086259780E-02  0.10859349662E+01  0.10860091506E+01  0.51109989000E-03 0.  1.
     -623    1    1    2    0    0  0.67871572905E-01  0.36828339869E-01  0.56421189438E-03  0.17124001741E+03  0.17124000000E+03 0. -1.
     -611    1    1    2    0    0 -0.28536700497E-01 -0.14745139668E-01  0.21896163178E+01  0.21898519682E+01  0.51109989000E-03 0. -1.
      611    1    1    2    0    0 -0.28698420057E-01 -0.15174574157E-01  0.22238844706E+01  0.22241214595E+01  0.51109989000E-03 0. -1.
</event>
<event>
 6   3  0.2312675E+03  0.9118800E+02  0.7818608E-02  0.1180000E+00
       11   -1    0    0    0    0  0.00000000000E+00  0.00000000000E+00  0.54999999763E+01  0.55000000000E+01  0.51109989000E-03 0.  1.
     -623   -1    0    0    0    0  0.00000000000E+00  0.00000000000E+00  0.93234578044E-11  0.17124000000E+03  0.17124000000E+03 0. -1.
       11    1    1    2    0    0 -0.49675768265E-03 -0.10278559469E-01  0.10901423346E+01  0.10901910229E+01  0.51109989000E-03 0.  1.
     -623    1    1    2    0    0  0.68752951531E-03 -0.33954495718E-02  0.94989492136E-03  0.17124000004E+03  0.17124000000E+03 0. -1.
     -611    1    1    2    0    0  0.40872886841E-01  0.12682796426E-02  0.14055615138E+01  0.14061563326E+01  0.51109989000E-03 0.  1.
      611    1    1    2    0    0 -0.41063658673E-01  0.12405729398E-01  0.30033462329E+01  0.30036526068E+01  0.51109989000E-03 0. -1.
</event>
<event>
 6   3  0.2312675E+03  0.9118800E+02  0.7818608E-02  0.1180000E+00
       11   -1    0    0    0    0  0.00000000000E+00  0.00000000000E+00  0.54999999763E+01  0.55000000000E+01  0.51109989000E-03 0.  1.
     -623   -1    0    0    0    0  0.00000000000E+00  0.00000000000E+00  0.93234578044E-11  0.17124000000E+03  0.17124000000E+03 0.  1.
       11    1    1    2    0    0 -0.85279667749E-04 -0.64965233214E-03  0.52714978443E-02  0.53365938008E-02  0.51109989000E-03 0.  1.
     -623    1    1    2    0    0  0.43583489389E-02 -0.14691341791E-02  0.12745511304E-02  0.17124000007E+03  0.17124000000E+03 0.  1.
     -611    1    1    2    0    0  0.54502644815E-01 -0.73330823975E-02  0.23268034836E+01  0.23274533346E+01  0.51109989000E-03 0.  1.
      611    1    1    2    0    0 -0.58775714086E-01  0.94518689087E-02  0.31666504437E+01  0.31672100051E+01  0.51109989000E-03 0. -1.
</event>
<event>
 6   3  0.2312675E+03  0.9118800E+02  0.7818608E-02  0.1180000E+00
       11   -1    0    0    0    0  0.00000000000E+00  0.00000000000E+00  0.54999999763E+01  0.55000000000E+01  0.51109989000E-03 0. -1.
     -623   -1    0    0    0    0  0.00000000000E+00  0.00000000000E+00  0.93234578044E-11  0.17124000000E+03  0.17124000000E+03 0.  1.
       11    1    1    2    0    0  0.78255369722E-01 -0.86354399826E-01  0.71821425593E+00  0.72760769918E+00  0.51109989000E-03 0. -1.
     -623    1    1    2    0    0  0.10018953683E-01 -0.18521677004E-02  0.11027382421E-01  0.17124000066E+03  0.17124000000E+03 0.  1.
     -611    1    1    2    0    0 -0.61141119680E-01  0.63236096617E-01  0.33377489188E+01  0.33389077775E+01  0.51109989000E-03 0.  1.
      611    1    1    2    0    0 -0.27133203717E-01  0.24970470901E-01  0.14330094187E+01  0.14334838647E+01  0.51109989000E-03 0. -1.
</event>
<event>
 6   3  0.3393837E+03  0.9118800E+02  0.7818608E-02  0.1180000E+00
       11   -1    0    0    0    0  0.00000000000E+00  0.00000000000E+00  0.54999999763E+01  0.55000000000E+01  0.51109989000E-03 0. -1.
     -623   -1    0    0    0    0  0.00000000000E+00  0.00000000000E+00  0.93234578044E-11  0.17124000000E+03  0.17124000000E+03 0. -1.
       11    1    1    2    0    0  0.28022829202E-02 -0.29009411332E-02  0.21403676904E-01  0.21786391559E-01  0.51109989000E-03 0. -1.
     -623    1    1    2    0    0 -0.13131806560E-02  0.37275867009E-02  0.75187545795E-03  0.17124000005E+03  0.17124000000E+03 0. -1.
     -611    1    1    2    0    0 -0.32385069116E-01  0.16716467851E-02  0.26053728332E+01  0.26055746868E+01  0.51109989000E-03 0.  1.
      611    1    1    2    0    0  0.30895966851E-01 -0.24982923527E-02  0.28724715905E+01  0.28726388743E+01  0.51109989000E-03 0. -1.
</event>
<event>
 6   3  0.2312675E+03  0.9118800E+02  0.7818608E-02  0.1180000E+00
       11   -1    0    0    0    0  0.00000000000E+00  0.00000000000E+00  0.54999999763E+01  0.55000000000E+01  0.51109989000E-03 0. -1.
     -623   -1    0    0    0    0  0.00000000000E+00  0.00000000000E+00  0.93234578044E-11  0.17124000000E+03  0.17124000000E+03 0. -1.
       11    1    1    2    0    0 -0.54132269678E-01  0.10483465392E-02  0.10495030149E+01  0.10508987778E+01  0.51109989000E-03 0. -1.
     -623    1    1    2    0    0 -0.12974287413E-02 -0.50231124722E-02  0.17431751021E-02  0.17124000009E+03  0.17124000000E+03 0. -1.
     -611    1    1    2    0    0  0.28553672122E-01  0.21772147275E-02  0.23378758430E+01  0.23380512764E+01  0.51109989000E-03 0.  1.
      611    1    1    2    0    0  0.26876026344E-01  0.17975512088E-02  0.21108779470E+01  0.21110498621E+01  0.51109989000E-03 0. -1.
</event>
<event>
 6   3  0.2312675E+03  0.9118800E+02  0.7818608E-02  0.1180000E+00
       11   -1    0    0    0    0  0.00000000000E+00  0.00000000000E+00  0.54999999763E+01  0.55000000000E+01  0.51109989000E-03 0. -1.
     -623   -1    0    0    0    0  0.00000000000E+00  0.00000000000E+00  0.93234578044E-11  0.17124000000E+03  0.17124000000E+03 0.  1.
       11    1    1    2    0    0 -0.55272748582E-01  0.21513778070E-01  0.62581014263E+00  0.62861475900E+00  0.51109989000E-03 0. -1.
     -623    1    1    2    0    0 -0.76563238047E-02 -0.55611793364E-02  0.32421525695E-02  0.17124000029E+03  0.17124000000E+03 0.  1.
     -611    1    1    2    0    0  0.36684347043E-01 -0.12634868661E-01  0.28595521500E+01  0.28598154033E+01  0.51109989000E-03 0. -1.
      611    1    1    2    0    0  0.26244725343E-01 -0.33177300715E-02  0.20113955310E+01  0.20115695454E+01  0.51109989000E-03 0.  1.
</event>
<event>
 6   3  0.2312675E+03  0.9118800E+02  0.7818608E-02  0.1180000E+00
       11   -1    0    0    0    0  0.00000000000E+00  0.00000000000E+00  0.54999999763E+01  0.55000000000E+01  0.51109989000E-03 0.  1.
     -623   -1    0    0    0    0  0.00000000000E+00  0.00000000000E+00  0.93234578044E-11  0.17124000000E+03  0.17124000000E+03 0. -1.
       11    1    1    2    0    0 -0.23270103178E-01 -0.15297504488E-01  0.10862760019E+01  0.10866330222E+01  0.51109989000E-03 0.  1.
     -623    1    1    2    0    0 -0.57432391079E-01 -0.28519058406E-01  0.13248885419E-02  0.17124001201E+03  0.17124000000E+03 0. -1.
     -611    1    1    2    0    0  0.26452022827E-01  0.15161047687E-01  0.14745889833E+01  0.14749042334E+01  0.51109989000E-03 0.  1.
      611    1    1    2    0    0  0.54250471490E-01  0.28655515239E-01  0.29378101058E+01  0.29384507366E+01  0.51109989000E-03 0.  1.
</event>
<event>
 6   3  0.2312675E+03  0.9118800E+02  0.7818608E-02  0.1180000E+00
       11   -1    0    0    0    0  0.00000000000E+00  0.00000000000E+00  0.54999999763E+01  0.55000000000E+01  0.51109989000E-03 0. -1.
     -623   -1    0    0    0    0  0.00000000000E+00  0.00000000000E+00  0.93234578044E-11  0.17124000000E+03  0.17124000000E+03 0.  1.
       11    1    1    2    0    0  0.17451422261E-02  0.20032673049E-02  0.98801036086E-01  0.98838072401E-01  0.51109989000E-03 0. -1.
     -623    1    1    2    0    0 -0.77157218511E-01  0.14049633292E-01  0.60557678481E-03  0.17124001796E+03  0.17124000000E+03 0.  1.
     -611    1    1    2    0    0  0.54914832214E-01 -0.11144529673E-01  0.39167219877E+01  0.39171228255E+01  0.51109989000E-03 0. -1.
      611    1    1    2    0    0  0.20497244030E-01 -0.49083709153E-02  0.14838713727E+01  0.14840211391E+01  0.51109989000E-03 0.  1.
</event>
<event>
 6   3  0.2312675E+03  0.9118800E+02  0.7818608E-02  0.1180000E+00
       11   -1    0    0    0    0  0.00000000000E+00  0.00000000000E+00  0.54999999763E+01  0.55000000000E+01  0.51109989000E-03 0.  1.
     -623   -1    0    0    0    0  0.00000000000E+00  0.00000000000E+00  0.93234578044E-11  0.17124000000E+03  0.17124000000E+03 0.  1.
       11    1    1    2    0    0 -0.63637464313E-02  0.54224274071E-02  0.53157368338E-01  0.53813260627E-01  0.51109989000E-03 0.  1.
     -623    1    1    2    0    0  0.51662310326E-02 -0.40574541765E-02  0.19548366025E-02  0.17124000014E+03  0.17124000000E+03 0.  1.
     -611    1    1    2    0    0  0.48260449159E-01  0.35015270353E-03  0.11166138070E+01  0.11176564091E+01  0.51109989000E-03 0. -1.
      611    1    1    2    0    0 -0.47062933760E-01 -0.17151259343E-02  0.43282739643E+01  0.43285301931E+01  0.51109989000E-03 0.  1.
</event>
<event>
 6   3  0.2312675E+03  0.9118800E+02  0.7818608E-02  0.1180000E+00
       11   -1    0    0    0    0  0.00000000000E+00  0.00000000000E+00  0.54999999763E+01  0.55000000000E+01  0.51109989000E-03 0. -1.
     -623   -1    0    0    0    0  0.00000000000E+00  0.00000000000E+00  0.93234578044E-11  0.17124000000E+03  0.17124000000E+03 0.  1.
       11    1    1    2    0    0  0.44553386787E-01  0.16672442541E-01  0.10938818063E+01  0.10949158150E+01  0.51109989000E-03 0. -1.
     -623    1    1    2    0    0  0.32576540925E-01 -0.60327124039E-02  0.26005459526E-02  0.17124000322E+03  0.17124000000E+03 0.  1.
     -611    1    1    2    0    0 -0.43548516428E-01 -0.47600663544E-01  0.29505931095E+01  0.29512984016E+01  0.51109989000E-03 0. -1.
      611    1    1    2    0    0 -0.33581411285E-01  0.36960933406E-01  0.14529245146E+01  0.14537825587E+01  0.51109989000E-03 0.  1.
</event>
<event>
 6   3  0.2312675E+03  0.9118800E+02  0.7818608E-02  0.1180000E+00
       11   -1    0    0    0    0  0.00000000000E+00  0.00000000000E+00  0.54999999763E+01  0.55000000000E+01  0.51109989000E-03 0.  1.
     -623   -1    0    0    0    0  0.00000000000E+00  0.00000000000E+00  0.93234578044E-11  0.17124000000E+03  0.17124000000E+03 0. -1.
       11    1    1    2    0    0 -0.44588297708E-01  0.12295701766E-01  0.90577581807E+00  0.90695611493E+00  0.51109989000E-03 0.  1.
     -623    1    1    2    0    0 -0.79415289831E-02  0.84185956155E-02  0.15280878414E-02  0.17124000040E+03  0.17124000000E+03 0. -1.
     -611    1    1    2    0    0  0.20947714789E-01 -0.85935803051E-02  0.17958854418E+01  0.17960282396E+01  0.51109989000E-03 0. -1.
      611    1    1    2    0    0  0.31582111904E-01 -0.12120717078E-01  0.27968106288E+01  0.27970152477E+01  0.51109989000E-03 0.  1.
</event>
<event>
 6   3  0.2312675E+03  0.9118800E+02  0.7818608E-02  0.1180000E+00
       11   -1    0    0    0    0  0.00000000000E+00  0.00000000000E+00  0.54999999763E+01  0.55000000000E+01  0.51109989000E-03 0. -1.
     -623   -1    0    0    0    0  0.00000000000E+00  0.00000000000E+00  0.93234578044E-11  0.17124000000E+03  0.17124000000E+03 0.  1.
       11    1    1    2    0    0 -0.14098256496E-01  0.10620735935E+00  0.51102420580E+00  0.52213481416E+00  0.51109989000E-03 0. -1.
     -623    1    1    2    0    0  0.67901270476E-01 -0.49331229212E-01  0.11747525419E-01  0.17124002097E+03  0.17124000000E+03 0.  1.
     -611    1    1    2    0    0 -0.31513596842E-01 -0.34100211833E-01  0.29598102958E+01  0.29601745184E+01  0.51109989000E-03 0. -1.
      611    1    1    2    0    0 -0.22289417164E-01 -0.22775918331E-01  0.20174179516E+01  0.20176696988E+01  0.51109989000E-03 0. -1.
</event>
<event>
 6   3  0.2312675E+03  0.9118800E+02  0.7818608E-02  0.1180000E+00
       11   -1    0    0    0    0  0.00000000000E+00  0.00000000000E+00  0.54999999763E+01  0.55000000000E+01  0.51109989000E-03 0. -1.
     -623   -1    0    0    0    0  0.00000000000E+00  0.00000000000E+00  0.93234578044E-11  0.17124000000E+03  0.17124000000E+03 0.  1.
       11    1    1    2    0    0 -0.40543592692E-01  0.34358707482E-01  0.87230644647E+00  0.87392396778E+00  0.51109989000E-03 0. -1.
     -623    1    1    2    0    0 -0.77473721352E-02  0.21040571712E-02  0.20149597972E-02  0.17124000020E+03  0.17124000000E+03 0.  1.
     -611    1    1    2    0    0  0.36584136422E-01 -0.29176284181E-01  0.35104432441E+01  0.35107551447E+01  0.51109989000E-03 0. -1.
      611    1    1    2    0    0  0.11706828408E-01 -0.72864804742E-02  0.11152353262E+01  0.11153206878E+01  0.51109989000E-03 0.  1.
</event>
<event>
 6   3  0.2312675E+03  0.9118800E+02  0.7818608E-02  0.1180000E+00
       11   -1    0    0    0    0  0.00000000000E+00  0.00000000000E+00  0.54999999763E+01  0.55000000000E+01  0.51109989000E-03 0.  1.
     -623   -1    0    0    0    0  0.00000000000E+00  0.00000000000E+00  0.93234578044E-11  0.17124000000E+03  0.17124000000E+03 0.  1.
       11    1    1    2    0    0 -0.94171124085E-01  0.13589023186E-01  0.10069673588E+01  0.10114526114E+01  0.51109989000E-03 0.  1.
     -623    1    1    2    0    0  0.10378927008E-01 -0.34867815713E-02  0.52803860889E-02  0.17124000043E+03  0.17124000000E+03 0.  1.
     -611    1    1    2    0    0  0.44445104382E-01 -0.39890427541E-02  0.23335726411E+01  0.23339993171E+01  0.51109989000E-03 0.  1.
      611    1    1    2    0    0  0.39347092701E-01 -0.61131988613E-02  0.21541795906E+01  0.21545476404E+01  0.51109989000E-03 0. -1.
</event>
<event>
 6   3  0.2312675E+03  0.9118800E+02  0.7818608E-02  0.1180000E+00
       11   -1    0    0    0    0  0.00000000000E+00  0.00000000000E+00  0.54999999763E+01  0.55000000000E+01  0.51109989000E-03 0. -1.
     -623   -1    0    0    0    0  0.00000000000E+00  0.00000000000E+00  0.93234578044E-11  0.17124000000E+03  0.17124000000E+03 0. -1.
       11    1    1    2    0    0 -0.59032154227E-02  0.91014229544E-03  0.61793184334E-01  0.62083292153E-01  0.51109989000E-03 0. -1.
     -623    1    1    2    0    0 -0.19178557697E-02 -0.56193001414E-02  0.15091643453E-02  0.17124000011E+03  0.17124000000E+03 0. -1.
     -611    1    1    2    0    0  0.34679170665E-01 -0.45572037518E-01  0.30558022907E+01  0.30563388812E+01  0.51109989000E-03 0.  1.
      611    1    1    2    0    0 -0.26858099473E-01  0.50281195364E-01  0.23808953368E+01  0.23815777170E+01  0.51109989000E-03 0. -1.
</event>
<event>
 6   3  0.2312675E+03  0.9118800E+02  0.7818608E-02  0.1180000E+00
       11   -1    0    0    0    0  0.00000000000E+00  0.00000000000E+00  0.54999999763E+01  0.55000000000E+01  0.51109989000E-03 0. -1.
     -623   -1    0    0    0    0  0.00000000000E+00  0.00000000000E+00  0.93234578044E-11  0.17124000000E+03  0.17124000000E+03 0.  1.
       11    1    1    2    0    0  0.31860283186E-02 -0.49243027059E-02  0.28016016674E-01  0.28627922505E-01  0.51109989000E-03 0. -1.
     -623    1    1    2    0    0  0.11562278460E-01 -0.81898914564E-02  0.10341444872E-02  0.17124000059E+03  0.17124000000E+03 0.  1.
     -611    1    1    2    0    0 -0.36448085913E-01  0.23798538110E-01  0.33101764922E+01  0.33104627326E+01  0.51109989000E-03 0. -1.
      611    1    1    2    0    0  0.21699779134E-01 -0.10684343948E-01  0.21607733228E+01  0.21609087554E+01  0.51109989000E-03 0.  1.
</event>
<event>
 6   3  0.2312675E+03  0.9118800E+02  0.7818608E-02  0.1180000E+00
       11   -1    0    0    0    0  0.00000000000E+00  0.00000000000E+00  0.54999999763E+01  0.55000000000E+01  0.51109989000E-03 0. -1.
     -623   -1    0    0    0    0  0.00000000000E+00  0.00000000000E+00  0.93234578044E-11  0.17124000000E+03  0.17124000000E+03 0. -1.
       11    1    1    2    0    0  0.68702026117E-01  0.23330753032E-01  0.91979394560E+00  0.92265131876E+00  0.51109989000E-03 0. -1.
     -623    1    1    2    0    0 -0.31471069974E-02 -0.25688721456E-02  0.34179346212E-02  0.17124000008E+03  0.17124000000E+03 0. -1.
     -611    1    1    2    0    0 -0.43813177096E-01 -0.59966565691E-02  0.24623224610E+01  0.24627195775E+01  0.51109989000E-03 0. -1.
      611    1    1    2    0    0 -0.21741742024E-01 -0.14765224317E-01  0.21144656351E+01  0.21146290214E+01  0.51109989000E-03 0.  1.
</event>
<event>
 6   3  0.2312675E+03  0.9118800E+02  0.7818608E-02  0.1180000E+00
       11   -1    0    0    0    0  0.00000000000E+00  0.00000000000E+00  0.54999999763E+01  0.55000000000E+01  0.51109989000E-03 0. -1.
     -623   -1    0    0    0    0  0.00000000000E+00  0.00000000000E+00  0.93234578044E-11  0.17124000000E+03  0.17124000000E+03 0. -1.
       11    1    1    2    0    0  0.54525724162E-01 -0.26886918483E-01  0.88520897442E+00  0.88729428636E+00  0.51109989000E-03 0. -1.
     -623    1    1    2    0    0  0.13038000646E-01 -0.59336706182E-02  0.26981314089E-02  0.17124000062E+03  0.17124000000E+03 0. -1.
     -611    1    1    2    0    0 -0.38448628887E-01  0.19844646379E-01  0.26559251582E+01  0.26562776237E+01  0.51109989000E-03 0.  1.
      611    1    1    2    0    0 -0.29115095903E-01  0.12975942713E-01  0.19561677110E+01  0.19564274683E+01  0.51109989000E-03 0. -1.
</event>
<event>
 6   3  0.2312675E+03  0.9118800E+02  0.7818608E-02  0.1180000E+00
       11   -1    0    0    0    0  0.00000000000E+00  0.00000000000E+00  0.54999999763E+01  0.55000000000E+01  0.51109989000E-03 0. -1.
     -623   -1    0    0    0    0  0.00000000000E+00  0.00000000000E+00  0.93234578044E-11  0.17124000000E+03  0.17124000000E+03 0. -1.
       11    1    1    2    0    0 -0.11555142470E-01  0.50793850078E-03  0.84047325602E+00  0.84055299335E+00  0.51109989000E-03 0. -1.
     -623    1    1    2    0    0  0.85856260702E-01 -0.49701920071E-03  0.69380882899E-03  0.17124002153E+03  0.17124000000E+03 0. -1.
     -611    1    1    2    0    0 -0.36202632304E-01  0.52293561607E-04  0.22681228866E+01  0.22684118504E+01  0.51109989000E-03 0. -1.
      611    1    1    2    0    0 -0.38098486850E-01 -0.63212856385E-04  0.23907100839E+01  0.23910136898E+01  0.51109989000E-03 0. -1.
</event>
<event>
 6   3  0.2312675E+03  0.9118800E+02  0.7818608E-02  0.1180000E+00
       11   -1    0    0    0    0  0.00000000000E+00  0.00000000000E+00  0.54999999763E+01  0.55000000000E+01  0.51109989000E-03 0. -1.
     -623   -1    0    0    0    0  0.00000000000E+00  0.00000000000E+00  0.93234578044E-11  0.17124000000E+03  0.17124000000E+03 0. -1.
       11    1    1    2    0    0 -0.26526434260E-01  0.21826897057E-01  0.58150375973E+00  0.58251776707E+00  0.51109989000E-03 0. -1.
     -623    1    1    2    0    0  0.89748485881E-01 -0.37411269514E-01  0.14729060025E-02  0.17124002761E+03  0.17124000000E+03 0. -1.
     -611    1    1    2    0    0 -0.21532812326E-01  0.51544587076E-02  0.16987585638E+01  0.16989029254E+01  0.51109989000E-03 0. -1.
      611    1    1    2    0    0 -0.41689239221E-01  0.10429913731E-01  0.32182647408E+01  0.32185516897E+01  0.51109989000E-03 0. -1.
</event>
<event>
 6   3  0.2312675E+03  0.9118800E+02  0.7818608E-02  0.1180000E+00
       11   -1    0    0    0    0  0.00000000000E+00  0.00000000000E+00  0.54999999763E+01  0.55000000000E+01  0.51109989000E-03 0. -1.
     -623   -1    0    0    0    0  0.00000000000E+00  0.00000000000E+00  0.93234578044E-11  0.17124000000E+03  0.17124000000E+03 0.  1.
       11    1    1    2    0    0  0.10546720015E-01  0.20487002488E-01  0.34545406678E+00  0.34622207331E+00  0.51109989000E-03 0. -1.
     -623    1    1    2    0    0  0.78521530242E-02 -0.54318637606E-02  0.18020615246E-02  0.17124000028E+03  0.17124000000E+03 0.  1.
     -611    1    1    2    0    0 -0.52309169969E-01 -0.17137000872E-02  0.42163989821E+01  0.42167238259E+01  0.51109989000E-03 0. -1.
      611    1    1    2    0    0  0.33910296929E-01 -0.13341438640E-01  0.93634486586E+00  0.93705382518E+00  0.51109989000E-03 0.  1.
</event>
<event>
 6   3  0.2312675E+03  0.9118800E+02  0.7818608E-02  0.1180000E+00
       11   -1    0    0    0    0  0.00000000000E+00  0.00000000000E+00  0.54999999763E+01  0.55000000000E+01  0.51109989000E-03 0.  1.
     -623   -1    0    0    0    0  0.00000000000E+00  0.00000000000E+00  0.93234578044E-11  0.17124000000E+03  0.17124000000E+03 0. -1.
       11    1    1    2    0    0 -0.10619038483E+00  0.43846152126E-01  0.74664322367E+00  0.75543050479E+00  0.51109989000E-03 0.  1.
     -623    1    1    2    0    0  0.25131453061E-02 -0.27905588690E-01  0.99533976386E-02  0.17124000258E+03  0.17124000000E+03 0. -1.
     -611    1    1    2    0    0  0.90751848034E-01 -0.14134328029E-01  0.40601964951E+01  0.40612352206E+01  0.51109989000E-03 0.  1.
      611    1    1    2    0    0  0.12925391486E-01 -0.18062354075E-02  0.68320685976E+00  0.68333169301E+00  0.51109989000E-03 0. -1.
</event>
<event>
 6   3  0.2312675E+03  0.9118800E+02  0.7818608E-02  0.1180000E+00
       11   -1    0    0    0    0  0.00000000000E+00  0.00000000000E+00  0.54999999763E+01  0.55000000000E+01  0.51109989000E-03 0.  1.
     -623   -1    0    0    0    0  0.00000000000E+00  0.00000000000E+00  0.93234578044E-11  0.17124000000E+03  0.17124000000E+03 0.  1.
       11    1    1    2    0    0  0.19366207262E-01 -0.18988781497E-01  0.12238170657E+00  0.12535217242E+00  0.51109989000E-03 0.  1.
     -623    1    1    2    0    0  0.37590303368E-01  0.48877489929E-01  0.33668153708E-02  0.17124001113E+03  0.17124000000E+03 0.  1.
     -611    1    1    2    0    0 -0.35829024545E-01 -0.18891231977E-01  0.33216305119E+01  0.33218774987E+01  0.51109989000E-03 0.  1.
      611    1    1    2    0    0 -0.21127486034E-01 -0.10997476428E-01  0.20526209377E+01  0.20527591895E+01  0.51109989000E-03 0. -1.
</event>
<event>
 6   3  0.2312675E+03  0.9118800E+02  0.7818608E-02  0.1180000E+00
       11   -1    0    0    0    0  0.00000000000E+00  0.00000000000E+00  0.54999999763E+01  0.55000000000E+01  0.51109989000E-03 0. -1.
     -623   -1    0    0    0    0  0.00000000000E+00  0.00000000000E+00  0.93234578044E-11  0.17124000000E+03  0.17124000000E+03 0.  1.
       11    1    1    2    0    0  0.12348742787E-01  0.48659163144E-01  0.24814813553E+00  0.25317575713E+00  0.51109989000E-03 0. -1.
     -623    1    1    2    0    0  0.18733602614E-01 -0.43600258699E-03  0.92710032966E-02  0.17124000128E+03  0.17124000000E+03 0.  1.
     -611    1    1    2    0    0 -0.11178505494E+00 -0.36905733325E-01  0.38962167410E+01  0.38979947518E+01  0.51109989000E-03 0.  1.
      611    1    1    2    0    0  0.80702709537E-01 -0.11317427231E-01  0.13463640965E+01  0.13488282148E+01  0.51109989000E-03 0. -1.
</event>
<event>
 6   3  0.2312675E+03  0.9118800E+02  0.7818608E-02  0.1180000E+00
       11   -1    0    0    0    0  0.00000000000E+00  0.00000000000E+00  0.54999999763E+01  0.55000000000E+01  0.51109989000E-03 0.  1.
     -623   -1    0    0    0    0  0.00000000000E+00  0.00000000000E+00  0.93234578044E-11  0.17124000000E+03  0.17124000000E+03 0. -1.
       11    1    1    2    0    0  0.11206860386E-01 -0.42438624543E-02  0.88299939486E+00  0.88308085510E+00  0.51109989000E-03 0.  1.
     -623    1    1    2    0    0  0.46532589856E-01 -0.12773507039E+00  0.24322053833E-02  0.17124005398E+03  0.17124000000E+03 0. -1.
     -611    1    1    2    0    0 -0.24686484903E-01  0.33677064970E-01  0.14184480741E+01  0.14190626368E+01  0.51109989000E-03 0. -1.
      611    1    1    2    0    0 -0.33052965336E-01  0.98301867871E-01  0.31961203016E+01  0.31978025267E+01  0.51109989000E-03 0.  1.
</event>
<event>
 6   3  0.2312675E+03  0.9118800E+02  0.7818608E-02  0.1180000E+00
       11   -1    0    0    0    0  0.00000000000E+00  0.00000000000E+00  0.54999999763E+01  0.55000000000E+01  0.51109989000E-03 0. -1.
     -623   -1    0    0    0    0  0.00000000000E+00  0.00000000000E+00  0.93234578044E-11  0.17124000000E+03  0.17124000000E+03 0.  1.
       11    1    1    2    0    0 -0.13583749889E-02  0.12399589630E-02  0.65842554663E-03  0.20192642568E-02  0.51109989000E-03 0. -1.
     -623    1    1    2    0    0 -0.69301646731E-03  0.85040231334E-03  0.24607256140E-02  0.17124000002E+03  0.17124000000E+03 0.  1.
     -611    1    1    2    0    0 -0.39010405050E-01  0.35237958946E-01  0.31854759914E+01  0.31859097725E+01  0.51109989000E-03 0. -1.
      611    1    1    2    0    0  0.41061796506E-01 -0.37328320222E-01  0.23114048337E+01  0.23120709421E+01  0.51109989000E-03 0.  1.
</event>
<event>
 6   3  0.2312675E+03  0.9118800E+02  0.7818608E-02  0.1180000E+00
       11   -1    0    0    0    0  0.00000000000E+00  0.00000000000E+00  0.54999999763E+01  0.55000000000E+01  0.51109989000E-03 0. -1.
     -623   -1    0    0    0    0  0.00000000000E+00  0.00000000000E+00  0.93234578044E-11  0.17124000000E+03  0.17124000000E+03 0.  1.
       11    1    1    2    0    0  0.46147630943E-02 -0.89553479149E-02  0.12576228185E+00  0.12616618824E+00  0.51109989000E-03 0. -1.
     -623    1    1    2    0    0 -0.22671863649E-02  0.99479381488E-02  0.10078764217E-02  0.17124000031E+03  0.17124000000E+03 0.  1.
     -611    1    1    2    0    0  0.30675501848E-01 -0.24477088668E-01  0.30160139794E+01  0.30162693347E+01  0.51109989000E-03 0.  1.
      611    1    1    2    0    0 -0.33023078577E-01  0.23484498434E-01  0.23572158388E+01  0.23575641704E+01  0.51109989000E-03 0. -1.
</event>
<event>
 6   3  0.2312675E+03  0.9118800E+02  0.7818608E-02  0.1180000E+00
       11   -1    0    0    0    0  0.00000000000E+00  0.00000000000E+00  0.54999999763E+01  0.55000000000E+01  0.51109989000E-03 0. -1.
     -623   -1    0    0    0    0  0.00000000000E+00  0.00000000000E+00  0.93234578044E-11  0.17124000000E+03  0.17124000000E+03 0.  1.
       11    1    1    2    0    0  0.48733959735E-01  0.12754622242E-01  0.67233007117E+00  0.67421485080E+00  0.51109989000E-03 0. -1.
     -623    1    1    2    0    0  0.80126325218E-02 -0.31712548239E-02  0.22283064461E-02  0.17124000023E+03  0.17124000000E+03 0.  1.
     -611    1    1    2    0    0 -0.33455124324E-01 -0.57004557488E-02  0.28211480405E+01  0.28213522056E+01  0.51109989000E-03 0. -1.
      611    1    1    2    0    0 -0.23291467938E-01 -0.38829116705E-02  0.20042935585E+01  0.20044327126E+01  0.51109989000E-03 0. -1.
</event>
<event>
 6   3  0.2312675E+03  0.9118800E+02  0.7818608E-02  0.1180000E+00
       11   -1    0    0    0    0  0.00000000000E+00  0.00000000000E+00  0.54999999763E+01  0.55000000000E+01  0.51109989000E-03 0. -1.
     -623   -1    0    0    0    0  0.00000000000E+00  0.00000000000E+00  0.93234578044E-11  0.17124000000E+03  0.17124000000E+03 0. -1.
       11    1    1    2    0    0  0.94798276925E-03  0.52790473953E-02  0.28266056001E-01  0.28774957127E-01  0.51109989000E-03 0. -1.
     -623    1    1    2    0    0 -0.55603807427E-02 -0.71191341794E-03  0.11415496484E-02  0.17124000010E+03  0.17124000000E+03 0. -1.
     -611    1    1    2    0    0  0.37148677963E-01 -0.24630529828E-01  0.32075171466E+01  0.32078268647E+01  0.51109989000E-03 0. -1.
      611    1    1    2    0    0 -0.32536279989E-01  0.20063395851E-01  0.22630752241E+01  0.22633980826E+01  0.51109989000E-03 0.  1.
</event>
<event>
 6   3  0.2312675E+03  0.9118800E+02  0.7818608E-02  0.1180000E+00
       11   -1    0    0    0    0  0.00000000000E+00  0.00000000000E+00  0.54999999763E+01  0.55000000000E+01  0.51109989000E-03 0.  1.
     -623   -1    0    0    0    0  0.00000000000E+00  0.00000000000E+00  0.93234578044E-11  0.17124000000E+03  0.17124000000E+03 0.  1.
       11    1    1    2    0    0  0.85700967272E-02 -0.96933371953E-02  0.25197622058E-01  0.28329996900E-01  0.51109989000E-03 0.  1.
     -623    1    1    2    0    0 -0.13105422008E-01  0.19596876094E-01  0.64101765165E-02  0.17124000174E+03  0.17124000000E+03 0.  1.
     -611    1    1    2    0    0  0.62554941976E-01 -0.17110831885E-01  0.71972487322E+00  0.72264102824E+00  0.51109989000E-03 0. -1.
      611    1    1    2    0    0 -0.58019616695E-01  0.72072929864E-02  0.47486673045E+01  0.47490272320E+01  0.51109989000E-03 0.  1.
</event>
<event>
 6   3  0.2312675E+03  0.9118800E+02  0.7818608E-02  0.1180000E+00
       11   -1    0    0    0    0  0.00000000000E+00  0.00000000000E+00  0.54999999763E+01  0.55000000000E+01  0.51109989000E-03 0.  1.
     -623   -1    0    0    0    0  0.00000000000E+00  0.00000000000E+00  0.93234578044E-11  0.17124000000E+03  0.17124000000E+03 0.  1.
       11    1    1    2    0    0  0.19687196128E-01 -0.10761959562E-01  0.70150266742E+00  0.70186156690E+00  0.51109989000E-03 0.  1.
     -623    1    1    2    0    0  0.80509644974E-02 -0.76250390236E-03  0.14279447849E-02  0.17124000020E+03  0.17124000000E+03 0.  1.
     -611    1    1    2    0    0 -0.59098567788E-01 -0.12661736564E-01  0.25222148394E+01  0.25229389445E+01  0.51109989000E-03 0. -1.
      611    1    1    2    0    0  0.31360407163E-01  0.24186200028E-01  0.22748545247E+01  0.22751992917E+01  0.51109989000E-03 0.  1.
</event>
<event>
 6   3  0.2312675E+03  0.9118800E+02  0.7818608E-02  0.1180000E+00
       11   -1    0    0    0    0  0.00000000000E+00  0.00000000000E+00  0.54999999763E+01  0.55000000000E+01  0.51109989000E-03 0. -1.
     -623   -1    0    0    0    0  0.00000000000E+00  0.00000000000E+00  0.93234578044E-11  0.17124000000E+03  0.17124000000E+03 0.  1.
       11    1    1    2    0    0  0.17411732370E-01  0.16087392377E-01  0.93564563264E+00  0.93594603675E+00  0.51109989000E-03 0. -1.
     -623    1    1    2    0    0  0.34807601031E-02 -0.16312514226E-02  0.82779849241E-03  0.17124000005E+03  0.17124000000E+03 0.  1.
     -611    1    1    2    0    0 -0.42303795856E-01 -0.27791908810E-02  0.34481648714E+01  0.34484255214E+01  0.51109989000E-03 0.  1.
      611    1    1    2    0    0  0.21411303383E-01 -0.11676950073E-01  0.11153616740E+01  0.11156283970E+01  0.51109989000E-03 0. -1.
</event>
<event>
 6   3  0.3098505E+03  0.9118800E+02  0.7818608E-02  0.1180000E+00
       11   -1    0    0    0    0  0.00000000000E+00  0.00000000000E+00  0.54999999763E+01  0.55000000000E+01  0.51109989000E-03 0. -1.
     -623   -1    0    0    0    0  0.00000000000E+00  0.00000000000E+00  0.93234578044E-11  0.17124000000E+03  0.17124000000E+03 0. -1.
       11    1    1    2    0    0 -0.12432895325E-02 -0.76089338415E-03  0.58771848255E-03  0.16526837919E-02  0.51109989000E-03 0. -1.
     -623    1    1    2    0    0  0.20660755175E-03  0.14183242386E-02  0.20649755034E-02  0.17124000002E+03  0.17124000000E+03 0. -1.
     -611    1    1    2    0    0  0.44758719709E-01  0.24533310694E-01  0.20736108747E+01  0.20742390285E+01  0.51109989000E-03 0.  1.
      611    1    1    2    0    0 -0.43722037728E-01 -0.25190741549E-01  0.34237364076E+01  0.34241082694E+01  0.51109989000E-03 0. -1.
</event>
<event>
 6   3  0.2935980E+03  0.9118800E+02  0.7818608E-02  0.1180000E+00
       11   -1    0    0    0    0  0.00000000000E+00  0.00000000000E+00  0.54999999763E+01  0.55000000000E+01  0.51109989000E-03 0. -1.
     -623   -1    0    0    0    0  0.00000000000E+00  0.00000000000E+00  0.93234578044E-11  0.17124000000E+03  0.17124000000E+03 0.  1.
       11    1    1    2    0    0  0.17992326598E-02  0.11930560130E-02  0.75119021124E-02  0.78326571008E-02  0.51109989000E-03 0. -1.
     -623    1    1    2    0    0 -0.15268953554E-02 -0.59684972106E-03  0.10123679707E-02  0.17124000001E+03  0.17124000000E+03 0.  1.
     -611    1    1    2    0    0 -0.39817919617E-01  0.10828081477E-01  0.36406673236E+01  0.36409011984E+01  0.51109989000E-03 0. -1.
      611    1    1    2    0    0  0.39545582313E-01 -0.11424287769E-01  0.18508083827E+01  0.18512661338E+01  0.51109989000E-03 0.  1.
</event>
<event>
 6   3  0.2312675E+03  0.9118800E+02  0.7818608E-02  0.1180000E+00
       11   -1    0    0    0    0  0.00000000000E+00  0.00000000000E+00  0.54999999763E+01  0.55000000000E+01  0.51109989000E-03 0. -1.
     -623   -1    0    0    0    0  0.00000000000E+00  0.00000000000E+00  0.93234578044E-11  0.17124000000E+03  0.17124000000E+03 0.  1.
       11    1    1    2    0    0 -0.64235719632E-02 -0.45783605507E-02  0.37443036715E-01  0.38268340487E-01  0.51109989000E-03 0. -1.
     -623    1    1    2    0    0 -0.63523474833E-02  0.11428310676E-01  0.15566212978E-02  0.17124000051E+03  0.17124000000E+03 0.  1.
     -611    1    1    2    0    0  0.46222058644E-01  0.15456732473E-01  0.32470308427E+01  0.32473966410E+01  0.51109989000E-03 0.  1.
      611    1    1    2    0    0 -0.33446139197E-01 -0.22306682598E-01  0.22139694756E+01  0.22143345123E+01  0.51109989000E-03 0. -1.
</event>
<event>
 6   3  0.2312675E+03  0.9118800E+02  0.7818608E-02  0.1180000E+00
       11   -1    0    0    0    0  0.00000000000E+00  0.00000000000E+00  0.54999999763E+01  0.55000000000E+01  0.51109989000E-03 0. -1.
     -623   -1    0    0    0    0  0.00000000000E+00  0.00000000000E+00  0.93234578044E-11  0.17124000000E+03  0.17124000000E+03 0.  1.
       11    1    1    2    0    0  0.14332448817E-01  0.37239501013E-01  0.10114410527E+01  0.10122279703E+01  0.51109989000E-03 0. -1.
     -623    1    1    2    0    0 -0.11345981402E-01  0.25680651635E-02  0.12707619358E-02  0.17124000040E+03  0.17124000000E+03 0.  1.
     -611    1    1    2    0    0  0.21545172941E-01 -0.57908499141E-02  0.20627293228E+01  0.20628500306E+01  0.51109989000E-03 0.  1.
      611    1    1    2    0    0 -0.24531640356E-01 -0.34016716263E-01  0.24245588388E+01  0.24249215992E+01  0.51109989000E-03 0. -1.
</event>
<event>
 6   3  0.2312675E+03  0.9118800E+02  0.7818608E-02  0.1180000E+00
       11   -1    0    0    0    0  0.00000000000E+00  0.00000000000E+00  0.54999999763E+01  0.55000000000E+01  0.51109989000E-03 0. -1.
     -623   -1    0    0    0    0  0.00000000000E+00  0.00000000000E+00  0.93234578044E-11  0.17124000000E+03  0.17124000000E+03 0.  1.
       11    1    1    2    0    0 -0.34845488571E-01  0.92233081868E-02  0.38633473935E+00  0.38801297600E+00  0.51109989000E-03 0. -1.
     -623    1    1    2    0    0  0.19377138338E-01  0.34079031609E-02  0.37774987469E-02  0.17124000117E+03  0.17124000000E+03 0.  1.
     -611    1    1    2    0    0  0.47892528818E-01  0.51085103128E-01  0.18728136628E+01  0.18741223703E+01  0.51109989000E-03 0.  1.
      611    1    1    2    0    0 -0.32424178585E-01 -0.63716314476E-01  0.32370740754E+01  0.32378634819E+01  0.51109989000E-03 0. -1.
</event>
<event>
 6   3  0.2312675E+03  0.9118800E+02  0.7818608E-02  0.1180000E+00
       11   -1    0    0    0    0  0.00000000000E+00  0.00000000000E+00  0.54999999763E+01  0.55000000000E+01  0.51109989000E-03 0. -1.
     -623   -1    0    0    0    0  0.00000000000E+00  0.00000000000E+00  0.93234578044E-11  0.17124000000E+03  0.17124000000E+03 0. -1.
       11    1    1    2    0    0  0.17206581731E-02  0.17149000321E-02 -0.21504943586E-02  0.32844171100E-02  0.51109989000E-03 0. -1.
     -623    1    1    2    0    0 -0.41295734356E-02 -0.29259393291E-02  0.74656656141E-02  0.17124000024E+03  0.17124000000E+03 0. -1.
     -611    1    1    2    0    0  0.73418728462E-01  0.72687507169E-02  0.34500574184E+01  0.34508462144E+01  0.51109989000E-03 0. -1.
      611    1    1    2    0    0 -0.71009813200E-01 -0.60577114198E-02  0.20446273866E+01  0.20458691309E+01  0.51109989000E-03 0.  1.
</event>
<event>
 6   3  0.2312675E+03  0.9118800E+02  0.7818608E-02  0.1180000E+00
       11   -1    0    0    0    0  0.00000000000E+00  0.00000000000E+00  0.54999999763E+01  0.55000000000E+01  0.51109989000E-03 0. -1.
     -623   -1    0    0    0    0  0.00000000000E+00  0.00000000000E+00  0.93234578044E-11  0.17124000000E+03  0.17124000000E+03 0. -1.
       11    1    1    2    0    0 -0.63563026207E-02  0.20253050963E-02  0.48001555737E-01  0.48465606568E-01  0.51109989000E-03 0. -1.
     -623    1    1    2    0    0  0.72073284859E-02 -0.26038750420E-02  0.12456149422E-02  0.17124000018E+03  0.17124000000E+03 0. -1.
     -611    1    1    2    0    0  0.39381369746E-01 -0.20275497199E-01  0.33485099218E+01  0.33488029124E+01  0.51109989000E-03 0. -1.
      611    1    1    2    0    0 -0.40232395611E-01  0.20854067145E-01  0.21022428838E+01  0.21027313051E+01  0.51109989000E-03 0.  1.
</event>
<event>
 6   3  0.2312675E+03  0.9118800E+02  0.7818608E-02  0.1180000E+00
       11   -1    0    0    0    0  0.00000000000E+00  0.00000000000E+00  0.54999999763E+01  0.55000000000E+01  0.51109989000E-03 0.  1.
     -623   -1    0    0    0    0  0.00000000000E+00  0.00000000000E+00  0.93234578044E-11  0.17124000000E+03  0.17124000000E+03 0.  1.
       11    1    1    2    0    0  0.15830984833E-02  0.73330272328E-02  0.24255833293E+00  0.24267485569E+00  0.51109989000E-03 0.  1.
     -623    1    1    2    0    0  0.69841761955E-03  0.80762552385E-03  0.68282607632E-03  0.17124000000E+03  0.17124000000E+03 0.  1.
     -611    1    1    2    0    0  0.32404491960E-01  0.13690228239E-01  0.28528833840E+01  0.28531003027E+01  0.51109989000E-03 0.  1.
      611    1    1    2    0    0 -0.34686008062E-01 -0.21830880996E-01  0.24038754333E+01  0.24042248370E+01  0.51109989000E-03 0. -1.
</event>
<event>
 6   3  0.2312675E+03  0.9118800E+02  0.7818608E-02  0.1180000E+00
       11   -1    0    0    0    0  0.00000000000E+00  0.00000000000E+00  0.54999999763E+01  0.55000000000E+01  0.51109989000E-03 0.  1.
     -623   -1    0    0    0    0  0.00000000000E+00  0.00000000000E+00  0.93234578044E-11  0.17124000000E+03  0.17124000000E+03 0.  1.
       11    1    1    2    0    0 -0.25778378364E-01 -0.35099625517E-01  0.68746769205E+00  0.68884584440E+00  0.51109989000E-03 0.  1.
     -623    1    1    2    0    0  0.91669578798E-01  0.46951371547E-01  0.18754115384E-02  0.17124003098E+03  0.17124000000E+03 0.  1.
     -611    1    1    2    0    0 -0.36129322437E-01 -0.59879502528E-02  0.26869242629E+01  0.26871738759E+01  0.51109989000E-03 0.  1.
      611    1    1    2    0    0 -0.29761878008E-01 -0.58637957788E-02  0.21237326106E+01  0.21239492970E+01  0.51109989000E-03 0. -1.
</event>
<event>
 6   3  0.2312675E+03  0.9118800E+02  0.7818608E-02  0.1180000E+00
       11   -1    0    0    0    0  0.00000000000E+00  0.00000000000E+00  0.54999999763E+01  0.55000000000E+01  0.51109989000E-03 0. -1.
     -623   -1    0    0    0    0  0.00000000000E+00  0.00000000000E+00  0.93234578044E-11  0.17124000000E+03  0.17124000000E+03 0. -1.
       11    1    1    2    0    0 -0.29611680744E-02  0.59580579240E-02  0.21240008190E+00  0.21250487755E+00  0.51109989000E-03 0. -1.
     -623    1    1    2    0    0  0.71077236472E-02 -0.22847869435E-02  0.87670329896E-03  0.17124000016E+03  0.17124000000E+03 0. -1.
     -611    1    1    2    0    0  0.40999509044E-01  0.11389019415E-01  0.23263962969E+01  0.23267854781E+01  0.51109989000E-03 0.  1.
      611    1    1    2    0    0 -0.45146064617E-01 -0.15062290395E-01  0.29603268944E+01  0.29607094796E+01  0.51109989000E-03 0. -1.
</event>
<event>
 6   3  0.2312675E+03  0.9118800E+02  0.7818608E-02  0.1180000E+00
       11   -1    0    0    0    0  0.00000000000E+00  0.00000000000E+00  0.54999999763E+01  0.55000000000E+01  0.51109989000E-03 0. -1.
     -623   -1    0    0    0    0  0.00000000000E+00  0.00000000000E+00  0.93234578044E-11  0.17124000000E+03  0.17124000000E+03 0.  1.
       11    1    1    2    0    0  0.16155527335E-01  0.11227835564E-01  0.18949230532E+00  0.19051157538E+00  0.51109989000E-03 0. -1.
     -623    1    1    2    0    0  0.25398344839E-02 -0.78964652098E-02  0.18576256709E-02  0.17124000021E+03  0.17124000000E+03 0.  1.
     -611    1    1    2    0    0  0.36249453322E-01 -0.76306288352E-02  0.16012754535E+01  0.16017039641E+01  0.51109989000E-03 0. -1.
      611    1    1    2    0    0 -0.54944815140E-01  0.42992584804E-02  0.37073745916E+01  0.37077842494E+01  0.51109989000E-03 0.  1.
</event>
<event>
 6   3  0.2312675E+03  0.9118800E+02  0.7818608E-02  0.1180000E+00
       11   -1    0    0    0    0  0.00000000000E+00  0.00000000000E+00  0.54999999763E+01  0.55000000000E+01  0.51109989000E-03 0.  1.
     -623   -1    0    0    0    0  0.00000000000E+00  0.00000000000E+00  0.93234578044E-11  0.17124000000E+03  0.17124000000E+03 0. -1.
       11    1    1    2    0    0 -0.66570330356E-02 -0.13474111507E-01  0.69397582192E-01  0.71008122119E-01  0.51109989000E-03 0.  1.
     -623    1    1    2    0    0 -0.14265368044E-01  0.14962742333E-01  0.27127796800E-02  0.17124000127E+03  0.17124000000E+03 0. -1.
     -611    1    1    2    0    0 -0.41343945674E-01 -0.15276534844E-01  0.17943610700E+01  0.17949023943E+01  0.51109989000E-03 0.  1.
      611    1    1    2    0    0  0.62266346754E-01  0.13787904019E-01  0.36335285444E+01  0.36340882142E+01  0.51109989000E-03 0. -1.
</event>
<event>
 6   3  0.2312675E+03  0.9118800E+02  0.7818608E-02  0.1180000E+00
       11   -1    0    0    0    0  0.00000000000E+00  0.00000000000E+00  0.54999999763E+01  0.55000000000E+01  0.51109989000E-03 0.  1.
     -623   -1    0    0    0    0  0.00000000000E+00  0.00000000000E+00  0.93234578044E-11  0.17124000000E+03  0.17124000000E+03 0.  1.
       11    1    1    2    0    0  0.81044593790E-01 -0.15357960708E-01  0.10698305112E+01  0.10730059073E+01  0.51109989000E-03 0.  1.
     -623    1    1    2    0    0  0.13764597537E-01  0.22062906446E-01  0.42669427766E-02  0.17124000203E+03  0.17124000000E+03 0.  1.
     -611    1    1    2    0    0 -0.70282191334E-01  0.57162230387E-02  0.30539203166E+01  0.30547343294E+01  0.51109989000E-03 0.  1.
      611    1    1    2    0    0 -0.24526999994E-01 -0.12421168776E-01  0.13719822056E+01  0.13722577356E+01  0.51109989000E-03 0. -1.
</event>
<event>
 6   3  0.2312675E+03  0.9118800E+02  0.7818608E-02  0.1180000E+00
       11   -1    0    0    0    0  0.00000000000E+00  0.00000000000E+00  0.54999999763E+01  0.55000000000E+01  0.51109989000E-03 0. -1.
     -623   -1    0    0    0    0  0.00000000000E+00  0.00000000000E+00  0.93234578044E-11  0.17124000000E+03  0.17124000000E+03 0.  1.
       11    1    1    2    0    0 -0.23338353457E-02  0.28578554352E-01  0.59516543677E+00  0.59585597161E+00  0.51109989000E-03 0. -1.
     -623    1    1    2    0    0 -0.68881905728E-01  0.30082008807E-02  0.13376980253E-02  0.17124001389E+03  0.17124000000E+03 0.  1.
     -611    1    1    2    0    0  0.20547400349E-01 -0.56397390872E-02  0.16143473049E+01  0.16144879945E+01  0.51109989000E-03 0. -1.
      611    1    1    2    0    0  0.50668340725E-01 -0.25947016146E-01  0.32891495366E+01  0.32896421482E+01  0.51109989000E-03 0.  1.
</event>
<event>
 6   3  0.2312675E+03  0.9118800E+02  0.7818608E-02  0.1180000E+00
       11   -1    0    0    0    0  0.00000000000E+00  0.00000000000E+00  0.54999999763E+01  0.55000000000E+01  0.51109989000E-03 0.  1.
     -623   -1    0    0    0    0  0.00000000000E+00  0.00000000000E+00  0.93234578044E-11  0.17124000000E+03  0.17124000000E+03 0. -1.
       11    1    1    2    0    0 -0.32639077573E-01  0.44994398120E-01  0.30104503696E+00  0.30613425282E+00  0.51109989000E-03 0.  1.
     -623    1    1    2    0    0 -0.20313946713E-01 -0.10383890987E-01  0.54762276032E-02  0.17124000161E+03  0.17124000000E+03 0. -1.
     -611    1    1    2    0    0  0.41561099856E-01 -0.27298561469E-01  0.40880741695E+01  0.40883765988E+01  0.51109989000E-03 0.  1.
      611    1    1    2    0    0  0.11391924470E-01 -0.73119456911E-02  0.11054045461E+01  0.11054875451E+01  0.51109989000E-03 0.  1.
</event>
<event>
 6   3  0.2312675E+03  0.9118800E+02  0.7818608E-02  0.1180000E+00
       11   -1    0    0    0    0  0.00000000000E+00  0.00000000000E+00  0.54999999763E+01  0.55000000000E+01  0.51109989000E-03 0. -1.
     -623   -1    0    0    0    0  0.00000000000E+00  0.00000000000E+00  0.93234578044E-11  0.17124000000E+03  0.17124000000E+03 0. -1.
       11    1    1    2    0    0  0.17189121432E-02 -0.10439727523E-02  0.10829263645E-01  0.11026273725E-01  0.51109989000E-03 0. -1.
     -623    1    1    2    0    0 -0.23438137875E-03 -0.10007900103E-02  0.60593014899E-03  0.17124000000E+03  0.17124000000E+03 0. -1.
     -611    1    1    2    0    0  0.31349020294E-01 -0.85279769994E-02  0.26119726587E+01  0.26121747488E+01  0.51109989000E-03 0. -1.
      611    1    1    2    0    0 -0.32833551059E-01  0.10572739762E-01  0.28765921235E+01  0.28767989730E+01  0.51109989000E-03 0.  1.
</event>
<event>
 6   3  0.2312675E+03  0.9118800E+02  0.7818608E-02  0.1180000E+00
       11   -1    0    0    0    0  0.00000000000E+00  0.00000000000E+00  0.54999999763E+01  0.55000000000E+01  0.51109989000E-03 0. -1.
     -623   -1    0    0    0    0  0.00000000000E+00  0.00000000000E+00  0.93234578044E-11  0.17124000000E+03  0.17124000000E+03 0. -1.
       11    1    1    2    0    0  0.40741208861E-02 -0.26168332704E-01  0.95328130210E+00  0.95364924488E+00  0.51109989000E-03 0. -1.
     -623    1    1    2    0    0 -0.24436524898E-02 -0.50580414672E-02  0.12631437258E-02  0.17124000010E+03  0.17124000000E+03 0. -1.
     -611    1    1    2    0    0  0.33775190464E-01  0.16148320613E-01  0.10230354566E+01  0.10237203419E+01  0.51109989000E-03 0.  1.
      611    1    1    2    0    0 -0.35405658860E-01  0.15078053558E-01  0.35224200738E+01  0.35226303163E+01  0.51109989000E-03 0. -1.
</event>
<event>
 6   3  0.2312675E+03  0.9118800E+02  0.7818608E-02  0.1180000E+00
       11   -1    0    0    0    0  0.00000000000E+00  0.00000000000E+00  0.54999999763E+01  0.55000000000E+01  0.51109989000E-03 0. -1.
     -623   -1    0    0    0    0  0.00000000000E+00  0.00000000000E+00  0.93234578044E-11  0.17124000000E+03  0.17124000000E+03 0. -1.
       11    1    1    2    0    0  0.62275577344E-01 -0.57949156363E-01  0.10511718022E+01  0.10546083497E+01  0.51109989000E-03 0. -1.
     -623    1    1    2    0    0  0.10472583703E-01 -0.73198571862E-02  0.45134412677E-02  0.17124000054E+03  0.17124000000E+03 0. -1.
     -611    1    1    2    0    0 -0.63005523198E-01  0.57878313803E-01  0.38545065568E+01  0.38554559592E+01  0.51109989000E-03 0. -1.
      611    1    1    2    0    0 -0.97426378400E-02  0.73906997371E-02  0.58980817535E+00  0.58993515437E+00  0.51109989000E-03 0.  1.
</event>
<event>
 6   3  0.2312675E+03  0.9118800E+02  0.7818608E-02  0.1180000E+00
       11   -1    0    0    0    0  0.00000000000E+00  0.00000000000E+00  0.54999999763E+01  0.55000000000E+01  0.51109989000E-03 0. -1.
     -623   -1    0    0    0    0  0.00000000000E+00  0.00000000000E+00  0.93234578044E-11  0.17124000000E+03  0.17124000000E+03 0.  1.
       11    1    1    2    0    0 -0.48432554265E-01  0.91628028304E-02  0.10588323397E+01  0.10599791763E+01  0.51109989000E-03 0. -1.
     -623    1    1    2    0    0 -0.21714504647E-01  0.11053756550E-01  0.17726390862E-02  0.17124000174E+03  0.17124000000E+03 0.  1.
     -611    1    1    2    0    0  0.51814067361E-01 -0.19637764113E-01  0.35742293655E+01  0.35746588869E+01  0.51109989000E-03 0. -1.
      611    1    1    2    0    0  0.18332991551E-01 -0.57879526773E-03  0.86516563198E+00  0.86536019412E+00  0.51109989000E-03 0.  1.
</event>
<event>
 6   3  0.2312675E+03  0.9118800E+02  0.7818608E-02  0.1180000E+00
       11   -1    0    0    0    0  0.00000000000E+00  0.00000000000E+00  0.54999999763E+01  0.55000000000E+01  0.51109989000E-03 0.  1.
     -623   -1    0    0    0    0  0.00000000000E+00  0.00000000000E+00  0.93234578044E-11  0.17124000000E+03  0.17124000000E+03 0.  1.
       11    1    1    2    0    0 -0.25680107132E-02 -0.42417263525E-01  0.52552454730E+00  0.52724010656E+00  0.51109989000E-03 0.  1.
     -623    1    1    2    0    0 -0.26162956273E-02  0.14821943574E-01  0.22084781885E-02  0.17124000068E+03  0.17124000000E+03 0.  1.
     -611    1    1    2    0    0  0.33898429027E-01  0.21313955063E-01  0.31622407059E+01  0.31624942580E+01  0.51109989000E-03 0.  1.
      611    1    1    2    0    0 -0.28714122686E-01  0.62813648876E-02  0.18100262448E+01  0.18102649597E+01  0.51109989000E-03 0. -1.
</event>
<event>
 6   3  0.2312675E+03  0.9118800E+02  0.7818608E-02  0.1180000E+00
       11   -1    0    0    0    0  0.00000000000E+00  0.00000000000E+00  0.54999999763E+01  0.55000000000E+01  0.51109989000E-03 0. -1.
     -623   -1    0    0    0    0  0.00000000000E+00  0.00000000000E+00  0.93234578044E-11  0.17124000000E+03  0.17124000000E+03 0.  1.
       11    1    1    2    0    0 -0.77249338980E-04 -0.42182674588E-02  0.11688738904E-01  0.12437346505E-01  0.51109989000E-03 0. -1.
     -623    1    1    2    0    0 -0.10454987441E-01  0.75974917137E-02  0.18608513552E-02  0.17124000050E+03  0.17124000000E+03 0.  1.
     -611    1    1    2    0    0  0.38004889795E-01 -0.43971567249E-01  0.36275893716E+01  0.36280549583E+01  0.51109989000E-03 0. -1.
      611    1    1    2    0    0 -0.27472653014E-01  0.40592342994E-01  0.18588610144E+01  0.18595071973E+01  0.51109989000E-03 0.  1.
</event>
<event>
 6   3  0.2312675E+03  0.9118800E+02  0.7818608E-02  0.1180000E+00
       11   -1    0    0    0    0  0.00000000000E+00  0.00000000000E+00  0.54999999763E+01  0.55000000000E+01  0.51109989000E-03 0. -1.
     -623   -1    0    0    0    0  0.00000000000E+00  0.00000000000E+00  0.93234578044E-11  0.17124000000E+03  0.17124000000E+03 0. -1.
       11    1    1    2    0    0  0.73921507068E-01  0.23899232281E-01  0.57481915699E+00  0.58004559043E+00  0.51109989000E-03 0. -1.
     -623    1    1    2    0    0  0.10365876402E-01 -0.28876985244E-02  0.60649781735E-02  0.17124000045E+03  0.17124000000E+03 0. -1.
     -611    1    1    2    0    0 -0.13929865253E-01 -0.12871660999E-01  0.77065060259E+00  0.77088412443E+00  0.51109989000E-03 0.  1.
      611    1    1    2    0    0 -0.70357518216E-01 -0.81398727585E-02  0.41484652385E+01  0.41490698396E+01  0.51109989000E-03 0. -1.
</event>
<event>
 6   3  0.2312675E+03  0.9118800E+02  0.7818608E-02  0.1180000E+00
       11   -1    0    0    0    0  0.00000000000E+00  0.00000000000E+00  0.54999999763E+01  0.55000000000E+01  0.51109989000E-03 0.  1.
     -623   -1    0    0    0    0  0.00000000000E+00  0.00000000000E+00  0.93234578044E-11  0.17124000000E+03  0.17124000000E+03 0.  1.
       11    1    1    2    0    0 -0.72311292593E-01  0.47767129112E-01  0.36414093764E+00  0.37431204275E+00  0.51109989000E-03 0.  1.
     -623    1    1    2    0    0  0.22271246881E-02  0.53889826042E-02  0.10931161628E-01  0.17124000045E+03  0.17124000000E+03 0.  1.
     -611    1    1    2    0    0  0.13467722634E-01 -0.83991188011E-02  0.10605416140E+01  0.10606605022E+01  0.51109989000E-03 0. -1.
      611    1    1    2    0    0  0.56616445271E-01 -0.44756992914E-01  0.40643862630E+01  0.40650270068E+01  0.51109989000E-03 0.  1.
</event>
<event>
 6   3  0.2312675E+03  0.9118800E+02  0.7818608E-02  0.1180000E+00
       11   -1    0    0    0    0  0.00000000000E+00  0.00000000000E+00  0.54999999763E+01  0.55000000000E+01  0.51109989000E-03 0. -1.
     -623   -1    0    0    0    0  0.00000000000E+00  0.00000000000E+00  0.93234578044E-11  0.17124000000E+03  0.17124000000E+03 0. -1.
       11    1    1    2    0    0  0.91815373033E-02 -0.24742975271E-01  0.88437919394E+00  0.88477304171E+00  0.51109989000E-03 0. -1.
     -623    1    1    2    0    0  0.19108972383E-02  0.29415306023E-02  0.11702727725E-02  0.17124000004E+03  0.17124000000E+03 0. -1.
     -611    1    1    2    0    0  0.31254896451E-01 -0.86848325450E-02  0.18261114914E+01  0.18263996647E+01  0.51109989000E-03 0.  1.
      611    1    1    2    0    0 -0.42347330992E-01  0.30486277214E-01  0.27883390181E+01  0.27888272536E+01  0.51109989000E-03 0. -1.
</event>
<event>
 6   3  0.2312675E+03  0.9118800E+02  0.7818608E-02  0.1180000E+00
       11   -1    0    0    0    0  0.00000000000E+00  0.00000000000E+00  0.54999999763E+01  0.55000000000E+01  0.51109989000E-03 0.  1.
     -623   -1    0    0    0    0  0.00000000000E+00  0.00000000000E+00  0.93234578044E-11  0.17124000000E+03  0.17124000000E+03 0.  1.
       11    1    1    2    0    0  0.28973455098E-01 -0.83874233189E-01  0.85421843425E+00  0.85881531351E+00  0.51109989000E-03 0.  1.
     -623    1    1    2    0    0  0.25671350988E-01  0.54921270329E-01  0.50201356274E-02  0.17124001081E+03  0.17124000000E+03 0.  1.
     -611    1    1    2    0    0 -0.33649399658E-01  0.18566397748E-01  0.29248104338E+01  0.29250629614E+01  0.51109989000E-03 0.  1.
      611    1    1    2    0    0 -0.20995406430E-01  0.10386565114E-01  0.17159509728E+01  0.17161109202E+01  0.51109989000E-03 0. -1.
</event>
<event>
 6   3  0.2312675E+03  0.9118800E+02  0.7818608E-02  0.1180000E+00
       11   -1    0    0    0    0  0.00000000000E+00  0.00000000000E+00  0.54999999763E+01  0.55000000000E+01  0.51109989000E-03 0. -1.
     -623   -1    0    0    0    0  0.00000000000E+00  0.00000000000E+00  0.93234578044E-11  0.17124000000E+03  0.17124000000E+03 0. -1.
       11    1    1    2    0    0 -0.86916615922E-01 -0.37075815462E-01  0.42975232494E+00  0.44001867713E+00  0.51109989000E-03 0. -1.
     -623    1    1    2    0    0 -0.71670554228E-02 -0.15490651795E-01  0.11603141974E-01  0.17124000124E+03  0.17124000000E+03 0. -1.
     -611    1    1    2    0    0  0.61700400163E-01  0.97270672702E-02  0.28142204537E+01  0.28149136005E+01  0.51109989000E-03 0.  1.
      611    1    1    2    0    0  0.32383271182E-01  0.42839399987E-01  0.22444240557E+01  0.22450664786E+01  0.51109989000E-03 0. -1.
</event>
<event>
 6   3  0.2312675E+03  0.9118800E+02  0.7818608E-02  0.1180000E+00
       11   -1    0    0    0    0  0.00000000000E+00  0.00000000000E+00  0.54999999763E+01  0.55000000000E+01  0.51109989000E-03 0. -1.
     -623   -1    0    0    0    0  0.00000000000E+00  0.00000000000E+00  0.93234578044E-11  0.17124000000E+03  0.17124000000E+03 0.  1.
       11    1    1    2    0    0 -0.13254488085E-01 -0.71639437968E-03  0.89658993140E+00  0.89668832990E+00  0.51109989000E-03 0. -1.
     -623    1    1    2    0    0  0.75369066695E-01  0.15099240783E-01  0.55731722201E-03  0.17124001725E+03  0.17124000000E+03 0.  1.
     -611    1    1    2    0    0 -0.24670990969E-01 -0.57842465116E-02  0.18381592763E+01  0.18383340016E+01  0.51109989000E-03 0. -1.
      611    1    1    2    0    0 -0.37443587282E-01 -0.85985998202E-02  0.27646934252E+01  0.27649603894E+01  0.51109989000E-03 0. -1.
</event>
<event>
 6   3  0.2312675E+03  0.9118800E+02  0.7818608E-02  0.1180000E+00
       11   -1    0    0    0    0  0.00000000000E+00  0.00000000000E+00  0.54999999763E+01  0.55000000000E+01  0.51109989000E-03 0.  1.
     -623   -1    0    0    0    0  0.00000000000E+00  0.00000000000E+00  0.93234578044E-11  0.17124000000E+03  0.17124000000E+03 0.  1.
       11    1    1    2    0    0 -0.37478260820E-02 -0.13671860469E-01  0.77908572955E+00  0.77921486201E+00  0.51109989000E-03 0.  1.
     -623    1    1    2    0    0  0.59207104078E-01  0.82435632083E-01  0.99841617115E-03  0.17124003008E+03  0.17124000000E+03 0.  1.
     -611    1    1    2    0    0 -0.49186076088E-01 -0.57276425787E-01  0.41686321796E+01  0.41693158155E+01  0.51109989000E-03 0.  1.
      611    1    1    2    0    0 -0.62732019521E-02 -0.11487345888E-01  0.55128365506E+00  0.55143924573E+00  0.51109989000E-03 0. -1.
</event>
<event>
 6   3  0.2312675E+03  0.9118800E+02  0.7818608E-02  0.1180000E+00
       11   -1    0    0    0    0  0.00000000000E+00  0.00000000000E+00  0.54999999763E+01  0.55000000000E+01  0.51109989000E-03 0.  1.
     -623   -1    0    0    0    0  0.00000000000E+00  0.00000000000E+00  0.93234578044E-11  0.17124000000E+03  0.17124000000E+03 0. -1.
       11    1    1    2    0    0  0.80354932411E-01 -0.27306276303E-01  0.20548029671E+00  0.22231725405E+00  0.51109989000E-03 0.  1.
     -623    1    1    2    0    0  0.39652827794E-01  0.10774281688E-01  0.18263151123E-01  0.17124000590E+03  0.17124000000E+03 0. -1.
     -611    1    1    2    0    0 -0.10097418857E+00  0.20342299640E-01  0.44130461195E+01  0.44142480572E+01  0.51109989000E-03 0.  1.
      611    1    1    2    0    0 -0.19033571631E-01 -0.38103050243E-02  0.86321040894E+00  0.86342878490E+00  0.51109989000E-03 0. -1.
</event>
<event>
 6   3  0.2312675E+03  0.9118800E+02  0.7818608E-02  0.1180000E+00
       11   -1    0    0    0    0  0.00000000000E+00  0.00000000000E+00  0.54999999763E+01  0.55000000000E+01  0.51109989000E-03 0. -1.
     -623   -1    0    0    0    0  0.00000000000E+00  0.00000000000E+00  0.93234578044E-11  0.17124000000E+03  0.17124000000E+03 0.  1.
       11    1    1    2    0    0 -0.16273103214E-02 -0.35820480808E-01  0.11484142556E+00  0.12031030393E+00  0.51109989000E-03 0. -1.
     -623    1    1    2    0    0  0.10741413687E-01  0.21880201869E-01  0.75819059765E-02  0.17124000190E+03  0.17124000000E+03 0.  1.
     -611    1    1    2    0    0 -0.76979342066E-01 -0.30243821261E-02  0.22201092636E+01  0.22214455585E+01  0.51109989000E-03 0. -1.
      611    1    1    2    0    0  0.67865238700E-01  0.16964661066E-01  0.31574673812E+01  0.31582422350E+01  0.51109989000E-03 0.  1.
</event>
<event>
 6   3  0.2312675E+03  0.9118800E+02  0.7818608E-02  0.1180000E+00
       11   -1    0    0    0    0  0.00000000000E+00  0.00000000000E+00  0.54999999763E+01  0.55000000000E+01  0.51109989000E-03 0.  1.
     -623   -1    0    0    0    0  0.00000000000E+00  0.00000000000E+00  0.93234578044E-11  0.17124000000E+03  0.17124000000E+03 0.  1.
       11    1    1    2    0    0 -0.11741040703E-02 -0.65525505618E-03  0.12772482651E+00  0.12773292610E+00  0.51109989000E-03 0.  1.
     -623    1    1    2    0    0 -0.24773839645E-02  0.42366212755E-02  0.58588672468E-03  0.17124000007E+03  0.17124000000E+03 0.  1.
     -611    1    1    2    0    0 -0.35413475135E-01  0.64168929131E-02  0.18771254320E+01  0.18774704896E+01  0.51109989000E-03 0.  1.
      611    1    1    2    0    0  0.39064963170E-01 -0.99982591324E-02  0.34945638310E+01  0.34947965129E+01  0.51109989000E-03 0. -1.
</event>
<event>
 6   3  0.2312675E+03  0.9118800E+02  0.7818608E-02  0.1180000E+00
       11   -1    0    0    0    0  0.00000000000E+00  0.00000000000E+00  0.54999999763E+01  0.55000000000E+01  0.51109989000E-03 0.  1.
     -623   -1    0    0    0    0  0.00000000000E+00  0.00000000000E+00  0.93234578044E-11  0.17124000000E+03  0.17124000000E+03 0.  1.
       11    1    1    2    0    0 -0.69736454054E-02 -0.64913114216E-02  0.41126203721E-01  0.42218416714E-01  0.51109989000E-03 0.  1.
     -623    1    1    2    0    0 -0.22225644966E-01 -0.89498448985E-02  0.16166720580E-02  0.17124000168E+03  0.17124000000E+03 0.  1.
     -611    1    1    2    0    0 -0.18276159411E-01  0.93926745244E-02  0.75665712051E+00  0.75693625860E+00  0.51109989000E-03 0. -1.
      611    1    1    2    0    0  0.47475449782E-01  0.60484817956E-02  0.47005999800E+01  0.47008436408E+01  0.51109989000E-03 0.  1.
</event>
<event>
 6   3  0.2312675E+03  0.9118800E+02  0.7818608E-02  0.1180000E+00
       11   -1    0    0    0    0  0.00000000000E+00  0.00000000000E+00  0.54999999763E+01  0.55000000000E+01  0.51109989000E-03 0.  1.
     -623   -1    0    0    0    0  0.00000000000E+00  0.00000000000E+00  0.93234578044E-11  0.17124000000E+03  0.17124000000E+03 0.  1.
       11    1    1    2    0    0 -0.45645758775E-03  0.14017752685E-02 -0.12099877174E-02  0.19744925441E-02  0.51109989000E-03 0.  1.
     -623    1    1    2    0    0 -0.90043788793E-02 -0.67727455039E-02  0.41441192070E-02  0.17124000042E+03  0.17124000000E+03 0.  1.
     -611    1    1    2    0    0 -0.39887303750E-01 -0.36527552978E-02  0.12041342027E+01  0.12048003067E+01  0.51109989000E-03 0. -1.
      611    1    1    2    0    0  0.49348140217E-01  0.90237255332E-02  0.42929316420E+01  0.42932247799E+01  0.51109989000E-03 0.  1.
</event>
<event>
 6   3  0.2312675E+03  0.9118800E+02  0.7818608E-02  0.1180000E+00
       11   -1    0    0    0    0  0.00000000000E+00  0.00000000000E+00  0.54999999763E+01  0.55000000000E+01  0.51109989000E-03 0. -1.
     -623   -1    0    0    0    0  0.00000000000E+00  0.00000000000E+00  0.93234578044E-11  0.17124000000E+03  0.17124000000E+03 0. -1.
       11    1    1    2    0    0  0.16836411350E-02  0.14284344061E-02  0.39452662367E-02  0.45498814380E-02  0.51109989000E-03 0.  1.
     -623    1    1    2    0    0  0.42997652339E-02  0.40483606688E-02  0.13723032058E-02  0.17124000011E+03  0.17124000000E+03 0. -1.
     -611    1    1    2    0    0 -0.37302757016E-01 -0.32580659056E-01  0.26061957761E+01  0.26066663921E+01  0.51109989000E-03 0. -1.
      611    1    1    2    0    0  0.31319350648E-01  0.27103863982E-01  0.28884866307E+01  0.28887836191E+01  0.51109989000E-03 0.  1.
</event>
<event>
 6   3  0.2312675E+03  0.9118800E+02  0.7818608E-02  0.1180000E+00
       11   -1    0    0    0    0  0.00000000000E+00  0.00000000000E+00  0.54999999763E+01  0.55000000000E+01  0.51109989000E-03 0. -1.
     -623   -1    0    0    0    0  0.00000000000E+00  0.00000000000E+00  0.93234578044E-11  0.17124000000E+03  0.17124000000E+03 0.  1.
       11    1    1    2    0    0 -0.95947519762E-01 -0.10343866492E+00  0.81587869298E+00  0.82798779389E+00  0.51109989000E-03 0. -1.
     -623    1    1    2    0    0 -0.22748155303E-01  0.22626425213E-01  0.14373631992E-01  0.17124000361E+03  0.17124000000E+03 0.  1.
     -611    1    1    2    0    0  0.25012357162E-01  0.93146946534E-02  0.10672167014E+01  0.10675505283E+01  0.51109989000E-03 0.  1.
      611    1    1    2    0    0  0.93683317904E-01  0.71497545056E-01  0.36025309499E+01  0.36044580687E+01  0.51109989000E-03 0. -1.
</event>
<event>
 6   3  0.2312675E+03  0.9118800E+02  0.7818608E-02  0.1180000E+00
       11   -1    0    0    0    0  0.00000000000E+00  0.00000000000E+00  0.54999999763E+01  0.55000000000E+01  0.51109989000E-03 0.  1.
     -623   -1    0    0    0    0  0.00000000000E+00  0.00000000000E+00  0.93234578044E-11  0.17124000000E+03  0.17124000000E+03 0. -1.
       11    1    1    2    0    0  0.23382868896E-02  0.31570160001E-03  0.14657206416E-02  0.28243252601E-02  0.51109989000E-03 0.  1.
     -623    1    1    2    0    0  0.10664996588E-01 -0.15719185590E-02  0.10595883386E-01  0.17124000067E+03  0.17124000000E+03 0. -1.
     -611    1    1    2    0    0  0.39421312901E-01  0.14971910572E+00  0.32642658342E+01  0.32679353647E+01  0.51109989000E-03 0. -1.
      611    1    1    2    0    0 -0.52424596378E-01 -0.14846288877E+00  0.22236725381E+01  0.22292396429E+01  0.51109989000E-03 0.  1.
</event>
<event>
 6   3  0.2312675E+03  0.9118800E+02  0.7818608E-02  0.1180000E+00
       11   -1    0    0    0    0  0.00000000000E+00  0.00000000000E+00  0.54999999763E+01  0.55000000000E+01  0.51109989000E-03 0.  1.
     -623   -1    0    0    0    0  0.00000000000E+00  0.00000000000E+00  0.93234578044E-11  0.17124000000E+03  0.17124000000E+03 0. -1.
       11    1    1    2    0    0  0.49004202928E-02 -0.55639448271E-02  0.10567703035E-01  0.12919333250E-01  0.51109989000E-03 0.  1.
     -623    1    1    2    0    0 -0.47636389718E-02  0.44395476480E-02  0.28493349712E-02  0.17124000015E+03  0.17124000000E+03 0. -1.
     -611    1    1    2    0    0 -0.35844712220E-01 -0.86271937574E-02  0.27137769921E+01  0.27140274678E+01  0.51109989000E-03 0.  1.
      611    1    1    2    0    0  0.35707930899E-01  0.97515909365E-02  0.27728059462E+01  0.27730530515E+01  0.51109989000E-03 0. -1.
</event>
<event>
 6   3  0.2312675E+03  0.9118800E+02  0.7818608E-02  0.1180000E+00
       11   -1    0    0    0    0  0.00000000000E+00  0.00000000000E+00  0.54999999763E+01  0.55000000000E+01  0.51109989000E-03 0.  1.
     -623   -1    0    0    0    0  0.00000000000E+00  0.00000000000E+00  0.93234578044E-11  0.17124000000E+03  0.17124000000E+03 0.  1.
       11    1    1    2    0    0  0.14709083940E-01 -0.49360767102E-02  0.73370074100E+00  0.73386494709E+00  0.51109989000E-03 0.  1.
     -623    1    1    2    0    0  0.36730970830E-01 -0.61788373540E-02  0.45892661376E-03  0.17124000405E+03  0.17124000000E+03 0.  1.
     -611    1    1    2    0    0 -0.24580247640E-01  0.50789399323E-02  0.22743244183E+01  0.22744629707E+01  0.51109989000E-03 0.  1.
      611    1    1    2    0    0 -0.26859807160E-01  0.60359741383E-02  0.24915158931E+01  0.24916680335E+01  0.51109989000E-03 0.  1.
</event>
<event>
 6   3  0.2707247E+03  0.9118800E+02  0.7818608E-02  0.1180000E+00
       11   -1    0    0    0    0  0.00000000000E+00  0.00000000000E+00  0.54999999763E+01  0.55000000000E+01  0.51109989000E-03 0.  1.
     -623   -1    0    0    0    0  0.00000000000E+00  0.00000000000E+00  0.93234578044E-11  0.17124000000E+03  0.17124000000E+03 0.  1.
       11    1    1    2    0    0 -0.15515108619E-03 -0.16907642750E-01  0.51223913749E-01  0.53944814561E-01  0.51109989000E-03 0.  1.
     -623    1    1    2    0    0 -0.44402333484E-02  0.23595042828E-01  0.42635023547E-02  0.17124000174E+03  0.17124000000E+03 0.  1.
     -611    1    1    2    0    0 -0.40756301809E-01  0.40600919280E-01  0.17133291139E+01  0.17142947310E+01  0.51109989000E-03 0. -1.
      611    1    1    2    0    0  0.45351686244E-01 -0.47288319358E-01  0.37311834462E+01  0.37317587182E+01  0.51109989000E-03 0.  1.
</event>
<event>
 6   3  0.2312675E+03  0.9118800E+02  0.7818608E-02  0.1180000E+00
       11   -1    0    0    0    0  0.00000000000E+00  0.00000000000E+00  0.54999999763E+01  0.55000000000E+01  0.51109989000E-03 0. -1.
     -623   -1    0    0    0    0  0.00000000000E+00  0.00000000000E+00  0.93234578044E-11  0.17124000000E+03  0.17124000000E+03 0. -1.
       11    1    1    2    0    0 -0.60760279272E-02 -0.29073813254E-02  0.58178225928E+00  0.58182147556E+00  0.51109989000E-03 0. -1.
     -623    1    1    2    0    0  0.45771972719E-02  0.24719272602E-02  0.55091077197E-03  0.17124000008E+03  0.17124000000E+03 0. -1.
     -611    1    1    2    0    0 -0.32790620946E-01  0.11655891977E-01  0.25093965493E+01  0.25096378997E+01  0.51109989000E-03 0. -1.
      611    1    1    2    0    0  0.34289451601E-01 -0.11220437911E-01  0.24082702568E+01  0.24085405448E+01  0.51109989000E-03 0.  1.
</event>
<event>
 6   3  0.2312675E+03  0.9118800E+02  0.7818608E-02  0.1180000E+00
       11   -1    0    0    0    0  0.00000000000E+00  0.00000000000E+00  0.54999999763E+01  0.55000000000E+01  0.51109989000E-03 0. -1.
     -623   -1    0    0    0    0  0.00000000000E+00  0.00000000000E+00  0.93234578044E-11  0.17124000000E+03  0.17124000000E+03 0. -1.
       11    1    1    2    0    0  0.55726053046E-01  0.22451330189E-01  0.10836374171E+01  0.10853016945E+01  0.51109989000E-03 0. -1.
     -623    1    1    2    0    0 -0.89825955929E-03 -0.24437549467E-02  0.20502474590E-02  0.17124000003E+03  0.17124000000E+03 0. -1.
     -611    1    1    2    0    0 -0.32191776214E-01 -0.11519757665E-01  0.25883997589E+01  0.25886256176E+01  0.51109989000E-03 0. -1.
      611    1    1    2    0    0 -0.22636017296E-01 -0.84878175859E-02  0.18259125547E+01  0.18260726576E+01  0.51109989000E-03 0. -1.
</event>
<event>
 6   3  0.2312675E+03  0.9118800E+02  0.7818608E-02  0.1180000E+00
       11   -1    0    0    0    0  0.00000000000E+00  0.00000000000E+00  0.54999999763E+01  0.55000000000E+01  0.51109989000E-03 0. -1.
     -623   -1    0    0    0    0  0.00000000000E+00  0.00000000000E+00  0.93234578044E-11  0.17124000000E+03  0.17124000000E+03 0.  1.
       11    1    1    2    0    0  0.41595882165E-02 -0.24493827547E-02  0.33215691249E-01  0.33568512303E-01  0.51109989000E-03 0. -1.
     -623    1    1    2    0    0 -0.14315260178E-02  0.63863529157E-02  0.83461825697E-03  0.17124000013E+03  0.17124000000E+03 0.  1.
     -611    1    1    2    0    0  0.31258435697E-01  0.12370788919E-01  0.30856133904E+01  0.30857965556E+01  0.51109989000E-03 0. -1.
      611    1    1    2    0    0 -0.33986497896E-01 -0.16307759080E-01  0.23803362763E+01  0.23806348049E+01  0.51109989000E-03 0.  1.
</event>
<event>
 6   3  0.2312675E+03  0.9118800E+02  0.7818608E-02  0.1180000E+00
       11   -1    0    0    0    0  0.00000000000E+00  0.00000000000E+00  0.54999999763E+01  0.55000000000E+01  0.51109989000E-03 0. -1.
     -623   -1    0    0    0    0  0.00000000000E+00  0.00000000000E+00  0.93234578044E-11  0.17124000000E+03  0.17124000000E+03 0.  1.
       11    1    1    2    0    0 -0.84397886235E-02 -0.16862975276E-01  0.71976856177E+00  0.72001571768E+00  0.51109989000E-03 0. -1.
     -623    1    1    2    0    0 -0.52410121960E-01 -0.18226504045E-01  0.77269371614E-03  0.17124000899E+03  0.17124000000E+03 0.  1.
     -611    1    1    2    0    0  0.35183601572E-01  0.20675380227E-01  0.27222516887E+01  0.27225575981E+01  0.51109989000E-03 0. -1.
      611    1    1    2    0    0  0.25666309006E-01  0.14414099091E-01  0.20572070317E+01  0.20574176917E+01  0.51109989000E-03 0.  1.
</event>
<event>
 6   3  0.2312675E+03  0.9118800E+02  0.7818608E-02  0.1180000E+00
       11   -1    0    0    0    0  0.00000000000E+00  0.00000000000E+00  0.54999999763E+01  0.55000000000E+01  0.51109989000E-03 0. -1.
     -623   -1    0    0    0    0  0.00000000000E+00  0.00000000000E+00  0.93234578044E-11  0.17124000000E+03  0.17124000000E+03 0. -1.
       11    1    1    2    0    0 -0.28331124841E-02 -0.12115431414E-01  0.24568071756E+00  0.24599611056E+00  0.51109989000E-03 0. -1.
     -623    1    1    2    0    0 -0.81940575660E-02 -0.80173994265E-03  0.28615414243E-02  0.17124000022E+03  0.17124000000E+03 0. -1.
     -611    1    1    2    0    0 -0.71703328509E-01  0.12032361500E-01  0.16577808816E+01  0.16593745381E+01  0.51109989000E-03 0. -1.
      611    1    1    2    0    0  0.82730498559E-01  0.88480985653E-03  0.35936768357E+01  0.35946291295E+01  0.51109989000E-03 0.  1.
</event>
<event>
 6   3  0.2312675E+03  0.9118800E+02  0.7818608E-02  0.1180000E+00
       11   -1    0    0    0    0  0.00000000000E+00  0.00000000000E+00  0.54999999763E+01  0.55000000000E+01  0.51109989000E-03 0.  1.
     -623   -1    0    0    0    0  0.00000000000E+00  0.00000000000E+00  0.93234578044E-11  0.17124000000E+03  0.17124000000E+03 0.  1.
       11    1    1    2    0    0 -0.37078490622E-02  0.99171853358E-03  0.23117148539E+00  0.23120391115E+00  0.51109989000E-03 0.  1.
     -623    1    1    2    0    0  0.60793287304E-01  0.24099306259E-02  0.35613460997E-03  0.17124001081E+03  0.17124000000E+03 0.  1.
     -611    1    1    2    0    0 -0.17889525789E-01 -0.54347925642E-03  0.14452788102E+01  0.14453897159E+01  0.51109989000E-03 0. -1.
      611    1    1    2    0    0 -0.39195912282E-01 -0.28581698962E-02  0.38231935306E+01  0.38233955488E+01  0.51109989000E-03 0.  1.
</event>
<event>
 6   3  0.2312675E+03  0.9118800E+02  0.7818608E-02  0.1180000E+00
       11   -1    0    0    0    0  0.00000000000E+00  0.00000000000E+00  0.54999999763E+01  0.55000000000E+01  0.51109989000E-03 0. -1.
     -623   -1    0    0    0    0  0.00000000000E+00  0.00000000000E+00  0.93234578044E-11  0.17124000000E+03  0.17124000000E+03 0. -1.
       11    1    1    2    0    0  0.78106190400E-02  0.37296283414E-02  0.60985680775E+00  0.60991843969E+00  0.51109989000E-03 0. -1.
     -623    1    1    2    0    0 -0.57361764676E-02  0.87471831783E-02  0.48077088874E-03  0.17124000032E+03  0.17124000000E+03 0. -1.
     -611    1    1    2    0    0 -0.27955463989E-01  0.88955644471E-02  0.27347195964E+01  0.27348769938E+01  0.51109989000E-03 0. -1.
      611    1    1    2    0    0  0.25881021417E-01 -0.21372375967E-01  0.21549428016E+01  0.21552042467E+01  0.51109989000E-03 0.  1.
</event>
<event>
 6   3  0.2312675E+03  0.9118800E+02  0.7818608E-02  0.1180000E+00
       11   -1    0    0    0    0  0.00000000000E+00  0.00000000000E+00  0.54999999763E+01  0.55000000000E+01  0.51109989000E-03 0. -1.
     -623   -1    0    0    0    0  0.00000000000E+00  0.00000000000E+00  0.93234578044E-11  0.17124000000E+03  0.17124000000E+03 0. -1.
       11    1    1    2    0    0 -0.29343680901E-01  0.80940846720E-02  0.18271981476E+00  0.18523865079E+00  0.51109989000E-03 0. -1.
     -623    1    1    2    0    0  0.95844873679E-02 -0.20390874745E-01  0.10852529623E-01  0.17124000183E+03  0.17124000000E+03 0. -1.
     -611    1    1    2    0    0  0.45181583263E-01 -0.10738703430E+00  0.41949506969E+01  0.41965682362E+01  0.51109989000E-03 0. -1.
      611    1    1    2    0    0 -0.25422389729E-01  0.11968382437E+00  0.11114769349E+01  0.11181912868E+01  0.51109989000E-03 0.  1.
</event>
<event>
 6   3  0.2312675E+03  0.9118800E+02  0.7818608E-02  0.1180000E+00
       11   -1    0    0    0    0  0.00000000000E+00  0.00000000000E+00  0.54999999763E+01  0.55000000000E+01  0.51109989000E-03 0.  1.
     -623   -1    0    0    0    0  0.00000000000E+00  0.00000000000E+00  0.93234578044E-11  0.17124000000E+03  0.17124000000E+03 0. -1.
       11    1    1    2    0    0 -0.35471264642E-01 -0.90388990306E-02  0.74220576910E-01  0.82757885250E-01  0.51109989000E-03 0.  1.
     -623    1    1    2    0    0  0.14023729898E-01 -0.15577354558E-01  0.92768221842E-02  0.17124000153E+03  0.17124000000E+03 0. -1.
     -611    1    1    2    0    0  0.47707171509E-01  0.35492699715E-01  0.31650880578E+01  0.31656465976E+01  0.51109989000E-03 0. -1.
      611    1    1    2    0    0 -0.26259636765E-01 -0.10876446127E-01  0.22514145194E+01  0.22515939831E+01  0.51109989000E-03 0.  1.
</event>
<event>
 6   3  0.2312675E+03  0.9118800E+02  0.7818608E-02  0.1180000E+00
       11   -1    0    0    0    0  0.00000000000E+00  0.00000000000E+00  0.54999999763E+01  0.55000000000E+01  0.51109989000E-03 0.  1.
     -623   -1    0    0    0    0  0.00000000000E+00  0.00000000000E+00  0.93234578044E-11  0.17124000000E+03  0.17124000000E+03 0.  1.
       11    1    1    2    0    0  0.12775147993E-02 -0.63606983655E-04  0.17265334293E-02  0.22086717028E-02  0.51109989000E-03 0. -1.
     -623    1    1    2    0    0  0.35630674493E-03  0.97986137764E-03  0.89957635700E-03  0.17124000001E+03  0.17124000000E+03 0.  1.
     -611    1    1    2    0    0  0.32519248342E-01  0.19237170488E-02  0.31259636971E+01  0.31261334743E+01  0.51109989000E-03 0. -1.
      611    1    1    2    0    0 -0.34153069886E-01 -0.28399714428E-02  0.23714101695E+01  0.23716578486E+01  0.51109989000E-03 0.  1.
</event>
<event>
 6   3  0.2312675E+03  0.9118800E+02  0.7818608E-02  0.1180000E+00
       11   -1    0    0    0    0  0.00000000000E+00  0.00000000000E+00  0.54999999763E+01  0.55000000000E+01  0.51109989000E-03 0. -1.
     -623   -1    0    0    0    0  0.00000000000E+00  0.00000000000E+00  0.93234578044E-11  0.17124000000E+03  0.17124000000E+03 0. -1.
       11    1    1    2    0    0  0.23280092729E+00  0.92873709188E-01  0.76148412929E+00  0.80167333621E+00  0.51109989000E-03 0. -1.
     -623    1    1    2    0    0 -0.13302692307E+00 -0.26133997830E-01  0.44125830788E-01  0.17124005935E+03  0.17124000000E+03 0. -1.
     -611    1    1    2    0    0 -0.26174506844E-01  0.47828482681E-01  0.14244180494E+01  0.14254612268E+01  0.51109989000E-03 0.  1.
      611    1    1    2    0    0 -0.73599497378E-01 -0.11456819404E+00  0.32699719668E+01  0.32728060868E+01  0.51109989000E-03 0. -1.
</event>
<event>
 6   3  0.2312675E+03  0.9118800E+02  0.7818608E-02  0.1180000E+00
       11   -1    0    0    0    0  0.00000000000E+00  0.00000000000E+00  0.54999999763E+01  0.55000000000E+01  0.51109989000E-03 0.  1.
     -623   -1    0    0    0    0  0.00000000000E+00  0.00000000000E+00  0.93234578044E-11  0.17124000000E+03  0.17124000000E+03 0.  1.
       11    1    1    2    0    0  0.13281468707E-01 -0.92199400173E-02  0.52874127076E+00  0.52898865520E+00  0.51109989000E-03 0.  1.
     -623    1    1    2    0    0  0.20767186584E-01 -0.36716422363E-01  0.10154186807E-02  0.17124000520E+03  0.17124000000E+03 0.  1.
     -611    1    1    2    0    0 -0.50253922518E-01  0.33918128862E-01  0.43764764370E+01  0.43768964074E+01  0.51109989000E-03 0.  1.
      611    1    1    2    0    0  0.16205267228E-01  0.12018233518E-01  0.59376684973E+00  0.59410973876E+00  0.51109989000E-03 0. -1.
</event>
<event>
 6   3  0.2312675E+03  0.9118800E+02  0.7818608E-02  0.1180000E+00
       11   -1    0    0    0    0  0.00000000000E+00  0.00000000000E+00  0.54999999763E+01  0.55000000000E+01  0.51109989000E-03 0.  1.
     -623   -1    0    0    0    0  0.00000000000E+00  0.00000000000E+00  0.93234578044E-11  0.17124000000E+03  0.17124000000E+03 0.  1.
       11    1    1    2    0    0  0.39968822374E-02  0.45936977192E-01  0.64734827222E+00  0.64898861909E+00  0.51109989000E-03 0.  1.
     -623    1    1    2    0    0  0.81484395813E-01 -0.34426574935E-01  0.24302629178E-02  0.17124002286E+03  0.17124000000E+03 0.  1.
     -611    1    1    2    0    0 -0.70335081339E-01 -0.93826672691E-02  0.39986630459E+01  0.39992926217E+01  0.51109989000E-03 0.  1.
      611    1    1    2    0    0 -0.15146196846E-01 -0.21277350060E-02  0.85155840293E+00  0.85169590193E+00  0.51109989000E-03 0.  1.
</event>
<event>
 6   3  0.2312675E+03  0.9118800E+02  0.7818608E-02  0.1180000E+00
       11   -1    0    0    0    0  0.00000000000E+00  0.00000000000E+00  0.54999999763E+01  0.55000000000E+01  0.51109989000E-03 0. -1.
     -623   -1    0    0    0    0  0.00000000000E+00  0.00000000000E+00  0.93234578044E-11  0.17124000000E+03  0.17124000000E+03 0.  1.
       11    1    1    2    0    0  0.43898867228E-02  0.18381796500E-02  0.10293155802E+00  0.10304279145E+00  0.51109989000E-03 0. -1.
     -623    1    1    2    0    0 -0.24691480713E-02 -0.28096924753E-02  0.65316142684E-03  0.17124000004E+03  0.17124000000E+03 0.  1.
     -611    1    1    2    0    0 -0.36764748687E-01  0.11406480544E-01  0.22216489802E+01  0.22219824948E+01  0.51109989000E-03 0. -1.
      611    1    1    2    0    0  0.34844010035E-01 -0.10434967719E-01  0.31747662768E+01  0.31749746719E+01  0.51109989000E-03 0.  1.
</event>
<event>
 6   3  0.2312675E+03  0.9118800E+02  0.7818608E-02  0.1180000E+00
       11   -1    0    0    0    0  0.00000000000E+00  0.00000000000E+00  0.54999999763E+01  0.55000000000E+01  0.51109989000E-03 0. -1.
     -623   -1    0    0    0    0  0.00000000000E+00  0.00000000000E+00  0.93234578044E-11  0.17124000000E+03  0.17124000000E+03 0. -1.
       11    1    1    2    0    0  0.46876196158E-02 -0.36308918240E-02  0.14288646099E-01  0.15478494227E-01  0.51109989000E-03 0. -1.
     -623    1    1    2    0    0 -0.11600574979E-01 -0.16320367999E-02  0.60676459897E-02  0.17124000051E+03  0.17124000000E+03 0. -1.
     -611    1    1    2    0    0  0.63138834391E-01 -0.34644934630E-01  0.58840350341E+00  0.59279484474E+00  0.51109989000E-03 0.  1.
      611    1    1    2    0    0 -0.56225879028E-01  0.39907863254E-01  0.48912401807E+01  0.48917261528E+01  0.51109989000E-03 0. -1.
</event>
<event>
 6   3  0.2312675E+03  0.9118800E+02  0.7818608E-02  0.1180000E+00
       11   -1    0    0    0    0  0.00000000000E+00  0.00000000000E+00  0.54999999763E+01  0.55000000000E+01  0.51109989000E-03 0.  1.
     -623   -1    0    0    0    0  0.00000000000E+00  0.00000000000E+00  0.93234578044E-11  0.17124000000E+03  0.17124000000E+03 0.  1.
       11    1    1    2    0    0  0.16508380240E-02 -0.17471328940E-02  0.74559988574E-01  0.74600474923E-01  0.51109989000E-03 0.  1.
     -623    1    1    2    0    0  0.35781189898E-02  0.16061959955E-02  0.78419878111E-03  0.17124000005E+03  0.17124000000E+03 0.  1.
     -611    1    1    2    0    0  0.34532284723E-01  0.23132296362E-01  0.31967712632E+01  0.31970415000E+01  0.51109989000E-03 0. -1.
      611    1    1    2    0    0 -0.39761241737E-01 -0.22991359463E-01  0.22278845256E+01  0.22283579784E+01  0.51109989000E-03 0.  1.
</event>
<event>
 6   3  0.2312675E+03  0.9118800E+02  0.7818608E-02  0.1180000E+00
       11   -1    0    0    0    0  0.00000000000E+00  0.00000000000E+00  0.54999999763E+01  0.55000000000E+01  0.51109989000E-03 0.  1.
     -623   -1    0    0    0    0  0.00000000000E+00  0.00000000000E+00  0.93234578044E-11  0.17124000000E+03  0.17124000000E+03 0.  1.
       11    1    1    2    0    0  0.45011742495E-01 -0.37913360044E-01  0.59372950346E+00  0.59663930841E+00  0.51109989000E-03 0.  1.
     -623    1    1    2    0    0  0.16941642321E-01  0.15940208827E-01  0.33522539969E-02  0.17124000161E+03  0.17124000000E+03 0.  1.
     -611    1    1    2    0    0 -0.51763971262E-01  0.18484708103E-01  0.40882952386E+01  0.40886647468E+01  0.51109989000E-03 0.  1.
      611    1    1    2    0    0 -0.10189413550E-01  0.34884431116E-02  0.81462297998E+00  0.81469433171E+00  0.51109989000E-03 0.  1.
</event>
<event>
 6   3  0.2312675E+03  0.9118800E+02  0.7818608E-02  0.1180000E+00
       11   -1    0    0    0    0  0.00000000000E+00  0.00000000000E+00  0.54999999763E+01  0.55000000000E+01  0.51109989000E-03 0. -1.
     -623   -1    0    0    0    0  0.00000000000E+00  0.00000000000E+00  0.93234578044E-11  0.17124000000E+03  0.17124000000E+03 0.  1.
       11    1    1    2    0    0 -0.86711429722E-02 -0.37434958397E-02  0.59457442495E-02  0.11172089300E-01  0.51109989000E-03 0. -1.
     -623    1    1    2    0    0  0.17875452117E-01 -0.88850461094E-02  0.12338743437E-01  0.17124000161E+03  0.17124000000E+03 0.  1.
     -611    1    1    2    0    0  0.72050315804E-01  0.12281093092E+00  0.27705796340E+01  0.27742360286E+01  0.51109989000E-03 0. -1.
      611    1    1    2    0    0 -0.81254624948E-01 -0.11018238897E+00  0.27111358545E+01  0.27145902740E+01  0.51109989000E-03 0.  1.
</event>
<event>
 6   3  0.2312675E+03  0.9118800E+02  0.7818608E-02  0.1180000E+00
       11   -1    0    0    0    0  0.00000000000E+00  0.00000000000E+00  0.54999999763E+01  0.55000000000E+01  0.51109989000E-03 0. -1.
     -623   -1    0    0    0    0  0.00000000000E+00  0.00000000000E+00  0.93234578044E-11  0.17124000000E+03  0.17124000000E+03 0.  1.
       11    1    1    2    0    0  0.56469253191E-02 -0.35617665754E-02  0.20927290839E+00  0.20938000228E+00  0.51109989000E-03 0. -1.
     -623    1    1    2    0    0 -0.19947402858E-03  0.48482042871E-02  0.79141641613E-03  0.17124000007E+03  0.17124000000E+03 0.  1.
     -611    1    1    2    0    0 -0.42445932348E-01 -0.15046637487E-01  0.31226135580E+01  0.31229383203E+01  0.51109989000E-03 0.  1.
      611    1    1    2    0    0  0.36998481057E-01  0.13760199776E-01  0.21673220935E+01  0.21676816069E+01  0.51109989000E-03 0. -1.
</event>
<event>
 6   3  0.2312675E+03  0.9118800E+02  0.7818608E-02  0.1180000E+00
       11   -1    0    0    0    0  0.00000000000E+00  0.00000000000E+00  0.54999999763E+01  0.55000000000E+01  0.51109989000E-03 0. -1.
     -623   -1    0    0    0    0  0.00000000000E+00  0.00000000000E+00  0.93234578044E-11  0.17124000000E+03  0.17124000000E+03 0.  1.
       11    1    1    2    0    0  0.33037417368E-03  0.15152300534E-02  0.32458025422E-02  0.36333904896E-02  0.51109989000E-03 0. -1.
     -623    1    1    2    0    0  0.24893938583E-02  0.23446778890E-03  0.19684438101E-02  0.17124000003E+03  0.17124000000E+03 0.  1.
     -611    1    1    2    0    0 -0.39474693646E-01  0.46635574225E-01  0.38055319371E+01  0.38060224268E+01  0.51109989000E-03 0. -1.
      611    1    1    2    0    0  0.36654925614E-01 -0.48385272067E-01  0.16892537929E+01  0.16903441532E+01  0.51109989000E-03 0.  1.
</event>
<event>
 6   3  0.2312675E+03  0.9118800E+02  0.7818608E-02  0.1180000E+00
       11   -1    0    0    0    0  0.00000000000E+00  0.00000000000E+00  0.54999999763E+01  0.55000000000E+01  0.51109989000E-03 0. -1.
     -623   -1    0    0    0    0  0.00000000000E+00  0.00000000000E+00  0.93234578044E-11  0.17124000000E+03  0.17124000000E+03 0. -1.
       11    1    1    2    0    0  0.76455105625E-01 -0.57802791102E-02  0.10431926829E+01  0.10460067064E+01  0.51109989000E-03 0. -1.
     -623    1    1    2    0    0 -0.19558216325E-02  0.35901939202E-02  0.34422287605E-02  0.17124000008E+03  0.17124000000E+03 0. -1.
     -611    1    1    2    0    0 -0.64507754632E-01  0.34880988932E-02  0.37652351728E+01  0.37657893708E+01  0.51109989000E-03 0. -1.
      611    1    1    2    0    0 -0.99915293647E-02 -0.12980137031E-02  0.68812989201E+00  0.68820383972E+00  0.51109989000E-03 0.  1.
</event>
<event>
 6   3  0.2312675E+03  0.9118800E+02  0.7818608E-02  0.1180000E+00
       11   -1    0    0    0    0  0.00000000000E+00  0.00000000000E+00  0.54999999763E+01  0.55000000000E+01  0.51109989000E-03 0.  1.
     -623   -1    0    0    0    0  0.00000000000E+00  0.00000000000E+00  0.93234578044E-11  0.17124000000E+03  0.17124000000E+03 0.  1.
       11    1    1    2    0    0  0.11557617802E+00 -0.60756615318E-01  0.33813167019E+00  0.36246724934E+00  0.51109989000E-03 0.  1.
     -623    1    1    2    0    0  0.16475882351E-01  0.72886426524E-01  0.26688860068E-01  0.17124001838E+03  0.17124000000E+03 0.  1.
     -611    1    1    2    0    0 -0.19832322155E-01 -0.28605035491E-01  0.19612214343E+01  0.19615303578E+01  0.51109989000E-03 0. -1.
      611    1    1    2    0    0 -0.11221973822E+00  0.16475224284E-01  0.31739580117E+01  0.31759840087E+01  0.51109989000E-03 0.  1.
</event>
<event>
 6   3  0.2312675E+03  0.9118800E+02  0.7818608E-02  0.1180000E+00
       11   -1    0    0    0    0  0.00000000000E+00  0.00000000000E+00  0.54999999763E+01  0.55000000000E+01  0.51109989000E-03 0. -1.
     -623   -1    0    0    0    0  0.00000000000E+00  0.00000000000E+00  0.93234578044E-11  0.17124000000E+03  0.17124000000E+03 0.  1.
       11    1    1    2    0    0  0.50423808185E-03 -0.82004629178E-02  0.43218569524E+00  0.43226408392E+00  0.51109989000E-03 0. -1.
     -623    1    1    2    0    0  0.25915420598E-02  0.13314862917E-02  0.91056548203E-03  0.17124000003E+03  0.17124000000E+03 0.  1.
     -611    1    1    2    0    0  0.42170039200E-01  0.92221730257E-02  0.17994574294E+01  0.17999751837E+01  0.51109989000E-03 0.  1.
      611    1    1    2    0    0 -0.45265819342E-01 -0.23531963996E-02  0.32674462860E+01  0.32677607050E+01  0.51109989000E-03 0. -1.
</event>
<event>
 6   3  0.2312675E+03  0.9118800E+02  0.7818608E-02  0.1180000E+00
       11   -1    0    0    0    0  0.00000000000E+00  0.00000000000E+00  0.54999999763E+01  0.55000000000E+01  0.51109989000E-03 0.  1.
     -623   -1    0    0    0    0  0.00000000000E+00  0.00000000000E+00  0.93234578044E-11  0.17124000000E+03  0.17124000000E+03 0.  1.
       11    1    1    2    0    0  0.32126391674E-01 -0.37961195547E-01  0.29045739881E+00  0.29468443996E+00  0.51109989000E-03 0.  1.
     -623    1    1    2    0    0 -0.15626021238E-01  0.24451600044E-02  0.52941775767E-02  0.17124000081E+03  0.17124000000E+03 0.  1.
     -611    1    1    2    0    0  0.39477634988E-01  0.15851971638E-01  0.15462846659E+01  0.15468698387E+01  0.51109989000E-03 0.  1.
      611    1    1    2    0    0 -0.55978005424E-01  0.19664063905E-01  0.36579637340E+01  0.36584449091E+01  0.51109989000E-03 0. -1.
</event>
<event>
 6   3  0.2312675E+03  0.9118800E+02  0.7818608E-02  0.1180000E+00
       11   -1    0    0    0    0  0.00000000000E+00  0.00000000000E+00  0.54999999763E+01  0.55000000000E+01  0.51109989000E-03 0.  1.
     -623   -1    0    0    0    0  0.00000000000E+00  0.00000000000E+00  0.93234578044E-11  0.17124000000E+03  0.17124000000E+03 0. -1.
       11    1    1    2    0    0  0.51793314295E-01  0.24368782872E-01  0.51921543094E+00  0.52236128296E+00  0.51109989000E-03 0.  1.
     -623    1    1    2    0    0 -0.84725010781E-02 -0.17803612339E-01  0.64807616442E-02  0.17124000126E+03  0.17124000000E+03 0. -1.
     -611    1    1    2    0    0  0.44146277119E-01 -0.63507535649E-01  0.19503450117E+01  0.19518780768E+01  0.51109989000E-03 0. -1.
      611    1    1    2    0    0 -0.87467090336E-01  0.56942365116E-01  0.30239587720E+01  0.30257593825E+01  0.51109989000E-03 0.  1.
</event>
<event>
 6   3  0.2312675E+03  0.9118800E+02  0.7818608E-02  0.1180000E+00
       11   -1    0    0    0    0  0.00000000000E+00  0.00000000000E+00  0.54999999763E+01  0.55000000000E+01  0.51109989000E-03 0. -1.
     -623   -1    0    0    0    0  0.00000000000E+00  0.00000000000E+00  0.93234578044E-11  0.17124000000E+03  0.17124000000E+03 0. -1.
       11    1    1    2    0    0  0.58076161579E-01 -0.25184295292E-01  0.74470604889E+00  0.74739176457E+00  0.51109989000E-03 0. -1.
     -623    1    1    2    0    0 -0.98833297796E-02  0.74083412601E-02  0.35218832603E-02  0.17124000048E+03  0.17124000000E+03 0. -1.
     -611    1    1    2    0    0 -0.12905027984E-01 -0.27529223294E-01  0.12826459849E+01  0.12830063841E+01  0.51109989000E-03 0.  1.
      611    1    1    2    0    0 -0.35287803815E-01  0.45305177325E-01  0.34691260592E+01  0.34696013696E+01  0.51109989000E-03 0. -1.
</event>
<event>
 6   3  0.2312675E+03  0.9118800E+02  0.7818608E-02  0.1180000E+00
       11   -1    0    0    0    0  0.00000000000E+00  0.00000000000E+00  0.54999999763E+01  0.55000000000E+01  0.51109989000E-03 0. -1.
     -623   -1    0    0    0    0  0.00000000000E+00  0.00000000000E+00  0.93234578044E-11  0.17124000000E+03  0.17124000000E+03 0. -1.
       11    1    1    2    0    0  0.69132090121E-01  0.74857642529E-01  0.78899508881E+00  0.79554787657E+00  0.51109989000E-03 0. -1.
     -623    1    1    2    0    0 -0.73230805704E-02  0.15500479025E-01  0.78320598539E-02  0.17124000104E+03  0.17124000000E+03 0. -1.
     -611    1    1    2    0    0 -0.95483176177E-02 -0.14607073862E-01  0.65864613853E+00  0.65887748027E+00  0.51109989000E-03 0. -1.
      611    1    1    2    0    0 -0.52260691937E-01 -0.75751047698E-01  0.40445266894E+01  0.40455736063E+01  0.51109989000E-03 0. -1.
</event>
<event>
 6   3  0.2312675E+03  0.9118800E+02  0.7818608E-02  0.1180000E+00
       11   -1    0    0    0    0  0.00000000000E+00  0.00000000000E+00  0.54999999763E+01  0.55000000000E+01  0.51109989000E-03 0. -1.
     -623   -1    0    0    0    0  0.00000000000E+00  0.00000000000E+00  0.93234578044E-11  0.17124000000E+03  0.17124000000E+03 0.  1.
       11    1    1    2    0    0 -0.14192227982E-02 -0.51335209126E-01  0.17456969429E+00  0.18196746214E+00  0.51109989000E-03 0. -1.
     -623    1    1    2    0    0 -0.26206515749E-01 -0.17239044929E-01  0.14046862225E-01  0.17124000345E+03  0.17124000000E+03 0.  1.
     -611    1    1    2    0    0  0.11858193599E+00  0.67336315845E-01  0.16864280058E+01  0.16919324853E+01  0.51109989000E-03 0.  1.
      611    1    1    2    0    0 -0.90956197440E-01  0.12379382101E-02  0.36249554139E+01  0.36260966033E+01  0.51109989000E-03 0. -1.
</event>
<event>
 6   3  0.2312675E+03  0.9118800E+02  0.7818608E-02  0.1180000E+00
       11   -1    0    0    0    0  0.00000000000E+00  0.00000000000E+00  0.54999999763E+01  0.55000000000E+01  0.51109989000E-03 0.  1.
     -623   -1    0    0    0    0  0.00000000000E+00  0.00000000000E+00  0.93234578044E-11  0.17124000000E+03  0.17124000000E+03 0. -1.
       11    1    1    2    0    0  0.21888325989E-01 -0.95597353864E-02  0.12176123141E+00  0.12408281933E+00  0.51109989000E-03 0.  1.
     -623    1    1    2    0    0  0.57641974929E-02 -0.10683490700E-01  0.34207869874E-02  0.17124000046E+03  0.17124000000E+03 0. -1.
     -611    1    1    2    0    0 -0.63326506641E-01  0.19888791751E-01  0.42868406373E+01  0.42873545131E+01  0.51109989000E-03 0.  1.
      611    1    1    2    0    0  0.35673983159E-01  0.35443433567E-03  0.10879773206E+01  0.10885622032E+01  0.51109989000E-03 0. -1.
</event>
<event>
 6   3  0.2312675E+03  0.9118800E+02  0.7818608E-02  0.1180000E+00
       11   -1    0    0    0    0  0.00000000000E+00  0.00000000000E+00  0.54999999763E+01  0.55000000000E+01  0.51109989000E-03 0. -1.
     -623   -1    0    0    0    0  0.00000000000E+00  0.00000000000E+00  0.93234578044E-11  0.17124000000E+03  0.17124000000E+03 0. -1.
       11    1    1    2    0    0 -0.67368654833E-03 -0.12633665473E-02  0.39122741457E-02  0.41972682410E-02  0.51109989000E-03 0. -1.
     -623    1    1    2    0    0 -0.12591090322E-02  0.72804364278E-03  0.12005876543E-02  0.17124000001E+03  0.17124000000E+03 0. -1.
     -611    1    1    2    0    0  0.42576955787E-01  0.26617265231E-01  0.22802786034E+01  0.22808314375E+01  0.51109989000E-03 0. -1.
      611    1    1    2    0    0 -0.40644160206E-01 -0.26081942326E-01  0.32146085110E+01  0.32149712838E+01  0.51109989000E-03 0.  1.
</event>
<event>
 6   3  0.2312675E+03  0.9118800E+02  0.7818608E-02  0.1180000E+00
       11   -1    0    0    0    0  0.00000000000E+00  0.00000000000E+00  0.54999999763E+01  0.55000000000E+01  0.51109989000E-03 0.  1.
     -623   -1    0    0    0    0  0.00000000000E+00  0.00000000000E+00  0.93234578044E-11  0.17124000000E+03  0.17124000000E+03 0.  1.
       11    1    1    2    0    0  0.64944192596E-02  0.18580620868E-02  0.45222000775E+00  0.45227074469E+00  0.51109989000E-03 0.  1.
     -623    1    1    2    0    0 -0.10004970574E+00  0.20500615747E-01  0.99803193206E-03  0.17124003046E+03  0.17124000000E+03 0.  1.
     -611    1    1    2    0    0  0.11013151272E-01 -0.25175193574E-02  0.59842946187E+00  0.59853630589E+00  0.51109989000E-03 0.  1.
      611    1    1    2    0    0  0.82542134924E-01 -0.19841158414E-01  0.44483524592E+01  0.44491624760E+01  0.51109989000E-03 0.  1.
</event>
<event>
 6   3  0.2312675E+03  0.9118800E+02  0.7818608E-02  0.1180000E+00
       11   -1    0    0    0    0  0.00000000000E+00  0.00000000000E+00  0.54999999763E+01  0.55000000000E+01  0.51109989000E-03 0.  1.
     -623   -1    0    0    0    0  0.00000000000E+00  0.00000000000E+00  0.93234578044E-11  0.17124000000E+03  0.17124000000E+03 0. -1.
       11    1    1    2    0    0  0.33822993130E-02 -0.19882899127E-02  0.41427138127E+00  0.41429027481E+00  0.51109989000E-03 0.  1.
     -623    1    1    2    0    0  0.26682353226E-02  0.29708096829E-02  0.16955437817E-02  0.17124000005E+03  0.17124000000E+03 0. -1.
     -611    1    1    2    0    0  0.42898743239E-01  0.83275258247E-02  0.42290435839E+01  0.42292693868E+01  0.51109989000E-03 0.  1.
      611    1    1    2    0    0 -0.48949277875E-01 -0.93100455949E-02  0.85498946729E+00  0.85644028347E+00  0.51109989000E-03 0. -1.
</event>
<event>
 6   3  0.2312675E+03  0.9118800E+02  0.7818608E-02  0.1180000E+00
       11   -1    0    0    0    0  0.00000000000E+00  0.00000000000E+00  0.54999999763E+01  0.55000000000E+01  0.51109989000E-03 0. -1.
     -623   -1    0    0    0    0  0.00000000000E+00  0.00000000000E+00  0.93234578044E-11  0.17124000000E+03  0.17124000000E+03 0.  1.
       11    1    1    2    0    0 -0.68659795242E-01  0.18023029620E-01  0.54176724415E+00  0.54639821114E+00  0.51109989000E-03 0. -1.
     -623    1    1    2    0    0 -0.14614838317E-01 -0.44250159116E-01  0.54079340853E-02  0.17124000643E+03  0.17124000000E+03 0.  1.
     -611    1    1    2    0    0  0.37759587815E-01  0.11804793819E-01  0.21557056022E+01  0.21560686548E+01  0.51109989000E-03 0. -1.
      611    1    1    2    0    0  0.45515045739E-01  0.14422335675E-01  0.27971191955E+01  0.27975267073E+01  0.51109989000E-03 0. -1.
</event>
<event>
 6   3  0.2312675E+03  0.9118800E+02  0.7818608E-02  0.1180000E+00
       11   -1    0    0    0    0  0.00000000000E+00  0.00000000000E+00  0.54999999763E+01  0.55000000000E+01  0.51109989000E-03 0.  1.
     -623   -1    0    0    0    0  0.00000000000E+00  0.00000000000E+00  0.93234578044E-11  0.17124000000E+03  0.17124000000E+03 0. -1.
       11    1    1    2    0    0 -0.25571503044E-02 -0.10459587736E-02 -0.48589364592E-02  0.56128009094E-02  0.51109989000E-03 0.  1.
     -623    1    1    2    0    0  0.12786528885E-01  0.54618205697E-02  0.14538148144E-01  0.17124000118E+03  0.17124000000E+03 0. -1.
     -611    1    1    2    0    0 -0.88105964260E-01  0.22522142020E-01  0.12662048913E+01  0.12694664217E+01  0.51109989000E-03 0. -1.
      611    1    1    2    0    0  0.77876585680E-01 -0.26938003816E-01  0.42241158733E+01  0.42249195958E+01  0.51109989000E-03 0.  1.
</event>
<event>
 6   3  0.2312675E+03  0.9118800E+02  0.7818608E-02  0.1180000E+00
       11   -1    0    0    0    0  0.00000000000E+00  0.00000000000E+00  0.54999999763E+01  0.55000000000E+01  0.51109989000E-03 0.  1.
     -623   -1    0    0    0    0  0.00000000000E+00  0.00000000000E+00  0.93234578044E-11  0.17124000000E+03  0.17124000000E+03 0.  1.
       11    1    1    2    0    0 -0.13438057622E-01 -0.89335338809E-02  0.20883376624E+00  0.20945689907E+00  0.51109989000E-03 0.  1.
     -623    1    1    2    0    0 -0.10379071163E-01 -0.11709108416E-01  0.11594883316E-02  0.17124000072E+03  0.17124000000E+03 0.  1.
     -611    1    1    2    0    0 -0.20770686876E-01 -0.64182040198E-02  0.11351336894E+01  0.11353419612E+01  0.51109989000E-03 0. -1.
      611    1    1    2    0    0  0.44587815662E-01  0.27060846317E-01  0.41548730324E+01  0.41552004210E+01  0.51109989000E-03 0.  1.
</event>
<event>
 6   3  0.2312675E+03  0.9118800E+02  0.7818608E-02  0.1180000E+00
       11   -1    0    0    0    0  0.00000000000E+00  0.00000000000E+00  0.54999999763E+01  0.55000000000E+01  0.51109989000E-03 0. -1.
     -623   -1    0    0    0    0  0.00000000000E+00  0.00000000000E+00  0.93234578044E-11  0.17124000000E+03  0.17124000000E+03 0. -1.
       11    1    1    2    0    0 -0.36272771866E-01 -0.47852402897E-02  0.11254297563E+00  0.11834185688E+00  0.51109989000E-03 0. -1.
     -623    1    1    2    0    0 -0.34747978438E-01  0.90406654522E-01  0.69764277474E-02  0.17124002753E+03  0.17124000000E+03 0. -1.
     -611    1    1    2    0    0  0.52855294299E-01 -0.63751227923E-01  0.39905464870E+01  0.39914056957E+01  0.51109989000E-03 0. -1.
      611    1    1    2    0    0  0.18165456113E-01 -0.21870186441E-01  0.13899340941E+01  0.13902249228E+01  0.51109989000E-03 0. -1.
</event>
<event>
 6   3  0.2312675E+03  0.9118800E+02  0.7818608E-02  0.1180000E+00
       11   -1    0    0    0    0  0.00000000000E+00  0.00000000000E+00  0.54999999763E+01  0.55000000000E+01  0.51109989000E-03 0.  1.
     -623   -1    0    0    0    0  0.00000000000E+00  0.00000000000E+00  0.93234578044E-11  0.17124000000E+03  0.17124000000E+03 0. -1.
       11    1    1    2    0    0  0.33208232110E-02 -0.28102647837E-01  0.20431838824E+00  0.20626936679E+00  0.51109989000E-03 0.  1.
     -623    1    1    2    0    0 -0.80504911372E-02  0.39309956535E-01  0.30163185341E-02  0.17124000473E+03  0.17124000000E+03 0. -1.
     -611    1    1    2    0    0 -0.49746281907E-01 -0.36904526082E-02  0.28971750476E+01  0.28976044985E+01  0.51109989000E-03 0.  1.
      611    1    1    2    0    0  0.54475949833E-01 -0.75168560905E-02  0.23954902219E+01  0.23961214069E+01  0.51109989000E-03 0. -1.
</event>
<event>
 6   3  0.2312675E+03  0.9118800E+02  0.7818608E-02  0.1180000E+00
       11   -1    0    0    0    0  0.00000000000E+00  0.00000000000E+00  0.54999999763E+01  0.55000000000E+01  0.51109989000E-03 0. -1.
     -623   -1    0    0    0    0  0.00000000000E+00  0.00000000000E+00  0.93234578044E-11  0.17124000000E+03  0.17124000000E+03 0. -1.
       11    1    1    2    0    0  0.14646852939E-02 -0.77298115971E-02  0.26070796207E+00  0.26082714200E+00  0.51109989000E-03 0. -1.
     -623    1    1    2    0    0 -0.40166643628E-02  0.30667874234E-03  0.71265805077E-03  0.17124000005E+03  0.17124000000E+03 0. -1.
     -611    1    1    2    0    0 -0.32681190989E-01  0.23354971078E-01  0.26241826082E+01  0.26244900719E+01  0.51109989000E-03 0.  1.
      611    1    1    2    0    0  0.35233170058E-01 -0.15931838223E-01  0.26143967479E+01  0.26146827372E+01  0.51109989000E-03 0. -1.
</event>
<event>
 6   3  0.2312675E+03  0.9118800E+02  0.7818608E-02  0.1180000E+00
       11   -1    0    0    0    0  0.00000000000E+00  0.00000000000E+00  0.54999999763E+01  0.55000000000E+01  0.51109989000E-03 0. -1.
     -623   -1    0    0    0    0  0.00000000000E+00  0.00000000000E+00  0.93234578044E-11  0.17124000000E+03  0.17124000000E+03 0. -1.
       11    1    1    2    0    0  0.82683569876E-02 -0.83572307253E-02  0.18845277435E+00  0.18881980409E+00  0.51109989000E-03 0. -1.
     -623    1    1    2    0    0 -0.15822234511E-01 -0.74181177023E-02  0.38766485352E-02  0.17124000094E+03  0.17124000000E+03 0. -1.
     -611    1    1    2    0    0  0.95478543015E-01 -0.86437142771E-02  0.20639926259E+01  0.20662179669E+01  0.51109989000E-03 0.  1.
      611    1    1    2    0    0 -0.87924665491E-01  0.24419062705E-01  0.32436779275E+01  0.32449612935E+01  0.51109989000E-03 0. -1.
</event>
<event>
 6   3  0.2312675E+03  0.9118800E+02  0.7818608E-02  0.1180000E+00
       11   -1    0    0    0    0  0.00000000000E+00  0.00000000000E+00  0.54999999763E+01  0.55000000000E+01  0.51109989000E-03 0. -1.
     -623   -1    0    0    0    0  0.00000000000E+00  0.00000000000E+00  0.93234578044E-11  0.17124000000E+03  0.17124000000E+03 0.  1.
       11    1    1    2    0    0 -0.51116881566E-01  0.58688763242E-01  0.10818814399E+01  0.10846773796E+01  0.51109989000E-03 0. -1.
     -623    1    1    2    0    0  0.10164694710E-02 -0.18801298444E-01  0.32660551121E-02  0.17124000107E+03  0.17124000000E+03 0.  1.
     -611    1    1    2    0    0  0.30562664733E-01 -0.22128344398E-01  0.27719998620E+01  0.27722567046E+01  0.51109989000E-03 0.  1.
      611    1    1    2    0    0  0.19537747363E-01 -0.17759120400E-01  0.16428526193E+01  0.16430648496E+01  0.51109989000E-03 0. -1.
</event>
<event>
 6   3  0.2312675E+03  0.9118800E+02  0.7818608E-02  0.1180000E+00
       11   -1    0    0    0    0  0.00000000000E+00  0.00000000000E+00  0.54999999763E+01  0.55000000000E+01  0.51109989000E-03 0.  1.
     -623   -1    0    0    0    0  0.00000000000E+00  0.00000000000E+00  0.93234578044E-11  0.17124000000E+03  0.17124000000E+03 0. -1.
       11    1    1    2    0    0 -0.18510415498E-02  0.61074496652E-02 -0.11263824911E-02  0.65005581949E-02  0.51109989000E-03 0.  1.
     -623    1    1    2    0    0 -0.21104248895E-01  0.21139483066E-01  0.87881068575E-02  0.17124000283E+03  0.17124000000E+03 0. -1.
     -611    1    1    2    0    0 -0.32008957966E-01  0.22058878022E-01  0.17913408546E+01  0.17917626757E+01  0.51109989000E-03 0. -1.
      611    1    1    2    0    0  0.54964248411E-01 -0.49305810754E-01  0.37009973973E+01  0.37017339353E+01  0.51109989000E-03 0.  1.
</event>
<event>
 6   3  0.2312675E+03  0.9118800E+02  0.7818608E-02  0.1180000E+00
       11   -1    0    0    0    0  0.00000000000E+00  0.00000000000E+00  0.54999999763E+01  0.55000000000E+01  0.51109989000E-03 0.  1.
     -623   -1    0    0    0    0  0.00000000000E+00  0.00000000000E+00  0.93234578044E-11  0.17124000000E+03  0.17124000000E+03 0. -1.
       11    1    1    2    0    0  0.43977722145E-03  0.94444847090E-03  0.91490555510E-01  0.91497914498E-01  0.51109989000E-03 0.  1.
     -623    1    1    2    0    0 -0.13811889476E-02  0.40705582321E-05  0.37260380566E-03  0.17124000001E+03  0.17124000000E+03 0. -1.
     -611    1    1    2    0    0 -0.29288876444E-01 -0.10463094577E-01  0.27908151436E+01  0.27909884882E+01  0.51109989000E-03 0.  1.
      611    1    1    2    0    0  0.30230288170E-01  0.95145755483E-02  0.26173216733E+01  0.26175135912E+01  0.51109989000E-03 0. -1.
</event>
<event>
 6   3  0.2312675E+03  0.9118800E+02  0.7818608E-02  0.1180000E+00
       11   -1    0    0    0    0  0.00000000000E+00  0.00000000000E+00  0.54999999763E+01  0.55000000000E+01  0.51109989000E-03 0.  1.
     -623   -1    0    0    0    0  0.00000000000E+00  0.00000000000E+00  0.93234578044E-11  0.17124000000E+03  0.17124000000E+03 0.  1.
       11    1    1    2    0    0  0.51290319504E-01 -0.24851679460E-01  0.23346341803E+00  0.24032006081E+00  0.51109989000E-03 0.  1.
     -623    1    1    2    0    0  0.67899196903E-01  0.54468189178E-02  0.82656522330E-02  0.17124001375E+03  0.17124000000E+03 0.  1.
     -611    1    1    2    0    0 -0.10158490655E+00  0.17155496232E-01  0.46186652288E+01  0.46198141263E+01  0.51109989000E-03 0.  1.
      611    1    1    2    0    0 -0.17604609853E-01  0.22493643099E-02  0.63960567705E+00  0.63985206514E+00  0.51109989000E-03 0. -1.
</event>
<event>
 6   3  0.2312675E+03  0.9118800E+02  0.7818608E-02  0.1180000E+00
       11   -1    0    0    0    0  0.00000000000E+00  0.00000000000E+00  0.54999999763E+01  0.55000000000E+01  0.51109989000E-03 0. -1.
     -623   -1    0    0    0    0  0.00000000000E+00  0.00000000000E+00  0.93234578044E-11  0.17124000000E+03  0.17124000000E+03 0. -1.
       11    1    1    2    0    0  0.39329805014E-02  0.79647599620E-03  0.19693656971E-02  0.44991481398E-02  0.51109989000E-03 0. -1.
     -623    1    1    2    0    0 -0.11745405453E-01  0.21246796248E-02  0.71108325370E-02  0.17124000056E+03  0.17124000000E+03 0. -1.
     -611    1    1    2    0    0 -0.10132648367E+00 -0.82113850443E-02  0.17229812572E+01  0.17259777394E+01  0.51109989000E-03 0. -1.
      611    1    1    2    0    0  0.10913890863E+00  0.52902294233E-02  0.37679385208E+01  0.37695225488E+01  0.51109989000E-03 0.  1.
</event>
<event>
 6   3  0.2312675E+03  0.9118800E+02  0.7818608E-02  0.1180000E+00
       11   -1    0    0    0    0  0.00000000000E+00  0.00000000000E+00  0.54999999763E+01  0.55000000000E+01  0.51109989000E-03 0. -1.
     -623   -1    0    0    0    0  0.00000000000E+00  0.00000000000E+00  0.93234578044E-11  0.17124000000E+03  0.17124000000E+03 0.  1.
       11    1    1    2    0    0 -0.38955254914E-01  0.18366456281E-02  0.49130400961E+00  0.49284964871E+00  0.51109989000E-03 0. -1.
     -623    1    1    2    0    0 -0.18244699999E-01 -0.18260476986E-01  0.19016307796E-02  0.17124000196E+03  0.17124000000E+03 0.  1.
     -611    1    1    2    0    0  0.11472363994E-01  0.38235421921E-02  0.10472370874E+01  0.10473070290E+01  0.51109989000E-03 0. -1.
      611    1    1    2    0    0  0.45727590899E-01  0.12600289160E-01  0.39595572468E+01  0.39598413645E+01  0.51109989000E-03 0. -1.
</event>
<event>
 6   3  0.2312675E+03  0.9118800E+02  0.7818608E-02  0.1180000E+00
       11   -1    0    0    0    0  0.00000000000E+00  0.00000000000E+00  0.54999999763E+01  0.55000000000E+01  0.51109989000E-03 0.  1.
     -623   -1    0    0    0    0  0.00000000000E+00  0.00000000000E+00  0.93234578044E-11  0.17124000000E+03  0.17124000000E+03 0. -1.
       11    1    1    2    0    0  0.63599637486E-02 -0.35750289576E-03  0.82483862695E-02  0.10434272680E-01  0.51109989000E-03 0.  1.
     -623    1    1    2    0    0 -0.60468151870E-02 -0.34850353450E-02  0.33323731133E-02  0.17124000017E+03  0.17124000000E+03 0. -1.
     -611    1    1    2    0    0 -0.50196473518E-01  0.26801784989E-01  0.25734054940E+01  0.25740345995E+01  0.51109989000E-03 0. -1.
      611    1    1    2    0    0  0.49883324957E-01 -0.22959246748E-01  0.29150137228E+01  0.29155309531E+01  0.51109989000E-03 0.  1.
</event>
<event>
 6   3  0.2312675E+03  0.9118800E+02  0.7818608E-02  0.1180000E+00
       11   -1    0    0    0    0  0.00000000000E+00  0.00000000000E+00  0.54999999763E+01  0.55000000000E+01  0.51109989000E-03 0. -1.
     -623   -1    0    0    0    0  0.00000000000E+00  0.00000000000E+00  0.93234578044E-11  0.17124000000E+03  0.17124000000E+03 0. -1.
       11    1    1    2    0    0 -0.94905401299E-01  0.76371711684E-01  0.49439782282E+00  0.50918478176E+00  0.51109989000E-03 0. -1.
     -623    1    1    2    0    0 -0.11608512619E-01 -0.17217428209E-01  0.16304384497E-01  0.17124000204E+03  0.17124000000E+03 0. -1.
     -611    1    1    2    0    0  0.87157550613E-01 -0.43410979376E-01  0.37483154838E+01  0.37495800003E+01  0.51109989000E-03 0. -1.
      611    1    1    2    0    0  0.19356363305E-01 -0.15743304099E-01  0.12409822851E+01  0.12412331826E+01  0.51109989000E-03 0.  1.
</event>
<event>
 6   3  0.2312675E+03  0.9118800E+02  0.7818608E-02  0.1180000E+00
       11   -1    0    0    0    0  0.00000000000E+00  0.00000000000E+00  0.54999999763E+01  0.55000000000E+01  0.51109989000E-03 0.  1.
     -623   -1    0    0    0    0  0.00000000000E+00  0.00000000000E+00  0.93234578044E-11  0.17124000000E+03  0.17124000000E+03 0. -1.
       11    1    1    2    0    0 -0.28890131285E-01 -0.22003380904E-01  0.37278955099E+00  0.37455453409E+00  0.51109989000E-03 0.  1.
     -623    1    1    2    0    0 -0.82437061129E-01 -0.15770445154E-01  0.34349160674E-02  0.17124002060E+03  0.17124000000E+03 0. -1.
     -611    1    1    2    0    0  0.76216183609E-01  0.18176582597E-01  0.22420049358E+01  0.22433737290E+01  0.51109989000E-03 0.  1.
      611    1    1    2    0    0  0.35111008805E-01  0.19597243461E-01  0.28817705734E+01  0.28820511331E+01  0.51109989000E-03 0. -1.
</event>
<event>
 6   3  0.2312675E+03  0.9118800E+02  0.7818608E-02  0.1180000E+00
       11   -1    0    0    0    0  0.00000000000E+00  0.00000000000E+00  0.54999999763E+01  0.55000000000E+01  0.51109989000E-03 0.  1.
     -623   -1    0    0    0    0  0.00000000000E+00  0.00000000000E+00  0.93234578044E-11  0.17124000000E+03  0.17124000000E+03 0.  1.
       11    1    1    2    0    0  0.73883507453E-02 -0.17536330666E-01  0.52427406889E+00  0.52461954897E+00  0.51109989000E-03 0.  1.
     -623    1    1    2    0    0 -0.31863191843E-03  0.43557166064E-03  0.71900065710E-03  0.17124000000E+03  0.17124000000E+03 0.  1.
     -611    1    1    2    0    0  0.25564266504E-01  0.68666964456E-02  0.19348551904E+01  0.19350363181E+01  0.51109989000E-03 0. -1.
      611    1    1    2    0    0 -0.32633985331E-01  0.10234062560E-01  0.30401517161E+01  0.30403441304E+01  0.51109989000E-03 0.  1.
</event>
<event>
 6   3  0.2312675E+03  0.9118800E+02  0.7818608E-02  0.1180000E+00
       11   -1    0    0    0    0  0.00000000000E+00  0.00000000000E+00  0.54999999763E+01  0.55000000000E+01  0.51109989000E-03 0.  1.
     -623   -1    0    0    0    0  0.00000000000E+00  0.00000000000E+00  0.93234578044E-11  0.17124000000E+03  0.17124000000E+03 0. -1.
       11    1    1    2    0    0 -0.11422057558E-01  0.39311696936E-02  0.10111278286E+00  0.10183306720E+00  0.51109989000E-03 0.  1.
     -623    1    1    2    0    0  0.85543155559E-02  0.41484043463E-02  0.18483632498E-02  0.17124000027E+03  0.17124000000E+03 0. -1.
     -611    1    1    2    0    0  0.43459739421E-01 -0.39673407707E-01  0.29631807919E+01  0.29637650708E+01  0.51109989000E-03 0. -1.
      611    1    1    2    0    0 -0.40591997419E-01  0.31593833668E-01  0.24338580381E+01  0.24344015880E+01  0.51109989000E-03 0.  1.
</event>
<event>
 6   3  0.2312675E+03  0.9118800E+02  0.7818608E-02  0.1180000E+00
       11   -1    0    0    0    0  0.00000000000E+00  0.00000000000E+00  0.54999999763E+01  0.55000000000E+01  0.51109989000E-03 0. -1.
     -623   -1    0    0    0    0  0.00000000000E+00  0.00000000000E+00  0.93234578044E-11  0.17124000000E+03  0.17124000000E+03 0.  1.
       11    1    1    2    0    0  0.10718768659E-02 -0.57524416003E-02  0.47455862142E+00  0.47459497036E+00  0.51109989000E-03 0. -1.
     -623    1    1    2    0    0 -0.70443006365E-03  0.43782296781E-02  0.11793560391E-02  0.17124000006E+03  0.17124000000E+03 0.  1.
     -611    1    1    2    0    0  0.37203963437E-01 -0.32306680115E-01  0.15665772448E+01  0.15673520286E+01  0.51109989000E-03 0.  1.
      611    1    1    2    0    0 -0.37571410239E-01  0.33680892037E-01  0.34576847540E+01  0.34580529395E+01  0.51109989000E-03 0. -1.
</event>
<event>
 6   3  0.2312675E+03  0.9118800E+02  0.7818608E-02  0.1180000E+00
       11   -1    0    0    0    0  0.00000000000E+00  0.00000000000E+00  0.54999999763E+01  0.55000000000E+01  0.51109989000E-03 0.  1.
     -623   -1    0    0    0    0  0.00000000000E+00  0.00000000000E+00  0.93234578044E-11  0.17124000000E+03  0.17124000000E+03 0. -1.
       11    1    1    2    0    0  0.25320515396E-01  0.18687703112E-01  0.62056981149E+00  0.62136745240E+00  0.51109989000E-03 0.  1.
     -623    1    1    2    0    0  0.24574760600E-01 -0.49401132374E-01  0.11585210559E-02  0.17124000889E+03  0.17124000000E+03 0. -1.
     -611    1    1    2    0    0 -0.18859551791E-01  0.11992840334E-01  0.18748644130E+01  0.18749976905E+01  0.51109989000E-03 0.  1.
      611    1    1    2    0    0 -0.31035724172E-01  0.18720588909E-01  0.30034072275E+01  0.30036259608E+01  0.51109989000E-03 0.  1.
</event>
<event>
 6   3  0.2312675E+03  0.9118800E+02  0.7818608E-02  0.1180000E+00
       11   -1    0    0    0    0  0.00000000000E+00  0.00000000000E+00  0.54999999763E+01  0.55000000000E+01  0.51109989000E-03 0. -1.
     -623   -1    0    0    0    0  0.00000000000E+00  0.00000000000E+00  0.93234578044E-11  0.17124000000E+03  0.17124000000E+03 0. -1.
       11    1    1    2    0    0  0.13522104378E-01  0.82640219133E-02  0.32187377670E+00  0.32226406985E+00  0.51109989000E-03 0. -1.
     -623    1    1    2    0    0  0.27024700236E-01  0.14887964586E-01  0.77013127656E-03  0.17124000278E+03  0.17124000000E+03 0. -1.
     -611    1    1    2    0    0 -0.47520989522E-01 -0.13876053869E-01  0.45517933712E+01  0.45520626033E+01  0.51109989000E-03 0. -1.
      611    1    1    2    0    0  0.69741849085E-02 -0.92759326302E-02  0.62556269688E+00  0.62567054520E+00  0.51109989000E-03 0.  1.
</event>
<event>
 6   3  0.2312675E+03  0.9118800E+02  0.7818608E-02  0.1180000E+00
       11   -1    0    0    0    0  0.00000000000E+00  0.00000000000E+00  0.54999999763E+01  0.55000000000E+01  0.51109989000E-03 0.  1.
     -623   -1    0    0    0    0  0.00000000000E+00  0.00000000000E+00  0.93234578044E-11  0.17124000000E+03  0.17124000000E+03 0. -1.
       11    1    1    2    0    0  0.18955044274E-02 -0.54079456119E-02  0.80940105389E-02  0.99304099853E-02  0.51109989000E-03 0.  1.
     -623    1    1    2    0    0 -0.64612062480E-02  0.15895365042E-01  0.10331516683E-01  0.17124000117E+03  0.17124000000E+03 0. -1.
     -611    1    1    2    0    0 -0.88850124210E-01  0.15681305763E-01  0.53586622868E+00  0.54340880025E+00  0.51109989000E-03 0. -1.
      611    1    1    2    0    0  0.93415826031E-01 -0.26168725193E-01  0.49457082203E+01  0.49466596184E+01  0.51109989000E-03 0.  1.
</event>
<event>
 6   3  0.2312675E+03  0.9118800E+02  0.7818608E-02  0.1180000E+00
       11   -1    0    0    0    0  0.00000000000E+00  0.00000000000E+00  0.54999999763E+01  0.55000000000E+01  0.51109989000E-03 0.  1.
     -623   -1    0    0    0    0  0.00000000000E+00  0.00000000000E+00  0.93234578044E-11  0.17124000000E+03  0.17124000000E+03 0. -1.
       11    1    1    2    0    0 -0.12306521732E-01 -0.12937150243E-01  0.71086237477E-01  0.73296212149E-01  0.51109989000E-03 0.  1.
     -623    1    1    2    0    0  0.43023622878E-02 -0.32920006206E-02  0.34606631235E-02  0.17124000012E+03  0.17124000000E+03 0. -1.
     -611    1    1    2    0    0 -0.49507401099E-01  0.32452098565E-02  0.15297295020E+01  0.15305339345E+01  0.51109989000E-03 0. -1.
      611    1    1    2    0    0  0.57511560543E-01  0.12983941007E-01  0.38957235736E+01  0.38961697327E+01  0.51109989000E-03 0.  1.
</event>
<event>
 6   3  0.2312675E+03  0.9118800E+02  0.7818608E-02  0.1180000E+00
       11   -1    0    0    0    0  0.00000000000E+00  0.00000000000E+00  0.54999999763E+01  0.55000000000E+01  0.51109989000E-03 0.  1.
     -623   -1    0    0    0    0  0.00000000000E+00  0.00000000000E+00  0.93234578044E-11  0.17124000000E+03  0.17124000000E+03 0.  1.
       11    1    1    2    0    0  0.67723234747E-01  0.31844086101E-02  0.91748014327E+00  0.91998187564E+00  0.51109989000E-03 0.  1.
     -623    1    1    2    0    0  0.11695663776E-02  0.70170503716E-02  0.30315830133E-02  0.17124000017E+03  0.17124000000E+03 0.  1.
     -611    1    1    2    0    0 -0.23055246198E-01 -0.34316693049E-02  0.15506694146E+01  0.15508446780E+01  0.51109989000E-03 0.  1.
      611    1    1    2    0    0 -0.45837554880E-01 -0.67697896699E-02  0.30288188323E+01  0.30291732687E+01  0.51109989000E-03 0.  1.
</event>
<event>
 6   3  0.2312675E+03  0.9118800E+02  0.7818608E-02  0.1180000E+00
       11   -1    0    0    0    0  0.00000000000E+00  0.00000000000E+00  0.54999999763E+01  0.55000000000E+01  0.51109989000E-03 0. -1.
     -623   -1    0    0    0    0  0.00000000000E+00  0.00000000000E+00  0.93234578044E-11  0.17124000000E+03  0.17124000000E+03 0. -1.
       11    1    1    2    0    0 -0.73426403981E-03  0.30550103316E-02  0.40405896382E-01  0.40531098152E-01  0.51109989000E-03 0. -1.
     -623    1    1    2    0    0 -0.14216284419E-01  0.50898577647E-02  0.10628530105E-02  0.17124000067E+03  0.17124000000E+03 0. -1.
     -611    1    1    2    0    0 -0.30042068631E-01 -0.35848248899E-01  0.20959748647E+01  0.20964967249E+01  0.51109989000E-03 0. -1.
      611    1    1    2    0    0  0.44992617090E-01  0.27703380803E-01  0.33625563620E+01  0.33629715077E+01  0.51109989000E-03 0.  1.
</event>
<event>
 6   3  0.2312675E+03  0.9118800E+02  0.7818608E-02  0.1180000E+00
       11   -1    0    0    0    0  0.00000000000E+00  0.00000000000E+00  0.54999999763E+01  0.55000000000E+01  0.51109989000E-03 0. -1.
     -623   -1    0    0    0    0  0.00000000000E+00  0.00000000000E+00  0.93234578044E-11  0.17124000000E+03  0.17124000000E+03 0. -1.
       11    1    1    2    0    0  0.41465342686E-01  0.20928422718E-02  0.10848418765E+00  0.11615866230E+00  0.51109989000E-03 0. -1.
     -623    1    1    2    0    0  0.38242336692E-02  0.28612123653E-02  0.83435424337E-02  0.17124000027E+03  0.17124000000E+03 0. -1.
     -611    1    1    2    0    0 -0.64528379043E-01  0.96326905428E-03  0.42493045800E+01  0.42497946438E+01  0.51109989000E-03 0. -1.
      611    1    1    2    0    0  0.19238802687E-01 -0.59173236913E-02  0.11338676662E+01  0.11340464240E+01  0.51109989000E-03 0.  1.
</event>
<event>
 6   3  0.2312675E+03  0.9118800E+02  0.7818608E-02  0.1180000E+00
       11   -1    0    0    0    0  0.00000000000E+00  0.00000000000E+00  0.54999999763E+01  0.55000000000E+01  0.51109989000E-03 0.  1.
     -623   -1    0    0    0    0  0.00000000000E+00  0.00000000000E+00  0.93234578044E-11  0.17124000000E+03  0.17124000000E+03 0. -1.
       11    1    1    2    0    0  0.66888616768E-01  0.41878764941E-01  0.43752865878E+00  0.44458914346E+00  0.51109989000E-03 0.  1.
     -623    1    1    2    0    0 -0.10278275710E-01 -0.12445982857E-01  0.75395252030E-02  0.17124000093E+03  0.17124000000E+03 0. -1.
     -611    1    1    2    0    0 -0.11375043845E-01  0.51924168324E-02  0.84262780007E+00  0.84272072686E+00  0.51109989000E-03 0. -1.
      611    1    1    2    0    0 -0.45235297213E-01 -0.34625198916E-01  0.42123039922E+01  0.42126892029E+01  0.51109989000E-03 0.  1.
</event>
<event>
 6   3  0.2312675E+03  0.9118800E+02  0.7818608E-02  0.1180000E+00
       11   -1    0    0    0    0  0.00000000000E+00  0.00000000000E+00  0.54999999763E+01  0.55000000000E+01  0.51109989000E-03 0.  1.
     -623   -1    0    0    0    0  0.00000000000E+00  0.00000000000E+00  0.93234578044E-11  0.17124000000E+03  0.17124000000E+03 0. -1.
       11    1    1    2    0    0 -0.12137710171E-01  0.60500824107E-02  0.71795320950E+00  0.71808147154E+00  0.51109989000E-03 0.  1.
     -623    1    1    2    0    0  0.76383491649E-01  0.73216155212E-02  0.60628874462E-03  0.17124001719E+03  0.17124000000E+03 0. -1.
     -611    1    1    2    0    0 -0.15422613541E-01 -0.51837481010E-02  0.92690342029E+00  0.92704635268E+00  0.51109989000E-03 0. -1.
      611    1    1    2    0    0 -0.48823167958E-01 -0.81879498330E-02  0.38545370592E+01  0.38548549838E+01  0.51109989000E-03 0.  1.
</event>
<event>
 6   3  0.2312675E+03  0.9118800E+02  0.7818608E-02  0.1180000E+00
       11   -1    0    0    0    0  0.00000000000E+00  0.00000000000E+00  0.54999999763E+01  0.55000000000E+01  0.51109989000E-03 0. -1.
     -623   -1    0    0    0    0  0.00000000000E+00  0.00000000000E+00  0.93234578044E-11  0.17124000000E+03  0.17124000000E+03 0. -1.
       11    1    1    2    0    0 -0.80078608790E-02 -0.10614824156E-01  0.93943747335E+00  0.93953170670E+00  0.51109989000E-03 0. -1.
     -623    1    1    2    0    0 -0.52255179897E-03  0.60773268136E-03  0.65637421197E-03  0.17124000000E+03  0.17124000000E+03 0. -1.
     -611    1    1    2    0    0  0.39215306117E-01  0.80871286644E-02  0.22332257187E+01  0.22335847004E+01  0.51109989000E-03 0. -1.
      611    1    1    2    0    0 -0.30684893439E-01  0.19199628105E-02  0.23266804100E+01  0.23268835898E+01  0.51109989000E-03 0.  1.
</event>
<event>
 6   3  0.2312675E+03  0.9118800E+02  0.7818608E-02  0.1180000E+00
       11   -1    0    0    0    0  0.00000000000E+00  0.00000000000E+00  0.54999999763E+01  0.55000000000E+01  0.51109989000E-03 0. -1.
     -623   -1    0    0    0    0  0.00000000000E+00  0.00000000000E+00  0.93234578044E-11  0.17124000000E+03  0.17124000000E+03 0. -1.
       11    1    1    2    0    0  0.55250480965E-02 -0.60653887406E-02  0.18588650026E-01  0.20325211682E-01  0.51109989000E-03 0. -1.
     -623    1    1    2    0    0  0.10472975337E-01  0.13854124655E-01  0.51220597494E-02  0.17124000096E+03  0.17124000000E+03 0. -1.
     -611    1    1    2    0    0  0.26096120825E-01  0.80169181490E-01  0.16607720340E+01  0.16629107358E+01  0.51109989000E-03 0.  1.
      611    1    1    2    0    0 -0.42094144259E-01 -0.87957917404E-01  0.38155172326E+01  0.38167630953E+01  0.51109989000E-03 0. -1.
</event>
<event>
 6   3  0.2312675E+03  0.9118800E+02  0.7818608E-02  0.1180000E+00
       11   -1    0    0    0    0  0.00000000000E+00  0.00000000000E+00  0.54999999763E+01  0.55000000000E+01  0.51109989000E-03 0.  1.
     -623   -1    0    0    0    0  0.00000000000E+00  0.00000000000E+00  0.93234578044E-11  0.17124000000E+03  0.17124000000E+03 0.  1.
       11    1    1    2    0    0 -0.65007920157E-02 -0.29141247493E-02  0.14498855528E-01  0.16162625239E-01  0.51109989000E-03 0.  1.
     -623    1    1    2    0    0  0.98126705901E-02  0.23512485300E-02  0.29236395298E-02  0.17124000032E+03  0.17124000000E+03 0.  1.
     -611    1    1    2    0    0 -0.56564145939E-01 -0.12663016908E-01  0.35771267650E+01  0.35775964010E+01  0.51109989000E-03 0. -1.
      611    1    1    2    0    0  0.53252267365E-01  0.13225893127E-01  0.19054507162E+01  0.19062406515E+01  0.51109989000E-03 0.  1.
</event>
<event>
 6   3  0.2312675E+03  0.9118800E+02  0.7818608E-02  0.1180000E+00
       11   -1    0    0    0    0  0.00000000000E+00  0.00000000000E+00  0.54999999763E+01  0.55000000000E+01  0.51109989000E-03 0. -1.
     -623   -1    0    0    0    0  0.00000000000E+00  0.00000000000E+00  0.93234578044E-11  0.17124000000E+03  0.17124000000E+03 0.  1.
       11    1    1    2    0    0  0.38829665911E-02  0.14471883139E-02  0.45152988776E+00  0.45154919172E+00  0.51109989000E-03 0. -1.
     -623    1    1    2    0    0 -0.72197516599E-02 -0.45957814351E-03  0.15638369280E-02  0.17124000016E+03  0.17124000000E+03 0.  1.
     -611    1    1    2    0    0  0.55819767373E-01 -0.85299490935E-03  0.13266528643E+01  0.13278270436E+01  0.51109989000E-03 0.  1.
      611    1    1    2    0    0 -0.52482982304E-01 -0.13461526108E-03  0.37202533872E+01  0.37206236047E+01  0.51109989000E-03 0. -1.
</event>
<event>
 6   3  0.2312675E+03  0.9118800E+02  0.7818608E-02  0.1180000E+00
       11   -1    0    0    0    0  0.00000000000E+00  0.00000000000E+00  0.54999999763E+01  0.55000000000E+01  0.51109989000E-03 0.  1.
     -623   -1    0    0    0    0  0.00000000000E+00  0.00000000000E+00  0.93234578044E-11  0.17124000000E+03  0.17124000000E+03 0. -1.
       11    1    1    2    0    0 -0.83261854097E-01 -0.10081892939E-01  0.90729528159E+00  0.91116363521E+00  0.51109989000E-03 0.  1.
     -623    1    1    2    0    0 -0.56518484801E-02 -0.40248231162E-02  0.47551035462E-02  0.17124000021E+03  0.17124000000E+03 0. -1.
     -611    1    1    2    0    0  0.70728625193E-01  0.92085507468E-02  0.36775821310E+01  0.36782737701E+01  0.51109989000E-03 0.  1.
      611    1    1    2    0    0  0.18185077381E-01  0.48981653077E-02  0.91036746000E+00  0.91056238804E+00  0.51109989000E-03 0. -1.
</event>
<event>
 6   3  0.2312675E+03  0.9118800E+02  0.7818608E-02  0.1180000E+00
       11   -1    0    0    0    0  0.00000000000E+00  0.00000000000E+00  0.54999999763E+01  0.55000000000E+01  0.51109989000E-03 0. -1.
     -623   -1    0    0    0    0  0.00000000000E+00  0.00000000000E+00  0.93234578044E-11  0.17124000000E+03  0.17124000000E+03 0.  1.
       11    1    1    2    0    0 -0.66784087613E-01 -0.46888812622E-01  0.84293543233E+00  0.84687607086E+00  0.51109989000E-03 0. -1.
     -623    1    1    2    0    0 -0.22987386008E-01 -0.19065868916E-01  0.52787174867E-02  0.17124000269E+03  0.17124000000E+03 0.  1.
     -611    1    1    2    0    0  0.79241852325E-01  0.56846414757E-01  0.40953255439E+01  0.40964865870E+01  0.51109989000E-03 0. -1.
      611    1    1    2    0    0  0.10529621298E-01  0.91082667821E-02  0.55646028268E+00  0.55663465655E+00  0.51109989000E-03 0. -1.
</event>
<event>
 6   3  0.2312675E+03  0.9118800E+02  0.7818608E-02  0.1180000E+00
       11   -1    0    0    0    0  0.00000000000E+00  0.00000000000E+00  0.54999999763E+01  0.55000000000E+01  0.51109989000E-03 0.  1.
     -623   -1    0    0    0    0  0.00000000000E+00  0.00000000000E+00  0.93234578044E-11  0.17124000000E+03  0.17124000000E+03 0.  1.
       11    1    1    2    0    0  0.44163975957E-01 -0.15346355784E-01  0.94929759260E+00  0.95044839310E+00  0.51109989000E-03 0.  1.
     -623    1    1    2    0    0  0.27262206268E-02  0.22440111853E-03  0.14178591629E-02  0.17124000003E+03  0.17124000000E+03 0.  1.
     -611    1    1    2    0    0 -0.20900782386E-01  0.62527826275E-02  0.19790038090E+01  0.19791241187E+01  0.51109989000E-03 0. -1.
      611    1    1    2    0    0 -0.25989414190E-01  0.88691720351E-02  0.25702807147E+01  0.25704274597E+01  0.51109989000E-03 0.  1.
</event>
<event>
 6   3  0.2312675E+03  0.9118800E+02  0.7818608E-02  0.1180000E+00
       11   -1    0    0    0    0  0.00000000000E+00  0.00000000000E+00  0.54999999763E+01  0.55000000000E+01  0.51109989000E-03 0. -1.
     -623   -1    0    0    0    0  0.00000000000E+00  0.00000000000E+00  0.93234578044E-11  0.17124000000E+03  0.17124000000E+03 0. -1.
       11    1    1    2    0    0 -0.60464239627E-01  0.11233400293E-01  0.69995065188E+00  0.70264734387E+00  0.51109989000E-03 0. -1.
     -623    1    1    2    0    0 -0.23231839068E-02 -0.27061926205E-01  0.31360231324E-02  0.17124000218E+03  0.17124000000E+03 0. -1.
     -611    1    1    2    0    0  0.34124649787E-01  0.88793936293E-02  0.25956297875E+01  0.25958693323E+01  0.51109989000E-03 0. -1.
      611    1    1    2    0    0  0.28662773840E-01  0.69491323069E-02  0.22012835209E+01  0.22014811481E+01  0.51109989000E-03 0.  1.
</event>
<event>
 6   3  0.2312675E+03  0.9118800E+02  0.7818608E-02  0.1180000E+00
       11   -1    0    0    0    0  0.00000000000E+00  0.00000000000E+00  0.54999999763E+01  0.55000000000E+01  0.51109989000E-03 0. -1.
     -623   -1    0    0    0    0  0.00000000000E+00  0.00000000000E+00  0.93234578044E-11  0.17124000000E+03  0.17124000000E+03 0.  1.
       11    1    1    2    0    0 -0.16832339638E-02 -0.44402728910E-02  0.19349661208E-01  0.19930376612E-01  0.51109989000E-03 0. -1.
     -623    1    1    2    0    0  0.28688008640E-02  0.59650121401E-02  0.13676784277E-02  0.17124000013E+03  0.17124000000E+03 0.  1.
     -611    1    1    2    0    0 -0.46503074417E-01  0.48060484479E-03  0.23741835299E+01  0.23746390171E+01  0.51109989000E-03 0.  1.
      611    1    1    2    0    0  0.45317507517E-01 -0.20053440938E-02  0.31050991067E+01  0.31054304728E+01  0.51109989000E-03 0. -1.
</event>
<event>
 6   3  0.2312675E+03  0.9118800E+02  0.7818608E-02  0.1180000E+00
       11   -1    0    0    0    0  0.00000000000E+00  0.00000000000E+00  0.54999999763E+01  0.55000000000E+01  0.51109989000E-03 0. -1.
     -623   -1    0    0    0    0  0.00000000000E+00  0.00000000000E+00  0.93234578044E-11  0.17124000000E+03  0.17124000000E+03 0. -1.
       11    1    1    2    0    0  0.76162765682E-02  0.71989667331E-02  0.79944474326E-01  0.80630099771E-01  0.51109989000E-03 0. -1.
     -623    1    1    2    0    0 -0.56766231295E-04  0.63824471194E-03  0.10010833174E-02  0.17124000000E+03  0.17124000000E+03 0. -1.
     -611    1    1    2    0    0  0.23999127581E-01  0.47222651973E-02  0.23684137290E+01  0.23685400801E+01  0.51109989000E-03 0.  1.
      611    1    1    2    0    0 -0.31558637918E-01 -0.12559476642E-01  0.30506406895E+01  0.30508298160E+01  0.51109989000E-03 0. -1.
</event>
<event>
 6   3  0.2312675E+03  0.9118800E+02  0.7818608E-02  0.1180000E+00
       11   -1    0    0    0    0  0.00000000000E+00  0.00000000000E+00  0.54999999763E+01  0.55000000000E+01  0.51109989000E-03 0. -1.
     -623   -1    0    0    0    0  0.00000000000E+00  0.00000000000E+00  0.93234578044E-11  0.17124000000E+03  0.17124000000E+03 0.  1.
       11    1    1    2    0    0 -0.10408052200E-01  0.43688707093E-02  0.68049230646E+00  0.68058611135E+00  0.51109989000E-03 0. -1.
     -623    1    1    2    0    0  0.74157046727E-01 -0.13438714786E-01  0.54228331096E-03  0.17124001659E+03  0.17124000000E+03 0.  1.
     -611    1    1    2    0    0 -0.47076462861E-01  0.75032154766E-02  0.36765419785E+01  0.36768510539E+01  0.51109989000E-03 0. -1.
      611    1    1    2    0    0 -0.16672531439E-01  0.15666285583E-02  0.11424233911E+01  0.11425462325E+01  0.51109989000E-03 0.  1.
</event>
<event>
 6   3  0.2312675E+03  0.9118800E+02  0.7818608E-02  0.1180000E+00
       11   -1    0    0    0    0  0.00000000000E+00  0.00000000000E+00  0.54999999763E+01  0.55000000000E+01  0.51109989000E-03 0.  1.
     -623   -1    0    0    0    0  0.00000000000E+00  0.00000000000E+00  0.93234578044E-11  0.17124000000E+03  0.17124000000E+03 0. -1.
       11    1    1    2    0    0  0.36216709616E-01  0.10880153629E-01  0.70047691748E+00  0.70149711400E+00  0.51109989000E-03 0.  1.
     -623    1    1    2    0    0  0.18102884512E-01 -0.50625177012E-02  0.13331246255E-02  0.17124000104E+03  0.17124000000E+03 0. -1.
     -611    1    1    2    0    0 -0.19584369079E-01 -0.11980439835E-02  0.18105521970E+01  0.18106585825E+01  0.51109989000E-03 0.  1.
      611    1    1    2    0    0 -0.34735225061E-01 -0.46195919453E-02  0.29876377382E+01  0.29878432677E+01  0.51109989000E-03 0.  1.
</event>
<event>
 6   3  0.2312675E+03  0.9118800E+02  0.7818608E-02  0.1180000E+00
       11   -1    0    0    0    0  0.00000000000E+00  0.00000000000E+00  0.54999999763E+01  0.55000000000E+01  0.51109989000E-03 0.  1.
     -623   -1    0    0    0    0  0.00000000000E+00  0.00000000000E+00  0.93234578044E-11  0.17124000000E+03  0.17124000000E+03 0. -1.
       11    1    1    2    0    0 -0.20732249403E-03 -0.45960976598E-03  0.24941728076E-02  0.25954469452E-02  0.51109989000E-03 0.  1.
     -623    1    1    2    0    0  0.18715560819E-02  0.13762036493E-03  0.56199788778E-03  0.17124000001E+03  0.17124000000E+03 0. -1.
     -611    1    1    2    0    0  0.34047512542E-01  0.64266873025E-02  0.29339517495E+01  0.29341563804E+01  0.51109989000E-03 0. -1.
      611    1    1    2    0    0 -0.35711746129E-01 -0.61046979015E-02  0.25629920558E+01  0.25632481612E+01  0.51109989000E-03 0.  1.
</event>
<event>
 6   3  0.2312675E+03  0.9118800E+02  0.7818608E-02  0.1180000E+00
       11   -1    0    0    0    0  0.00000000000E+00  0.00000000000E+00  0.54999999763E+01  0.55000000000E+01  0.51109989000E-03 0. -1.
     -623   -1    0    0    0    0  0.00000000000E+00  0.00000000000E+00  0.93234578044E-11  0.17124000000E+03  0.17124000000E+03 0.  1.
       11    1    1    2    0    0 -0.86729158456E-02  0.67077649921E-02  0.11618871226E+00  0.11670600524E+00  0.51109989000E-03 0. -1.
     -623    1    1    2    0    0  0.47713789283E-02 -0.91924991176E-03  0.94240244835E-03  0.17124000007E+03  0.17124000000E+03 0.  1.
     -611    1    1    2    0    0  0.34735945785E-01 -0.26312275937E-02  0.34574367426E+01  0.34576122686E+01  0.51109989000E-03 0.  1.
      611    1    1    2    0    0 -0.30834408867E-01 -0.31572874866E-02  0.19254321190E+01  0.19256816547E+01  0.51109989000E-03 0. -1.
</event>
<event>
 6   3  0.2312675E+03  0.9118800E+02  0.7818608E-02  0.1180000E+00
       11   -1    0    0    0    0  0.00000000000E+00  0.00000000000E+00  0.54999999763E+01  0.55000000000E+01  0.51109989000E-03 0.  1.
     -623   -1    0    0    0    0  0.00000000000E+00  0.00000000000E+00  0.93234578044E-11  0.17124000000E+03  0.17124000000E+03 0.  1.
       11    1    1    2    0    0  0.45561203681E-01  0.21118278956E-02  0.92211678864E+00  0.92324423433E+00  0.51109989000E-03 0.  1.
     -623    1    1    2    0    0  0.32769296274E-01  0.61560611827E-02  0.18091421132E-02  0.17124000326E+03  0.17124000000E+03 0.  1.
     -611    1    1    2    0    0 -0.42119219958E-01 -0.44706978224E-02  0.23972271607E+01  0.23976013716E+01  0.51109989000E-03 0.  1.
      611    1    1    2    0    0 -0.36211280000E-01 -0.37971912562E-02  0.21788468849E+01  0.21791511385E+01  0.51109989000E-03 0.  1.
</event>
<event>
 6   3  0.3962311E+03  0.9118800E+02  0.7818608E-02  0.1180000E+00
       11   -1    0    0    0    0  0.00000000000E+00  0.00000000000E+00  0.54999999763E+01  0.55000000000E+01  0.51109989000E-03 0. -1.
     -623   -1    0    0    0    0  0.00000000000E+00  0.00000000000E+00  0.93234578044E-11  0.17124000000E+03  0.17124000000E+03 0.  1.
       11    1    1    2    0    0  0.10575997492E-02 -0.21601975131E-02  0.26767107641E-02  0.36346903771E-02  0.51109989000E-03 0. -1.
     -623    1    1    2    0    0 -0.21797861012E-02  0.34864683051E-02  0.23711199615E-02  0.17124000007E+03  0.17124000000E+03 0.  1.
     -611    1    1    2    0    0 -0.46667007838E-01  0.12420106865E-01  0.44195878932E+01  0.44198517482E+01  0.51109989000E-03 0. -1.
      611    1    1    2    0    0  0.47789194190E-01 -0.13746377657E-01  0.10753642524E+01  0.10765134957E+01  0.51109989000E-03 0.  1.
</event>
<event>
 6   3  0.2312675E+03  0.9118800E+02  0.7818608E-02  0.1180000E+00
       11   -1    0    0    0    0  0.00000000000E+00  0.00000000000E+00  0.54999999763E+01  0.55000000000E+01  0.51109989000E-03 0.  1.
     -623   -1    0    0    0    0  0.00000000000E+00  0.00000000000E+00  0.93234578044E-11  0.17124000000E+03  0.17124000000E+03 0.  1.
       11    1    1    2    0    0  0.12976173278E-01  0.53001623554E-02  0.38655637114E-01  0.41121676738E-01  0.51109989000E-03 0.  1.
     -623    1    1    2    0    0 -0.73213842642E-03  0.30971297750E-02  0.31430220570E-02  0.17124000006E+03  0.17124000000E+03 0.  1.
     -611    1    1    2    0    0 -0.40337213539E-01 -0.29896569594E-01  0.34491351115E+01  0.34495005688E+01  0.51109989000E-03 0.  1.
      611    1    1    2    0    0  0.28093178687E-01  0.21499277463E-01  0.20090662056E+01  0.20093776960E+01  0.51109989000E-03 0. -1.
</event>
<event>
 6   3  0.4334679E+03  0.9118800E+02  0.7818608E-02  0.1180000E+00
       11   -1    0    0    0    0  0.00000000000E+00  0.00000000000E+00  0.54999999763E+01  0.55000000000E+01  0.51109989000E-03 0.  1.
     -623   -1    0    0    0    0  0.00000000000E+00  0.00000000000E+00  0.93234578044E-11  0.17124000000E+03  0.17124000000E+03 0. -1.
       11    1    1    2    0    0  0.54113699228E-02 -0.15610378489E+00  0.23091424797E+00  0.27878186045E+00  0.51109989000E-03 0.  1.
     -623    1    1    2    0    0 -0.62711805676E-01  0.13632801915E+00  0.48298202928E-01  0.17124007256E+03  0.17124000000E+03 0. -1.
     -611    1    1    2    0    0  0.13857169953E-01  0.78962936384E-02  0.12125645256E+01  0.12126695192E+01  0.51109989000E-03 0. -1.
      611    1    1    2    0    0  0.43443265799E-01  0.11879472099E-01  0.40082229996E+01  0.40084760589E+01  0.51109989000E-03 0.  1.
</event>
<event>
 6   3  0.2312675E+03  0.9118800E+02  0.7818608E-02  0.1180000E+00
       11   -1    0    0    0    0  0.00000000000E+00  0.00000000000E+00  0.54999999763E+01  0.55000000000E+01  0.51109989000E-03 0. -1.
     -623   -1    0    0    0    0  0.00000000000E+00  0.00000000000E+00  0.93234578044E-11  0.17124000000E+03  0.17124000000E+03 0. -1.
       11    1    1    2    0    0 -0.17204617176E-01  0.80782976839E-02  0.77155986749E+00  0.77179410990E+00  0.51109989000E-03 0. -1.
     -623    1    1    2    0    0  0.69544450329E-01  0.16503987203E-01  0.60306811642E-03  0.17124001492E+03  0.17124000000E+03 0. -1.
     -611    1    1    2    0    0 -0.42825844531E-01 -0.20573737059E-01  0.38744930773E+01  0.38747844068E+01  0.51109989000E-03 0. -1.
      611    1    1    2    0    0 -0.95139886813E-02 -0.40085478539E-02  0.85334396859E+00  0.85340657039E+00  0.51109989000E-03 0. -1.
</event>
<event>
 6   3  0.2312675E+03  0.9118800E+02  0.7818608E-02  0.1180000E+00
       11   -1    0    0    0    0  0.00000000000E+00  0.00000000000E+00  0.54999999763E+01  0.55000000000E+01  0.51109989000E-03 0. -1.
     -623   -1    0    0    0    0  0.00000000000E+00  0.00000000000E+00  0.93234578044E-11  0.17124000000E+03  0.17124000000E+03 0.  1.
       11    1    1    2    0    0  0.32105665046E-02 -0.12148034243E-01  0.50957832381E+00  0.50973347133E+00  0.51109989000E-03 0. -1.
     -623    1    1    2    0    0 -0.22653380584E-02 -0.19452876591E-02  0.81209193504E-03  0.17124000003E+03  0.17124000000E+03 0.  1.
     -611    1    1    2    0    0 -0.35631909669E-01 -0.77642024164E-02  0.30854100478E+01  0.30856255995E+01  0.51109989000E-03 0. -1.
      611    1    1    2    0    0  0.34686681222E-01  0.21857524318E-01  0.19041995125E+01  0.19046409011E+01  0.51109989000E-03 0.  1.
</event>
<event>
 6   3  0.2312675E+03  0.9118800E+02  0.7818608E-02  0.1180000E+00
       11   -1    0    0    0    0  0.00000000000E+00  0.00000000000E+00  0.54999999763E+01  0.55000000000E+01  0.51109989000E-03 0.  1.
     -623   -1    0    0    0    0  0.00000000000E+00  0.00000000000E+00  0.93234578044E-11  0.17124000000E+03  0.17124000000E+03 0. -1.
       11    1    1    2    0    0  0.23283473552E-02 -0.69362502146E-03  0.97209209967E-02  0.10032938014E-01  0.51109989000E-03 0.  1.
     -623    1    1    2    0    0 -0.23718440524E-02  0.11202440008E-02  0.99437885227E-03  0.17124000002E+03  0.17124000000E+03 0. -1.
     -611    1    1    2    0    0  0.37416976416E-01  0.21201585246E-01  0.29901165552E+01  0.29904258580E+01  0.51109989000E-03 0.  1.
      611    1    1    2    0    0 -0.37373479719E-01 -0.21628204225E-01  0.24991681212E+01  0.24995411810E+01  0.51109989000E-03 0. -1.
</event>
<event>
 6   3  0.2312675E+03  0.9118800E+02  0.7818608E-02  0.1180000E+00
       11   -1    0    0    0    0  0.00000000000E+00  0.00000000000E+00  0.54999999763E+01  0.55000000000E+01  0.51109989000E-03 0. -1.
     -623   -1    0    0    0    0  0.00000000000E+00  0.00000000000E+00  0.93234578044E-11  0.17124000000E+03  0.17124000000E+03 0. -1.
       11    1    1    2    0    0  0.60115207553E-03 -0.47282186140E-03  0.40436695340E-03  0.10048283739E-02  0.51109989000E-03 0. -1.
     -623    1    1    2    0    0 -0.20971796912E-03  0.67362198766E-02  0.19817779289E-02  0.17124000014E+03  0.17124000000E+03 0. -1.
     -611    1    1    2    0    0  0.59644261539E-01  0.86034872714E-02  0.30846103383E+01  0.30851989658E+01  0.51109989000E-03 0. -1.
      611    1    1    2    0    0 -0.60035695645E-01 -0.14866885287E-01  0.24130034931E+01  0.24137960618E+01  0.51109989000E-03 0.  1.
</event>
<event>
 6   3  0.2312675E+03  0.9118800E+02  0.7818608E-02  0.1180000E+00
       11   -1    0    0    0    0  0.00000000000E+00  0.00000000000E+00  0.54999999763E+01  0.55000000000E+01  0.51109989000E-03 0.  1.
     -623   -1    0    0    0    0  0.00000000000E+00  0.00000000000E+00  0.93234578044E-11  0.17124000000E+03  0.17124000000E+03 0. -1.
       11    1    1    2    0    0  0.10038277960E-01 -0.20414922700E-01  0.10644841314E+01  0.10647273188E+01  0.51109989000E-03 0.  1.
     -623    1    1    2    0    0  0.45912098997E-01 -0.82379143843E-02  0.73524415002E-03  0.17124000635E+03  0.17124000000E+03 0. -1.
     -611    1    1    2    0    0 -0.17648908454E-01  0.40000615636E-04  0.13431912610E+01  0.13433073031E+01  0.51109989000E-03 0. -1.
      611    1    1    2    0    0 -0.38301468506E-01  0.28612836469E-01  0.30915893400E+01  0.30919590239E+01  0.51109989000E-03 0.  1.
</event>
<event>
 6   3  0.2312675E+03  0.9118800E+02  0.7818608E-02  0.1180000E+00
       11   -1    0    0    0    0  0.00000000000E+00  0.00000000000E+00  0.54999999763E+01  0.55000000000E+01  0.51109989000E-03 0.  1.
     -623   -1    0    0    0    0  0.00000000000E+00  0.00000000000E+00  0.93234578044E-11  0.17124000000E+03  0.17124000000E+03 0. -1.
       11    1    1    2    0    0 -0.23294997569E-01 -0.21991162202E-03  0.52702680994E+00  0.52754168071E+00  0.51109989000E-03 0.  1.
     -623    1    1    2    0    0  0.11704061196E-02 -0.29542510044E-02  0.18891057371E-02  0.17124000004E+03  0.17124000000E+03 0. -1.
     -611    1    1    2    0    0  0.53539646664E-01 -0.29222781136E-01  0.38244813858E+01  0.38249677902E+01  0.51109989000E-03 0.  1.
      611    1    1    2    0    0 -0.31415055214E-01  0.32396943762E-01  0.11466026748E+01  0.11474904892E+01  0.51109989000E-03 0. -1.
</event>
<event>
 6   3  0.2312675E+03  0.9118800E+02  0.7818608E-02  0.1180000E+00
       11   -1    0    0    0    0  0.00000000000E+00  0.00000000000E+00  0.54999999763E+01  0.55000000000E+01  0.51109989000E-03 0.  1.
     -623   -1    0    0    0    0  0.00000000000E+00  0.00000000000E+00  0.93234578044E-11  0.17124000000E+03  0.17124000000E+03 0.  1.
       11    1    1    2    0    0  0.15127940089E-01 -0.10438666473E-01  0.50420701855E-01  0.53668694112E-01  0.51109989000E-03 0.  1.
     -623    1    1    2    0    0  0.64094707591E-01  0.11417498820E-01  0.44452940315E-02  0.17124001243E+03  0.17124000000E+03 0.  1.
     -611    1    1    2    0    0 -0.61368508899E-01  0.27354872044E-01  0.46426941146E+01  0.46431802987E+01  0.51109989000E-03 0.  1.
      611    1    1    2    0    0 -0.17854138782E-01 -0.28333704392E-01  0.80243986575E+00  0.80313857363E+00  0.51109989000E-03 0. -1.
</event>
<event>
 6   3  0.2312675E+03  0.9118800E+02  0.7818608E-02  0.1180000E+00
       11   -1    0    0    0    0  0.00000000000E+00  0.00000000000E+00  0.54999999763E+01  0.55000000000E+01  0.51109989000E-03 0.  1.
     -623   -1    0    0    0    0  0.00000000000E+00  0.00000000000E+00  0.93234578044E-11  0.17124000000E+03  0.17124000000E+03 0. -1.
       11    1    1    2    0    0 -0.32561302956E-01 -0.13698121141E-01  0.17610583343E+00  0.17961459507E+00  0.51109989000E-03 0.  1.
     -623    1    1    2    0    0 -0.18508621773E-01 -0.13578056822E-01  0.43972151845E-02  0.17124000160E+03  0.17124000000E+03 0. -1.
     -611    1    1    2    0    0 -0.19565608583E-01 -0.15509312164E-02  0.14683215907E+01  0.14684528502E+01  0.51109989000E-03 0. -1.
      611    1    1    2    0    0  0.70635533312E-01  0.28827109180E-01  0.38511753369E+01  0.38519309596E+01  0.51109989000E-03 0.  1.
</event>
<event>
 6   3  0.2312675E+03  0.9118800E+02  0.7818608E-02  0.1180000E+00
       11   -1    0    0    0    0  0.00000000000E+00  0.00000000000E+00  0.54999999763E+01  0.55000000000E+01  0.51109989000E-03 0.  1.
     -623   -1    0    0    0    0  0.00000000000E+00  0.00000000000E+00  0.93234578044E-11  0.17124000000E+03  0.17124000000E+03 0. -1.
       11    1    1    2    0    0 -0.34870043780E-01 -0.76063104367E-01  0.85279786591E+00  0.85689321220E+00  0.51109989000E-03 0.  1.
     -623    1    1    2    0    0 -0.13738574777E-01 -0.12979929735E-01  0.52115218674E-02  0.17124000112E+03  0.17124000000E+03 0. -1.
     -611    1    1    2    0    0  0.43321950765E-01  0.76748213258E-01  0.41272051823E+01  0.41281460678E+01  0.51109989000E-03 0.  1.
      611    1    1    2    0    0  0.52866677931E-02  0.12294820845E-01  0.51478540626E+00  0.51495959764E+00  0.51109989000E-03 0. -1.
</event>
<event>
 6   3  0.2312675E+03  0.9118800E+02  0.7818608E-02  0.1180000E+00
       11   -1    0    0    0    0  0.00000000000E+00  0.00000000000E+00  0.54999999763E+01  0.55000000000E+01  0.51109989000E-03 0. -1.
     -623   -1    0    0    0    0  0.00000000000E+00  0.00000000000E+00  0.93234578044E-11  0.17124000000E+03  0.17124000000E+03 0.  1.
       11    1    1    2    0    0 -0.65753993630E-02  0.13026346954E-02  0.68045822131E+00  0.68049142897E+00  0.51109989000E-03 0. -1.
     -623    1    1    2    0    0  0.61581865266E-01 -0.15988593679E-01  0.38162689471E-03  0.17124001182E+03  0.17124000000E+03 0.  1.
     -611    1    1    2    0    0 -0.20089669285E-01  0.59121688623E-02  0.18108095430E+01  0.18109307029E+01  0.51109989000E-03 0. -1.
      611    1    1    2    0    0 -0.34916795995E-01  0.87737899595E-02  0.30083505295E+01  0.30085659926E+01  0.51109989000E-03 0. -1.
</event>
<event>
 6   3  0.2312675E+03  0.9118800E+02  0.7818608E-02  0.1180000E+00
       11   -1    0    0    0    0  0.00000000000E+00  0.00000000000E+00  0.54999999763E+01  0.55000000000E+01  0.51109989000E-03 0.  1.
     -623   -1    0    0    0    0  0.00000000000E+00  0.00000000000E+00  0.93234578044E-11  0.17124000000E+03  0.17124000000E+03 0. -1.
       11    1    1    2    0    0  0.50840727561E-01 -0.22601477696E-01  0.41245033429E+00  0.41618643160E+00  0.51109989000E-03 0.  1.
     -623    1    1    2    0    0  0.42379898974E-02  0.38297105470E-03  0.40833737961E-02  0.17124000010E+03  0.17124000000E+03 0. -1.
     -611    1    1    2    0    0 -0.15716424497E-01  0.57747586686E-02  0.14216855703E+01  0.14217842579E+01  0.51109989000E-03 0.  1.
      611    1    1    2    0    0 -0.39362292908E-01  0.16443747951E-01  0.36617806929E+01  0.36620292041E+01  0.51109989000E-03 0. -1.
</event>
<event>
 6   3  0.2312675E+03  0.9118800E+02  0.7818608E-02  0.1180000E+00
       11   -1    0    0    0    0  0.00000000000E+00  0.00000000000E+00  0.54999999763E+01  0.55000000000E+01  0.51109989000E-03 0. -1.
     -623   -1    0    0    0    0  0.00000000000E+00  0.00000000000E+00  0.93234578044E-11  0.17124000000E+03  0.17124000000E+03 0.  1.
       11    1    1    2    0    0 -0.34903932708E-01 -0.16830171970E-01  0.30209027373E+00  0.30456581212E+00  0.51109989000E-03 0. -1.
     -623    1    1    2    0    0  0.12823062910E-01  0.30573552216E-01  0.39739691964E-02  0.17124000326E+03  0.17124000000E+03 0.  1.
     -611    1    1    2    0    0  0.68653600386E-01 -0.21039544780E-01  0.38477299888E+01  0.38483999672E+01  0.51109989000E-03 0. -1.
      611    1    1    2    0    0 -0.46572730588E-01  0.72961645335E-02  0.13462057445E+01  0.13470309651E+01  0.51109989000E-03 0.  1.
</event>
<event>
 6   3  0.2312675E+03  0.9118800E+02  0.7818608E-02  0.1180000E+00
       11   -1    0    0    0    0  0.00000000000E+00  0.00000000000E+00  0.54999999763E+01  0.55000000000E+01  0.51109989000E-03 0. -1.
     -623   -1    0    0    0    0  0.00000000000E+00  0.00000000000E+00  0.93234578044E-11  0.17124000000E+03  0.17124000000E+03 0. -1.
       11    1    1    2    0    0  0.69374107245E-01 -0.25978337744E-01  0.10907107828E+01  0.10932236339E+01  0.51109989000E-03 0. -1.
     -623    1    1    2    0    0 -0.14495816695E-01 -0.31575027943E-01  0.32559905869E-02  0.17124000356E+03  0.17124000000E+03 0. -1.
     -611    1    1    2    0    0 -0.37019320983E-01  0.41708176463E-01  0.27308946667E+01  0.27314640660E+01  0.51109989000E-03 0. -1.
      611    1    1    2    0    0 -0.17858969568E-01  0.15845189224E-01  0.16751385363E+01  0.16753087446E+01  0.51109989000E-03 0.  1.
</event>
<event>
 6   3  0.2312675E+03  0.9118800E+02  0.7818608E-02  0.1180000E+00
       11   -1    0    0    0    0  0.00000000000E+00  0.00000000000E+00  0.54999999763E+01  0.55000000000E+01  0.51109989000E-03 0.  1.
     -623   -1    0    0    0    0  0.00000000000E+00  0.00000000000E+00  0.93234578044E-11  0.17124000000E+03  0.17124000000E+03 0. -1.
       11    1    1    2    0    0  0.32468034491E-02 -0.59695685985E-02  0.27026107044E+00  0.27034697131E+00  0.51109989000E-03 0.  1.
     -623    1    1    2    0    0 -0.10260498489E-04 -0.31777797165E-02  0.11428062470E-02  0.17124000003E+03  0.17124000000E+03 0. -1.
     -611    1    1    2    0    0  0.45733030127E-01  0.11124351567E-01  0.15088109017E+01  0.15095449180E+01  0.51109989000E-03 0. -1.
      611    1    1    2    0    0 -0.48969573078E-01 -0.19770032522E-02  0.37197851978E+01  0.37201080773E+01  0.51109989000E-03 0.  1.
</event>
<event>
 6   3  0.2312675E+03  0.9118800E+02  0.7818608E-02  0.1180000E+00
       11   -1    0    0    0    0  0.00000000000E+00  0.00000000000E+00  0.54999999763E+01  0.55000000000E+01  0.51109989000E-03 0.  1.
     -623   -1    0    0    0    0  0.00000000000E+00  0.00000000000E+00  0.93234578044E-11  0.17124000000E+03  0.17124000000E+03 0. -1.
       11    1    1    2    0    0  0.74305351502E-01  0.22295898497E-01  0.84785838278E+00  0.85140031173E+00  0.51109989000E-03 0.  1.
     -623    1    1    2    0    0  0.40358240443E-02  0.11801869674E-01  0.43279081475E-02  0.17124000051E+03  0.17124000000E+03 0. -1.
     -611    1    1    2    0    0 -0.27957590192E-01 -0.12441036180E-01  0.16891256969E+01  0.16894029381E+01  0.51109989000E-03 0.  1.
      611    1    1    2    0    0 -0.50383585455E-01 -0.21656732035E-01  0.29586879943E+01  0.29591962471E+01  0.51109989000E-03 0.  1.
</event>
<event>
 6   3  0.2312675E+03  0.9118800E+02  0.7818608E-02  0.1180000E+00
       11   -1    0    0    0    0  0.00000000000E+00  0.00000000000E+00  0.54999999763E+01  0.55000000000E+01  0.51109989000E-03 0.  1.
     -623   -1    0    0    0    0  0.00000000000E+00  0.00000000000E+00  0.93234578044E-11  0.17124000000E+03  0.17124000000E+03 0. -1.
       11    1    1    2    0    0  0.48572039401E-01 -0.18859573131E-01  0.52991693171E+00  0.53247266807E+00  0.51109989000E-03 0.  1.
     -623    1    1    2    0    0  0.16856694212E-02  0.32478729567E-02  0.28347337899E-02  0.17124000006E+03  0.17124000000E+03 0. -1.
     -611    1    1    2    0    0 -0.29390248558E-01  0.95222163246E-02  0.29347341220E+01  0.29348967762E+01  0.51109989000E-03 0.  1.
      611    1    1    2    0    0 -0.20867460286E-01  0.60894838562E-02  0.20325141910E+01  0.20326304954E+01  0.51109989000E-03 0.  1.
</event>
<event>
 6   3  0.2312675E+03  0.9118800E+02  0.7818608E-02  0.1180000E+00
       11   -1    0    0    0    0  0.00000000000E+00  0.00000000000E+00  0.54999999763E+01  0.55000000000E+01  0.51109989000E-03 0. -1.
     -623   -1    0    0    0    0  0.00000000000E+00  0.00000000000E+00  0.93234578044E-11  0.17124000000E+03  0.17124000000E+03 0.  1.
       11    1    1    2    0    0 -0.15803073156E-01  0.17421081392E-01  0.47289811685E+00  0.47348296838E+00  0.51109989000E-03 0. -1.
     -623    1    1    2    0    0 -0.45121239487E-02 -0.49606296430E-02  0.20418904902E-02  0.17124000014E+03  0.17124000000E+03 0.  1.
     -611    1    1    2    0    0  0.67490080681E-01  0.10878093062E-01  0.27985493249E+01  0.27993841874E+01  0.51109989000E-03 0.  1.
      611    1    1    2    0    0 -0.47174883576E-01 -0.23338544811E-01  0.22265106441E+01  0.22271327007E+01  0.51109989000E-03 0. -1.
</event>
<event>
 6   3  0.2312675E+03  0.9118800E+02  0.7818608E-02  0.1180000E+00
       11   -1    0    0    0    0  0.00000000000E+00  0.00000000000E+00  0.54999999763E+01  0.55000000000E+01  0.51109989000E-03 0.  1.
     -623   -1    0    0    0    0  0.00000000000E+00  0.00000000000E+00  0.93234578044E-11  0.17124000000E+03  0.17124000000E+03 0.  1.
       11    1    1    2    0    0 -0.70317570719E-01 -0.38006172311E-02  0.34766095832E+00  0.35472159309E+00  0.51109989000E-03 0.  1.
     -623    1    1    2    0    0 -0.13020928558E-01  0.53259752734E-02  0.77672110557E-02  0.17124000075E+03  0.17124000000E+03 0.  1.
     -611    1    1    2    0    0  0.41879918133E-01 -0.95137739369E-02  0.26816345132E+01  0.26819784420E+01  0.51109989000E-03 0. -1.
      611    1    1    2    0    0  0.41458581144E-01  0.79884158945E-02  0.24629372937E+01  0.24632992109E+01  0.51109989000E-03 0.  1.
</event>
<event>
 6   3  0.2312675E+03  0.9118800E+02  0.7818608E-02  0.1180000E+00
       11   -1    0    0    0    0  0.00000000000E+00  0.00000000000E+00  0.54999999763E+01  0.55000000000E+01  0.51109989000E-03 0.  1.
     -623   -1    0    0    0    0  0.00000000000E+00  0.00000000000E+00  0.93234578044E-11  0.17124000000E+03  0.17124000000E+03 0.  1.
       11    1    1    2    0    0  0.14664795653E-01 -0.54539009274E-02  0.15341747808E+00  0.15421408843E+00  0.51109989000E-03 0.  1.
     -623    1    1    2    0    0 -0.16067228723E-01 -0.11837642377E-02  0.15039860391E-02  0.17124000076E+03  0.17124000000E+03 0.  1.
     -611    1    1    2    0    0  0.42627656206E-01  0.88591857739E-03  0.20478656542E+01  0.20483095227E+01  0.51109989000E-03 0. -1.
      611    1    1    2    0    0 -0.41225223137E-01  0.57517465877E-02  0.32972128579E+01  0.32974756243E+01  0.51109989000E-03 0.  1.
</event>
<event>
 6   3  0.2312675E+03  0.9118800E+02  0.7818608E-02  0.1180000E+00
       11   -1    0    0    0    0  0.00000000000E+00  0.00000000000E+00  0.54999999763E+01  0.55000000000E+01  0.51109989000E-03 0.  1.
     -623   -1    0    0    0    0  0.00000000000E+00  0.00000000000E+00  0.93234578044E-11  0.17124000000E+03  0.17124000000E+03 0. -1.
       11    1    1    2    0    0  0.19426643812E-01  0.70463725710E-02  0.34648829798E+00  0.34710437582E+00  0.51109989000E-03 0.  1.
     -623    1    1    2    0    0  0.37161871241E-02 -0.30523055760E-02  0.26341135001E-02  0.17124000009E+03  0.17124000000E+03 0. -1.
     -611    1    1    2    0    0  0.46385296621E-01  0.17355408289E-02  0.37452701115E+01  0.37455577791E+01  0.51109989000E-03 0.  1.
      611    1    1    2    0    0 -0.69528127556E-01 -0.57296078239E-02  0.14056074533E+01  0.14073377572E+01  0.51109989000E-03 0. -1.
</event>
<event>
 6   3  0.2312675E+03  0.9118800E+02  0.7818608E-02  0.1180000E+00
       11   -1    0    0    0    0  0.00000000000E+00  0.00000000000E+00  0.54999999763E+01  0.55000000000E+01  0.51109989000E-03 0. -1.
     -623   -1    0    0    0    0  0.00000000000E+00  0.00000000000E+00  0.93234578044E-11  0.17124000000E+03  0.17124000000E+03 0. -1.
       11    1    1    2    0    0 -0.40427912730E-01 -0.67675676441E-02  0.10548351621E+01  0.10556314208E+01  0.51109989000E-03 0. -1.
     -623    1    1    2    0    0 -0.97459741402E-02  0.68791122923E-02  0.10811677209E-02  0.17124000042E+03  0.17124000000E+03 0. -1.
     -611    1    1    2    0    0  0.39166711081E-01  0.82806531860E-03  0.33809903525E+01  0.33812173461E+01  0.51109989000E-03 0. -1.
      611    1    1    2    0    0  0.11007175789E-01 -0.93960996673E-03  0.10630932938E+01  0.10631508141E+01  0.51109989000E-03 0.  1.
</event>
<event>
 6   3  0.2312675E+03  0.9118800E+02  0.7818608E-02  0.1180000E+00
       11   -1    0    0    0    0  0.00000000000E+00  0.00000000000E+00  0.54999999763E+01  0.55000000000E+01  0.51109989000E-03 0. -1.
     -623   -1    0    0    0    0  0.00000000000E+00  0.00000000000E+00  0.93234578044E-11  0.17124000000E+03  0.17124000000E+03 0. -1.
       11    1    1    2    0    0  0.69579374114E-02  0.14140691975E-01  0.50979006042E+00  0.51003386063E+00  0.51109989000E-03 0. -1.
     -623    1    1    2    0    0 -0.35733301844E-01 -0.23009099472E-01  0.26420837619E-02  0.17124000529E+03  0.17124000000E+03 0. -1.
     -611    1    1    2    0    0  0.88084361911E-01  0.11017136728E-01  0.22514813756E+01  0.22532307645E+01  0.51109989000E-03 0.  1.
      611    1    1    2    0    0 -0.59308997479E-01 -0.21487292313E-02  0.27360864565E+01  0.27367300804E+01  0.51109989000E-03 0. -1.
</event>
<event>
 6   3  0.2312675E+03  0.9118800E+02  0.7818608E-02  0.1180000E+00
       11   -1    0    0    0    0  0.00000000000E+00  0.00000000000E+00  0.54999999763E+01  0.55000000000E+01  0.51109989000E-03 0.  1.
     -623   -1    0    0    0    0  0.00000000000E+00  0.00000000000E+00  0.93234578044E-11  0.17124000000E+03  0.17124000000E+03 0. -1.
       11    1    1    2    0    0 -0.37933934422E-02 -0.13582228037E-02  0.53474795161E-01  0.53628812625E-01  0.51109989000E-03 0.  1.
     -623    1    1    2    0    0  0.50366504449E-02  0.71614795698E-02  0.10569982724E-02  0.17124000023E+03  0.17124000000E+03 0. -1.
     -611    1    1    2    0    0 -0.38424993782E-01 -0.34277915590E-01  0.24982087222E+01  0.24987393895E+01  0.51109989000E-03 0. -1.
      611    1    1    2    0    0  0.37181736779E-01  0.28474658824E-01  0.29472594605E+01  0.29476315706E+01  0.51109989000E-03 0.  1.
</event>
<event>
 6   3  0.2312675E+03  0.9118800E+02  0.7818608E-02  0.1180000E+00
       11   -1    0    0    0    0  0.00000000000E+00  0.00000000000E+00  0.54999999763E+01  0.55000000000E+01  0.51109989000E-03 0.  1.
     -623   -1    0    0    0    0  0.00000000000E+00  0.00000000000E+00  0.93234578044E-11  0.17124000000E+03  0.17124000000E+03 0.  1.
       11    1    1    2    0    0 -0.13671805098E-01  0.17924782230E-01  0.33359472548E+00  0.33435597522E+00  0.51109989000E-03 0.  1.
     -623    1    1    2    0    0  0.45332116345E-02 -0.10706556809E-02  0.22127464473E-02  0.17124000008E+03  0.17124000000E+03 0.  1.
     -611    1    1    2    0    0  0.54329320500E-01 -0.41045683585E-01  0.34993986703E+01  0.35000611049E+01  0.51109989000E-03 0.  1.
      611    1    1    2    0    0 -0.45190727037E-01  0.24191557037E-01  0.16647938341E+01  0.16655828423E+01  0.51109989000E-03 0. -1.
</event>
<event>
 6   3  0.2312675E+03  0.9118800E+02  0.7818608E-02  0.1180000E+00
       11   -1    0    0    0    0  0.00000000000E+00  0.00000000000E+00  0.54999999763E+01  0.55000000000E+01  0.51109989000E-03 0. -1.
     -623   -1    0    0    0    0  0.00000000000E+00  0.00000000000E+00  0.93234578044E-11  0.17124000000E+03  0.17124000000E+03 0.  1.
       11    1    1    2    0    0 -0.38876154252E-01  0.27544118981E-01  0.85207053057E+00  0.85340171324E+00  0.51109989000E-03 0. -1.
     -623    1    1    2    0    0 -0.14773929990E-01  0.55708639345E-02  0.17598034424E-02  0.17124000074E+03  0.17124000000E+03 0.  1.
     -611    1    1    2    0    0  0.36922279759E-01 -0.22908168274E-01  0.31848873936E+01  0.31851838267E+01  0.51109989000E-03 0. -1.
      611    1    1    2    0    0  0.16727804522E-01 -0.10206814666E-01  0.14612822519E+01  0.14614137263E+01  0.51109989000E-03 0. -1.
</event>
<event>
 6   3  0.2312675E+03  0.9118800E+02  0.7818608E-02  0.1180000E+00
       11   -1    0    0    0    0  0.00000000000E+00  0.00000000000E+00  0.54999999763E+01  0.55000000000E+01  0.51109989000E-03 0.  1.
     -623   -1    0    0    0    0  0.00000000000E+00  0.00000000000E+00  0.93234578044E-11  0.17124000000E+03  0.17124000000E+03 0.  1.
       11    1    1    2    0    0  0.82313052828E-01  0.47049391696E-01  0.48976115027E+00  0.49885401618E+00  0.51109989000E-03 0.  1.
     -623    1    1    2    0    0  0.64944393545E-02 -0.17687227123E-01  0.10500052497E-01  0.17124000136E+03  0.17124000000E+03 0.  1.
     -611    1    1    2    0    0 -0.40954586153E-01  0.16186625229E-01  0.29804279081E+01  0.29807532708E+01  0.51109989000E-03 0. -1.
      611    1    1    2    0    0 -0.47852906029E-01 -0.45548789803E-01  0.20193108654E+01  0.20203913545E+01  0.51109989000E-03 0.  1.
</event>
<event>
 6   3  0.2312675E+03  0.9118800E+02  0.7818608E-02  0.1180000E+00
       11   -1    0    0    0    0  0.00000000000E+00  0.00000000000E+00  0.54999999763E+01  0.55000000000E+01  0.51109989000E-03 0. -1.
     -623   -1    0    0    0    0  0.00000000000E+00  0.00000000000E+00  0.93234578044E-11  0.17124000000E+03  0.17124000000E+03 0. -1.
       11    1    1    2    0    0  0.22249366321E-01 -0.78161747903E-02  0.88031088451E-01  0.91136494595E-01  0.51109989000E-03 0. -1.
     -623    1    1    2    0    0  0.53570387845E-02 -0.35392441673E-02  0.54941318984E-02  0.17124000021E+03  0.17124000000E+03 0. -1.
     -611    1    1    2    0    0  0.47442226952E-01  0.18744434363E-01  0.72989615825E+00  0.73167669211E+00  0.51109989000E-03 0.  1.
      611    1    1    2    0    0 -0.75048632058E-01 -0.73890154056E-02  0.46765785977E+01  0.46771866048E+01  0.51109989000E-03 0. -1.
</event>
<event>
 6   3  0.2312675E+03  0.9118800E+02  0.7818608E-02  0.1180000E+00
       11   -1    0    0    0    0  0.00000000000E+00  0.00000000000E+00  0.54999999763E+01  0.55000000000E+01  0.51109989000E-03 0.  1.
     -623   -1    0    0    0    0  0.00000000000E+00  0.00000000000E+00  0.93234578044E-11  0.17124000000E+03  0.17124000000E+03 0.  1.
       11    1    1    2    0    0  0.63820748409E-03  0.19286733479E-02  0.60987359674E-01  0.61023326300E-01  0.51109989000E-03 0.  1.
     -623    1    1    2    0    0 -0.17173402525E-02 -0.63747868820E-04  0.40441932928E-03  0.17124000001E+03  0.17124000000E+03 0.  1.
     -611    1    1    2    0    0  0.31990502489E-01 -0.40169227988E-02  0.26427403982E+01  0.26429371164E+01  0.51109989000E-03 0. -1.
      611    1    1    2    0    0 -0.30911369721E-01  0.21519973197E-02  0.27958677989E+01  0.27960395480E+01  0.51109989000E-03 0.  1.
</event>
<event>
 6   3  0.2312675E+03  0.9118800E+02  0.7818608E-02  0.1180000E+00
       11   -1    0    0    0    0  0.00000000000E+00  0.00000000000E+00  0.54999999763E+01  0.55000000000E+01  0.51109989000E-03 0.  1.
     -623   -1    0    0    0    0  0.00000000000E+00  0.00000000000E+00  0.93234578044E-11  0.17124000000E+03  0.17124000000E+03 0.  1.
       11    1    1    2    0    0 -0.45015732050E-01  0.76044941247E-01  0.88778629575E+00  0.89217375963E+00  0.51109989000E-03 0.  1.
     -623    1    1    2    0    0 -0.21468671837E-01  0.32502291962E-01  0.61516176149E-02  0.17124000454E+03  0.17124000000E+03 0.  1.
     -611    1    1    2    0    0  0.55123383399E-01 -0.90326012480E-01  0.38672391038E+01  0.38686865889E+01  0.51109989000E-03 0.  1.
      611    1    1    2    0    0  0.11361020481E-01 -0.18221220718E-01  0.73882295864E+00  0.73913511018E+00  0.51109989000E-03 0.  1.
</event>
<event>
 6   3  0.2312675E+03  0.9118800E+02  0.7818608E-02  0.1180000E+00
       11   -1    0    0    0    0  0.00000000000E+00  0.00000000000E+00  0.54999999763E+01  0.55000000000E+01  0.51109989000E-03 0.  1.
     -623   -1    0    0    0    0  0.00000000000E+00  0.00000000000E+00  0.93234578044E-11  0.17124000000E+03  0.17124000000E+03 0. -1.
       11    1    1    2    0    0 -0.58843601285E-01  0.10413086974E-01  0.10218980504E+01  0.10236439265E+01  0.51109989000E-03 0.  1.
     -623    1    1    2    0    0  0.82750681137E-02  0.70656699414E-02  0.20734272594E-02  0.17124000036E+03  0.17124000000E+03 0. -1.
     -611    1    1    2    0    0  0.30379998110E-01 -0.14557984633E-01  0.27190456165E+01  0.27192543473E+01  0.51109989000E-03 0.  1.
      611    1    1    2    0    0  0.20188535061E-01 -0.29207722829E-02  0.17569828821E+01  0.17571013679E+01  0.51109989000E-03 0. -1.
</event>
<event>
 6   3  0.2312675E+03  0.9118800E+02  0.7818608E-02  0.1180000E+00
       11   -1    0    0    0    0  0.00000000000E+00  0.00000000000E+00  0.54999999763E+01  0.55000000000E+01  0.51109989000E-03 0.  1.
     -623   -1    0    0    0    0  0.00000000000E+00  0.00000000000E+00  0.93234578044E-11  0.17124000000E+03  0.17124000000E+03 0.  1.
       11    1    1    2    0    0 -0.17506781721E-03 -0.35889921392E-01  0.98868356196E+00  0.98933490993E+00  0.51109989000E-03 0.  1.
     -623    1    1    2    0    0  0.47818171454E-01  0.22083489742E-01  0.93290860843E-03  0.17124000810E+03  0.17124000000E+03 0.  1.
     -611    1    1    2    0    0 -0.16625924736E-01  0.37939131289E-02  0.15036291341E+01  0.15037259223E+01  0.51109989000E-03 0.  1.
      611    1    1    2    0    0 -0.31017178891E-01  0.10012518517E-01  0.30067543706E+01  0.30069310638E+01  0.51109989000E-03 0.  1.
</event>
<event>
 6   3  0.2312675E+03  0.9118800E+02  0.7818608E-02  0.1180000E+00
       11   -1    0    0    0    0  0.00000000000E+00  0.00000000000E+00  0.54999999763E+01  0.55000000000E+01  0.51109989000E-03 0. -1.
     -623   -1    0    0    0    0  0.00000000000E+00  0.00000000000E+00  0.93234578044E-11  0.17124000000E+03  0.17124000000E+03 0. -1.
       11    1    1    2    0    0 -0.17656044208E-02 -0.27408925979E-01  0.15396601496E+00  0.15639744745E+00  0.51109989000E-03 0. -1.
     -623    1    1    2    0    0 -0.44027036516E-02  0.39527508264E-01  0.90021774820E-02  0.17124000486E+03  0.17124000000E+03 0. -1.
     -611    1    1    2    0    0 -0.50842465541E-01  0.68438844940E-01  0.44940191152E+01  0.44948277944E+01  0.51109989000E-03 0. -1.
      611    1    1    2    0    0  0.57010773613E-01 -0.80557427224E-01  0.84301266862E+00  0.84876990290E+00  0.51109989000E-03 0.  1.
</event>
<event>
 6   3  0.2312675E+03  0.9118800E+02  0.7818608E-02  0.1180000E+00
       11   -1    0    0    0    0  0.00000000000E+00  0.00000000000E+00  0.54999999763E+01  0.55000000000E+01  0.51109989000E-03 0.  1.
     -623   -1    0    0    0    0  0.00000000000E+00  0.00000000000E+00  0.93234578044E-11  0.17124000000E+03  0.17124000000E+03 0.  1.
       11    1    1    2    0    0  0.96758702246E-02 -0.59366634413E-03  0.84444796391E+00  0.84450375954E+00  0.51109989000E-03 0.  1.
     -623    1    1    2    0    0  0.50517032474E-01  0.16375190784E-01  0.49383723049E-03  0.17124000824E+03  0.17124000000E+03 0.  1.
     -611    1    1    2    0    0 -0.36029591883E-01 -0.96479686908E-02  0.23661949801E+01  0.23664889943E+01  0.51109989000E-03 0.  1.
      611    1    1    2    0    0 -0.24163310822E-01 -0.61335557511E-02  0.22888631957E+01  0.22889990118E+01  0.51109989000E-03 0.  1.
</event>
<event>
 6   3  0.2312675E+03  0.9118800E+02  0.7818608E-02  0.1180000E+00
       11   -1    0    0    0    0  0.00000000000E+00  0.00000000000E+00  0.54999999763E+01  0.55000000000E+01  0.51109989000E-03 0. -1.
     -623   -1    0    0    0    0  0.00000000000E+00  0.00000000000E+00  0.93234578044E-11  0.17124000000E+03  0.17124000000E+03 0.  1.
       11    1    1    2    0    0 -0.48356869750E-02  0.22029388000E-01  0.39785606689E+00  0.39849515554E+00  0.51109989000E-03 0. -1.
     -623    1    1    2    0    0 -0.66888141157E-01 -0.24549649882E-01  0.11604239095E-02  0.17124001483E+03  0.17124000000E+03 0.  1.
     -611    1    1    2    0    0  0.23407162435E-01 -0.92567749444E-03  0.16147595757E+01  0.16149295652E+01  0.51109989000E-03 0.  1.
      611    1    1    2    0    0  0.48316665715E-01  0.34459393776E-02  0.34862239110E+01  0.34865604532E+01  0.51109989000E-03 0. -1.
</event>
<event>
 6   3  0.2312675E+03  0.9118800E+02  0.7818608E-02  0.1180000E+00
       11   -1    0    0    0    0  0.00000000000E+00  0.00000000000E+00  0.54999999763E+01  0.55000000000E+01  0.51109989000E-03 0. -1.
     -623   -1    0    0    0    0  0.00000000000E+00  0.00000000000E+00  0.93234578044E-11  0.17124000000E+03  0.17124000000E+03 0. -1.
       11    1    1    2    0    0  0.75357933668E-01 -0.75076559278E-02  0.10835552646E+01  0.10861986263E+01  0.51109989000E-03 0. -1.
     -623    1    1    2    0    0  0.42467232951E-02 -0.77943660919E-02  0.33885564334E-02  0.17124000026E+03  0.17124000000E+03 0. -1.
     -611    1    1    2    0    0 -0.16459242347E-01  0.26232729666E-02  0.93222050020E+00  0.93236962114E+00  0.51109989000E-03 0. -1.
      611    1    1    2    0    0 -0.63145414611E-01  0.12678749052E-01  0.34808356548E+01  0.34814314888E+01  0.51109989000E-03 0. -1.
</event>
<event>
 6   3  0.2312675E+03  0.9118800E+02  0.7818608E-02  0.1180000E+00
       11   -1    0    0    0    0  0.00000000000E+00  0.00000000000E+00  0.54999999763E+01  0.55000000000E+01  0.51109989000E-03 0. -1.
     -623   -1    0    0    0    0  0.00000000000E+00  0.00000000000E+00  0.93234578044E-11  0.17124000000E+03  0.17124000000E+03 0.  1.
       11    1    1    2    0    0 -0.62003541934E-01  0.36057537306E-01  0.83600910027E+00  0.83908048611E+00  0.51109989000E-03 0. -1.
     -623    1    1    2    0    0 -0.50652962675E-02 -0.52016033835E-02  0.36564019225E-02  0.17124000019E+03  0.17124000000E+03 0.  1.
     -611    1    1    2    0    0  0.35425641627E-01 -0.16308293705E-01  0.24500397741E+01  0.24503501979E+01  0.51109989000E-03 0. -1.
      611    1    1    2    0    0  0.31643196737E-01 -0.14547640292E-01  0.22102947113E+01  0.22105691343E+01  0.51109989000E-03 0. -1.
</event>
<event>
 6   3  0.2312675E+03  0.9118800E+02  0.7818608E-02  0.1180000E+00
       11   -1    0    0    0    0  0.00000000000E+00  0.00000000000E+00  0.54999999763E+01  0.55000000000E+01  0.51109989000E-03 0.  1.
     -623   -1    0    0    0    0  0.00000000000E+00  0.00000000000E+00  0.93234578044E-11  0.17124000000E+03  0.17124000000E+03 0.  1.
       11    1    1    2    0    0  0.71768380035E-02  0.16924208624E-01  0.88548058525E-01  0.90437579208E-01  0.51109989000E-03 0.  1.
     -623    1    1    2    0    0  0.15475005266E-01 -0.17654954581E-02  0.28431798273E-02  0.17124000073E+03  0.17124000000E+03 0.  1.
     -611    1    1    2    0    0 -0.61499427355E-01 -0.10743926671E-01  0.33200407411E+01  0.33206277110E+01  0.51109989000E-03 0.  1.
      611    1    1    2    0    0  0.38847584085E-01 -0.44147864957E-02  0.20885679968E+01  0.20889339778E+01  0.51109989000E-03 0. -1.
</event>
<event>
 6   3  0.2312675E+03  0.9118800E+02  0.7818608E-02  0.1180000E+00
       11   -1    0    0    0    0  0.00000000000E+00  0.00000000000E+00  0.54999999763E+01  0.55000000000E+01  0.51109989000E-03 0.  1.
     -623   -1    0    0    0    0  0.00000000000E+00  0.00000000000E+00  0.93234578044E-11  0.17124000000E+03  0.17124000000E+03 0. -1.
       11    1    1    2    0    0 -0.50517997250E-01 -0.10169010815E-02  0.10371195342E+01  0.10383497925E+01  0.51109989000E-03 0.  1.
     -623    1    1    2    0    0 -0.59224831088E-03  0.32259920155E-02  0.15244826691E-02  0.17124000004E+03  0.17124000000E+03 0. -1.
     -611    1    1    2    0    0  0.53545990238E-02  0.38913595172E-03  0.49998589528E+00  0.50001497964E+00  0.51109989000E-03 0. -1.
      611    1    1    2    0    0  0.45755646527E-01 -0.25982268853E-02  0.39613700631E+01  0.39616351887E+01  0.51109989000E-03 0.  1.
</event>
<event>
 6   3  0.2312675E+03  0.9118800E+02  0.7818608E-02  0.1180000E+00
       11   -1    0    0    0    0  0.00000000000E+00  0.00000000000E+00  0.54999999763E+01  0.55000000000E+01  0.51109989000E-03 0.  1.
     -623   -1    0    0    0    0  0.00000000000E+00  0.00000000000E+00  0.93234578044E-11  0.17124000000E+03  0.17124000000E+03 0.  1.
       11    1    1    2    0    0 -0.13338982379E-02 -0.48997536979E-02  0.60338857119E+00  0.60341015564E+00  0.51109989000E-03 0.  1.
     -623    1    1    2    0    0 -0.36954194074E-02  0.12630288304E-01  0.18654107193E-02  0.17124000052E+03  0.17124000000E+03 0.  1.
     -611    1    1    2    0    0  0.48536657038E-01  0.37749122288E-01  0.33459133024E+01  0.33464782820E+01  0.51109989000E-03 0.  1.
      611    1    1    2    0    0 -0.43507339393E-01 -0.45479656894E-01  0.15488326921E+01  0.15501110467E+01  0.51109989000E-03 0. -1.
</event>
<event>
 6   3  0.2312675E+03  0.9118800E+02  0.7818608E-02  0.1180000E+00
       11   -1    0    0    0    0  0.00000000000E+00  0.00000000000E+00  0.54999999763E+01  0.55000000000E+01  0.51109989000E-03 0.  1.
     -623   -1    0    0    0    0  0.00000000000E+00  0.00000000000E+00  0.93234578044E-11  0.17124000000E+03  0.17124000000E+03 0. -1.
       11    1    1    2    0    0 -0.16613642583E-03 -0.64332908954E-02  0.47380599152E+00  0.47384996956E+00  0.51109989000E-03 0.  1.
     -623    1    1    2    0    0  0.56573191277E-01  0.66006877707E-01  0.74002117296E-03  0.17124002207E+03  0.17124000000E+03 0. -1.
     -611    1    1    2    0    0 -0.90382149665E-02 -0.99745066255E-02  0.68929605995E+00  0.68942766089E+00  0.51109989000E-03 0. -1.
      611    1    1    2    0    0 -0.47368839817E-01 -0.49599080108E-01  0.43361578971E+01  0.43367002947E+01  0.51109989000E-03 0.  1.
</event>
<event>
 6   3  0.2312675E+03  0.9118800E+02  0.7818608E-02  0.1180000E+00
       11   -1    0    0    0    0  0.00000000000E+00  0.00000000000E+00  0.54999999763E+01  0.55000000000E+01  0.51109989000E-03 0. -1.
     -623   -1    0    0    0    0  0.00000000000E+00  0.00000000000E+00  0.93234578044E-11  0.17124000000E+03  0.17124000000E+03 0.  1.
       11    1    1    2    0    0  0.87222656219E-01 -0.10960942263E+00  0.46844581172E+00  0.48894146585E+00  0.51109989000E-03 0. -1.
     -623    1    1    2    0    0 -0.29098543718E-01  0.36076027912E-01  0.21381243155E-01  0.17124000761E+03  0.17124000000E+03 0.  1.
     -611    1    1    2    0    0 -0.12805701888E-01  0.18264262907E-01  0.11553707871E+01  0.11555862089E+01  0.51109989000E-03 0.  1.
      611    1    1    2    0    0 -0.45318410601E-01  0.55269131800E-01  0.38548021334E+01  0.38554647170E+01  0.51109989000E-03 0. -1.
</event>
<event>
 6   3  0.2312675E+03  0.9118800E+02  0.7818608E-02  0.1180000E+00
       11   -1    0    0    0    0  0.00000000000E+00  0.00000000000E+00  0.54999999763E+01  0.55000000000E+01  0.51109989000E-03 0.  1.
     -623   -1    0    0    0    0  0.00000000000E+00  0.00000000000E+00  0.93234578044E-11  0.17124000000E+03  0.17124000000E+03 0. -1.
       11    1    1    2    0    0 -0.98359904266E-02  0.13209653890E-01  0.94128994194E+00  0.94143414942E+00  0.51109989000E-03 0.  1.
     -623    1    1    2    0    0  0.28525264721E-02  0.62786961940E-03  0.12781076304E-02  0.17124000003E+03  0.17124000000E+03 0. -1.
     -611    1    1    2    0    0  0.48310966969E-01  0.59077536518E-02  0.31800601809E+01  0.31804326539E+01  0.51109989000E-03 0.  1.
      611    1    1    2    0    0 -0.41327503015E-01 -0.19745277161E-01  0.13773717459E+01  0.13781331670E+01  0.51109989000E-03 0. -1.
</event>
<event>
 6   3  0.2312675E+03  0.9118800E+02  0.7818608E-02  0.1180000E+00
       11   -1    0    0    0    0  0.00000000000E+00  0.00000000000E+00  0.54999999763E+01  0.55000000000E+01  0.51109989000E-03 0. -1.
     -623   -1    0    0    0    0  0.00000000000E+00  0.00000000000E+00  0.93234578044E-11  0.17124000000E+03  0.17124000000E+03 0.  1.
       11    1    1    2    0    0  0.11591195444E-01 -0.15823537718E-01  0.10360603005E+01  0.10362460845E+01  0.51109989000E-03 0. -1.
     -623    1    1    2    0    0 -0.83362238891E-02 -0.10466405134E-01  0.14269842210E-02  0.17124000053E+03  0.17124000000E+03 0.  1.
     -611    1    1    2    0    0  0.32498565835E-01  0.47088208890E-01  0.17739312469E+01  0.17748537366E+01  0.51109989000E-03 0.  1.
      611    1    1    2    0    0 -0.35753537390E-01 -0.20798266038E-01  0.26885814447E+01  0.26888996503E+01  0.51109989000E-03 0. -1.
</event>
<event>
 6   3  0.2312675E+03  0.9118800E+02  0.7818608E-02  0.1180000E+00
       11   -1    0    0    0    0  0.00000000000E+00  0.00000000000E+00  0.54999999763E+01  0.55000000000E+01  0.51109989000E-03 0. -1.
     -623   -1    0    0    0    0  0.00000000000E+00  0.00000000000E+00  0.93234578044E-11  0.17124000000E+03  0.17124000000E+03 0.  1.
       11    1    1    2    0    0  0.85624526831E-02 -0.22550867946E-01  0.34533103427E+00  0.34617284945E+00  0.51109989000E-03 0. -1.
     -623    1    1    2    0    0  0.21877504248E-02  0.20260035847E-01  0.19661299947E-02  0.17124000122E+03  0.17124000000E+03 0.  1.
     -611    1    1    2    0    0  0.41734959911E-01 -0.24452232537E-01  0.21309527002E+01  0.21315016750E+01  0.51109989000E-03 0. -1.
      611    1    1    2    0    0 -0.52485163019E-01  0.26743064636E-01  0.30217501117E+01  0.30223242518E+01  0.51109989000E-03 0.  1.
</event>
<event>
 6   3  0.2312675E+03  0.9118800E+02  0.7818608E-02  0.1180000E+00
       11   -1    0    0    0    0  0.00000000000E+00  0.00000000000E+00  0.54999999763E+01  0.55000000000E+01  0.51109989000E-03 0.  1.
     -623   -1    0    0    0    0  0.00000000000E+00  0.00000000000E+00  0.93234578044E-11  0.17124000000E+03  0.17124000000E+03 0. -1.
       11    1    1    2    0    0  0.66670683924E-02 -0.11615710341E-02  0.27231381896E+00  0.27239837788E+00  0.51109989000E-03 0.  1.
     -623    1    1    2    0    0 -0.81985733614E-01  0.65078140453E-02  0.65305847387E-03  0.17124001975E+03  0.17124000000E+03 0. -1.
     -611    1    1    2    0    0  0.63279575141E-01 -0.30388993914E-02  0.44823748960E+01  0.44828226051E+01  0.51109989000E-03 0.  1.
      611    1    1    2    0    0  0.12039089911E-01 -0.23073436064E-02  0.74465819138E+00  0.74475925422E+00  0.51109989000E-03 0. -1.
</event>
<event>
 6   3  0.2312675E+03  0.9118800E+02  0.7818608E-02  0.1180000E+00
       11   -1    0    0    0    0  0.00000000000E+00  0.00000000000E+00  0.54999999763E+01  0.55000000000E+01  0.51109989000E-03 0.  1.
     -623   -1    0    0    0    0  0.00000000000E+00  0.00000000000E+00  0.93234578044E-11  0.17124000000E+03  0.17124000000E+03 0.  1.
       11    1    1    2    0    0 -0.14732462069E-01  0.11721280829E-01  0.72727726688E-01  0.75126675124E-01  0.51109989000E-03 0.  1.
     -623    1    1    2    0    0 -0.46255103567E-02 -0.14078321663E-01  0.31543666388E-02  0.17124000067E+03  0.17124000000E+03 0.  1.
     -611    1    1    2    0    0 -0.30681159669E-01 -0.17979760600E-01  0.17891502834E+01  0.17895037310E+01  0.51109989000E-03 0. -1.
      611    1    1    2    0    0  0.50039132095E-01  0.20336801434E-01  0.36349675995E+01  0.36353689236E+01  0.51109989000E-03 0.  1.
</event>
<event>
 6   3  0.2312675E+03  0.9118800E+02  0.7818608E-02  0.1180000E+00
       11   -1    0    0    0    0  0.00000000000E+00  0.00000000000E+00  0.54999999763E+01  0.55000000000E+01  0.51109989000E-03 0. -1.
     -623   -1    0    0    0    0  0.00000000000E+00  0.00000000000E+00  0.93234578044E-11  0.17124000000E+03  0.17124000000E+03 0.  1.
       11    1    1    2    0    0  0.99089643158E-02  0.15949646153E-02  0.27954498592E+00  0.27972556526E+00  0.51109989000E-03 0. -1.
     -623    1    1    2    0    0 -0.73454767949E-01 -0.22917339762E-01  0.63402241582E-03  0.17124001729E+03  0.17124000000E+03 0.  1.
     -611    1    1    2    0    0  0.51110117216E-01  0.18366424148E-01  0.44238498818E+01  0.44241832701E+01  0.51109989000E-03 0. -1.
      611    1    1    2    0    0  0.12435686396E-01  0.29559509918E-02  0.79597108450E+00  0.79607387379E+00  0.51109989000E-03 0.  1.
</event>
<event>
 6   3  0.2312675E+03  0.9118800E+02  0.7818608E-02  0.1180000E+00
       11   -1    0    0    0    0  0.00000000000E+00  0.00000000000E+00  0.54999999763E+01  0.55000000000E+01  0.51109989000E-03 0. -1.
     -623   -1    0    0    0    0  0.00000000000E+00  0.00000000000E+00  0.93234578044E-11  0.17124000000E+03  0.17124000000E+03 0. -1.
       11    1    1    2    0    0 -0.47151400804E-01 -0.75063337158E-01  0.29257491109E+00  0.30570917390E+00  0.51109989000E-03 0. -1.
     -623    1    1    2    0    0 -0.97928178524E-02  0.84773334913E-01  0.13478208622E-01  0.17124002179E+03  0.17124000000E+03 0. -1.
     -611    1    1    2    0    0  0.85064114886E-02 -0.24745838792E-02  0.79309121120E+00  0.79314085325E+00  0.51109989000E-03 0.  1.
      611    1    1    2    0    0  0.48437807183E-01 -0.72354138786E-02  0.44008556467E+01  0.44011281800E+01  0.51109989000E-03 0. -1.
</event>
<event>
 6   3  0.2312675E+03  0.9118800E+02  0.7818608E-02  0.1180000E+00
       11   -1    0    0    0    0  0.00000000000E+00  0.00000000000E+00  0.54999999763E+01  0.55000000000E+01  0.51109989000E-03 0. -1.
     -623   -1    0    0    0    0  0.00000000000E+00  0.00000000000E+00  0.93234578044E-11  0.17124000000E+03  0.17124000000E+03 0.  1.
       11    1    1    2    0    0  0.28902158171E-01  0.39655593551E-03  0.32710456824E+00  0.32837958492E+00  0.51109989000E-03 0. -1.
     -623    1    1    2    0    0  0.24519442211E-01  0.52416147543E-01  0.18308329936E-02  0.17124000979E+03  0.17124000000E+03 0.  1.
     -611    1    1    2    0    0 -0.93816767204E-02 -0.92749382728E-02  0.86572684295E+00  0.86582750486E+00  0.51109989000E-03 0.  1.
      611    1    1    2    0    0 -0.44039923660E-01 -0.43537765204E-01  0.43053377320E+01  0.43057831227E+01  0.51109989000E-03 0. -1.
</event>
<event>
 6   3  0.2312675E+03  0.9118800E+02  0.7818608E-02  0.1180000E+00
       11   -1    0    0    0    0  0.00000000000E+00  0.00000000000E+00  0.54999999763E+01  0.55000000000E+01  0.51109989000E-03 0.  1.
     -623   -1    0    0    0    0  0.00000000000E+00  0.00000000000E+00  0.93234578044E-11  0.17124000000E+03  0.17124000000E+03 0.  1.
       11    1    1    2    0    0 -0.11324872020E-01  0.48550338235E-02  0.71861927182E+00  0.71872508175E+00  0.51109989000E-03 0.  1.
     -623    1    1    2    0    0  0.77281695616E-01 -0.37453046828E-01  0.69383224446E-03  0.17124002154E+03  0.17124000000E+03 0.  1.
     -611    1    1    2    0    0 -0.37456758171E-01  0.17723532196E-01  0.27226977927E+01  0.27230131590E+01  0.51109989000E-03 0. -1.
      611    1    1    2    0    0 -0.28500066259E-01  0.14874481212E-01  0.20579891388E+01  0.20582402825E+01  0.51109989000E-03 0.  1.
</event>
<event>
 6   3  0.2312675E+03  0.9118800E+02  0.7818608E-02  0.1180000E+00
       11   -1    0    0    0    0  0.00000000000E+00  0.00000000000E+00  0.54999999763E+01  0.55000000000E+01  0.51109989000E-03 0.  1.
     -623   -1    0    0    0    0  0.00000000000E+00  0.00000000000E+00  0.93234578044E-11  0.17124000000E+03  0.17124000000E+03 0. -1.
       11    1    1    2    0    0  0.22051519358E-02 -0.36773784958E-02  0.50808429377E+00  0.50810264377E+00  0.51109989000E-03 0.  1.
     -623    1    1    2    0    0  0.53749432628E-01 -0.17270305835E-01  0.38545845911E-03  0.17124000931E+03  0.17124000000E+03 0. -1.
     -611    1    1    2    0    0 -0.17872109945E-01  0.66275235020E-02  0.15473756365E+01  0.15474931205E+01  0.51109989000E-03 0.  1.
      611    1    1    2    0    0 -0.38082474658E-01  0.14320160843E-01  0.34441545911E+01  0.34443949325E+01  0.51109989000E-03 0.  1.
</event>
<event>
 6   3  0.2312675E+03  0.9118800E+02  0.7818608E-02  0.1180000E+00
       11   -1    0    0    0    0  0.00000000000E+00  0.00000000000E+00  0.54999999763E+01  0.55000000000E+01  0.51109989000E-03 0.  1.
     -623   -1    0    0    0    0  0.00000000000E+00  0.00000000000E+00  0.93234578044E-11  0.17124000000E+03  0.17124000000E+03 0. -1.
       11    1    1    2    0    0 -0.73028478710E-02  0.22609616822E-02  0.11508177507E-01  0.13825444202E-01  0.51109989000E-03 0.  1.
     -623    1    1    2    0    0  0.74295152155E-02  0.13622981790E-01  0.34661972295E-02  0.17124000074E+03  0.17124000000E+03 0. -1.
     -611    1    1    2    0    0 -0.34746046028E-01 -0.51536924897E-01  0.32705911550E+01  0.32711817600E+01  0.51109989000E-03 0.  1.
      611    1    1    2    0    0  0.34619378683E-01  0.35652981425E-01  0.22144344465E+01  0.22149920577E+01  0.51109989000E-03 0. -1.
</event>
<event>
 6   3  0.2312675E+03  0.9118800E+02  0.7818608E-02  0.1180000E+00
       11   -1    0    0    0    0  0.00000000000E+00  0.00000000000E+00  0.54999999763E+01  0.55000000000E+01  0.51109989000E-03 0. -1.
     -623   -1    0    0    0    0  0.00000000000E+00  0.00000000000E+00  0.93234578044E-11  0.17124000000E+03  0.17124000000E+03 0. -1.
       11    1    1    2    0    0  0.35270474625E-02  0.45597919001E-02  0.35301768686E-02  0.67790218908E-02  0.51109989000E-03 0. -1.
     -623    1    1    2    0    0 -0.11548536308E-01 -0.57783205656E-02  0.52213894648E-02  0.17124000057E+03  0.17124000000E+03 0. -1.
     -611    1    1    2    0    0 -0.36475673229E-01 -0.59175175923E-01  0.21268518417E+01  0.21279875925E+01  0.51109989000E-03 0.  1.
      611    1    1    2    0    0  0.44497162074E-01  0.60393704589E-01  0.33643965682E+01  0.33652328190E+01  0.51109989000E-03 0. -1.
</event>
<event>
 6   3  0.2312675E+03  0.9118800E+02  0.7818608E-02  0.1180000E+00
       11   -1    0    0    0    0  0.00000000000E+00  0.00000000000E+00  0.54999999763E+01  0.55000000000E+01  0.51109989000E-03 0. -1.
     -623   -1    0    0    0    0  0.00000000000E+00  0.00000000000E+00  0.93234578044E-11  0.17124000000E+03  0.17124000000E+03 0.  1.
       11    1    1    2    0    0  0.41687000583E-01 -0.43312623081E-01  0.10586256750E+01  0.10603312550E+01  0.51109989000E-03 0. -1.
     -623    1    1    2    0    0  0.15810479603E-01  0.14398903916E-02  0.22849121864E-02  0.17124000075E+03  0.17124000000E+03 0.  1.
     -611    1    1    2    0    0 -0.43712948404E-01  0.35911983648E-01  0.34233070410E+01  0.34237745035E+01  0.51109989000E-03 0. -1.
      611    1    1    2    0    0 -0.13784531784E-01  0.59607490425E-02  0.10157823482E+01  0.10158934905E+01  0.51109989000E-03 0.  1.
</event>
<event>
 6   3  0.2312675E+03  0.9118800E+02  0.7818608E-02  0.1180000E+00
       11   -1    0    0    0    0  0.00000000000E+00  0.00000000000E+00  0.54999999763E+01  0.55000000000E+01  0.51109989000E-03 0.  1.
     -623   -1    0    0    0    0  0.00000000000E+00  0.00000000000E+00  0.93234578044E-11  0.17124000000E+03  0.17124000000E+03 0. -1.
       11    1    1    2    0    0  0.54716514652E-01 -0.21086405658E-01  0.24879350996E+00  0.25561104299E+00  0.51109989000E-03 0.  1.
     -623    1    1    2    0    0  0.11466364838E-01  0.20240945349E-01  0.73117555209E-02  0.17124000174E+03  0.17124000000E+03 0. -1.
     -611    1    1    2    0    0 -0.48812739460E-01  0.11624959647E-02  0.45961451786E+01  0.45964045513E+01  0.51109989000E-03 0.  1.
      611    1    1    2    0    0 -0.17370140030E-01 -0.31703565603E-03  0.64774953218E+00  0.64798266947E+00  0.51109989000E-03 0. -1.
</event>
<event>
 6   3  0.2312675E+03  0.9118800E+02  0.7818608E-02  0.1180000E+00
       11   -1    0    0    0    0  0.00000000000E+00  0.00000000000E+00  0.54999999763E+01  0.55000000000E+01  0.51109989000E-03 0.  1.
     -623   -1    0    0    0    0  0.00000000000E+00  0.00000000000E+00  0.93234578044E-11  0.17124000000E+03  0.17124000000E+03 0. -1.
       11    1    1    2    0    0 -0.57293467183E-01 -0.37104520305E-01  0.30123280785E+00  0.30887012248E+00  0.51109989000E-03 0.  1.
     -623    1    1    2    0    0 -0.80966964515E-02 -0.53635344682E-02  0.82302453768E-02  0.17124000047E+03  0.17124000000E+03 0. -1.
     -611    1    1    2    0    0  0.29922489052E-01  0.15234341588E-01  0.23731446427E+01  0.23733822273E+01  0.51109989000E-03 0. -1.
      611    1    1    2    0    0  0.35467674583E-01  0.27233713186E-01  0.28173922804E+01  0.28177471771E+01  0.51109989000E-03 0.  1.
</event>
<event>
 6   3  0.2312675E+03  0.9118800E+02  0.7818608E-02  0.1180000E+00
       11   -1    0    0    0    0  0.00000000000E+00  0.00000000000E+00  0.54999999763E+01  0.55000000000E+01  0.51109989000E-03 0. -1.
     -623   -1    0    0    0    0  0.00000000000E+00  0.00000000000E+00  0.93234578044E-11  0.17124000000E+03  0.17124000000E+03 0. -1.
       11    1    1    2    0    0 -0.12549258174E-01 -0.99401889814E-02  0.44425572907E+00  0.44454437942E+00  0.51109989000E-03 0. -1.
     -623    1    1    2    0    0 -0.62369761066E-01  0.34717970240E-01  0.92012346861E-03  0.17124001488E+03  0.17124000000E+03 0. -1.
     -611    1    1    2    0    0  0.31932698162E-01 -0.10683063227E-01  0.22364977709E+01  0.22367512972E+01  0.51109989000E-03 0.  1.
      611    1    1    2    0    0  0.42986321050E-01 -0.14094718022E-01  0.28183263509E+01  0.28186894413E+01  0.51109989000E-03 0. -1.
</event>
<event>
 6   3  0.3112832E+03  0.9118800E+02  0.7818608E-02  0.1180000E+00
       11   -1    0    0    0    0  0.00000000000E+00  0.00000000000E+00  0.54999999763E+01  0.55000000000E+01  0.51109989000E-03 0. -1.
     -623   -1    0    0    0    0  0.00000000000E+00  0.00000000000E+00  0.93234578044E-11  0.17124000000E+03  0.17124000000E+03 0. -1.
       11    1    1    2    0    0 -0.95980355141E-02 -0.77589223959E-02  0.18059502219E-01  0.21879899587E-01  0.51109989000E-03 0. -1.
     -623    1    1    2    0    0  0.91216442806E-02  0.89901545641E-02  0.43715140998E-02  0.17124000053E+03  0.17124000000E+03 0. -1.
     -611    1    1    2    0    0 -0.37279177447E-01  0.21611802269E-02  0.33966411886E+01  0.33968464836E+01  0.51109989000E-03 0. -1.
      611    1    1    2    0    0  0.37755568680E-01 -0.33924123952E-02  0.20809277714E+01  0.20812730821E+01  0.51109989000E-03 0.  1.
</event>
<event>
 6   3  0.2312675E+03  0.9118800E+02  0.7818608E-02  0.1180000E+00
       11   -1    0    0    0    0  0.00000000000E+00  0.00000000000E+00  0.54999999763E+01  0.55000000000E+01  0.51109989000E-03 0. -1.
     -623   -1    0    0    0    0  0.00000000000E+00  0.00000000000E+00  0.93234578044E-11  0.17124000000E+03  0.17124000000E+03 0.  1.
       11    1    1    2    0    0 -0.78795793740E-02 -0.46060935532E-02  0.23853571812E-01  0.25545214429E-01  0.51109989000E-03 0. -1.
     -623    1    1    2    0    0 -0.17955389492E-01 -0.10969944904E-01  0.24276609221E-02  0.17124000131E+03  0.17124000000E+03 0.  1.
     -611    1    1    2    0    0  0.51144773215E-01  0.29692580329E-01  0.31620570178E+01  0.31626100427E+01  0.51109989000E-03 0. -1.
      611    1    1    2    0    0 -0.25309804348E-01 -0.14116541872E-01  0.23116617258E+01  0.23118434330E+01  0.51109989000E-03 0.  1.
</event>
<event>
 6   3  0.2312675E+03  0.9118800E+02  0.7818608E-02  0.1180000E+00
       11   -1    0    0    0    0  0.00000000000E+00  0.00000000000E+00  0.54999999763E+01  0.55000000000E+01  0.51109989000E-03 0.  1.
     -623   -1    0    0    0    0  0.00000000000E+00  0.00000000000E+00  0.93234578044E-11  0.17124000000E+03  0.17124000000E+03 0. -1.
       11    1    1    2    0    0 -0.19197149380E-01  0.10074306284E-01  0.29691408307E+00  0.29770498171E+00  0.51109989000E-03 0.  1.
     -623    1    1    2    0    0 -0.54643695304E-02 -0.11693902371E-01  0.13416634311E-02  0.17124000049E+03  0.17124000000E+03 0. -1.
     -611    1    1    2    0    0  0.43093802367E-01  0.20722631266E-01  0.37793203165E+01  0.37796228409E+01  0.51109989000E-03 0.  1.
      611    1    1    2    0    0 -0.18432283456E-01 -0.19103035179E-01  0.14224239132E+01  0.14226716856E+01  0.51109989000E-03 0. -1.
</event>
<event>
 6   3  0.2312675E+03  0.9118800E+02  0.7818608E-02  0.1180000E+00
       11   -1    0    0    0    0  0.00000000000E+00  0.00000000000E+00  0.54999999763E+01  0.55000000000E+01  0.51109989000E-03 0.  1.
     -623   -1    0    0    0    0  0.00000000000E+00  0.00000000000E+00  0.93234578044E-11  0.17124000000E+03  0.17124000000E+03 0. -1.
       11    1    1    2    0    0 -0.30084853023E-02 -0.40316757574E-02  0.86217145445E-01  0.86365286921E-01  0.51109989000E-03 0.  1.
     -623    1    1    2    0    0  0.68936568879E-03 -0.82707712168E-04  0.74777297820E-03  0.17124000000E+03  0.17124000000E+03 0. -1.
     -611    1    1    2    0    0  0.38181523539E-01 -0.36254536756E-02  0.37435598748E+01  0.37437563716E+01  0.51109989000E-03 0.  1.
      611    1    1    2    0    0 -0.35862403925E-01  0.77398371452E-02  0.16694751829E+01  0.16698783383E+01  0.51109989000E-03 0. -1.
</event>
<event>
 6   3  0.2312675E+03  0.9118800E+02  0.7818608E-02  0.1180000E+00
       11   -1    0    0    0    0  0.00000000000E+00  0.00000000000E+00  0.54999999763E+01  0.55000000000E+01  0.51109989000E-03 0. -1.
     -623   -1    0    0    0    0  0.00000000000E+00  0.00000000000E+00  0.93234578044E-11  0.17124000000E+03  0.17124000000E+03 0.  1.
       11    1    1    2    0    0  0.85819493588E-02 -0.30316146384E-01  0.94511410237E+00  0.94563927916E+00  0.51109989000E-03 0. -1.
     -623    1    1    2    0    0 -0.67288408804E-01  0.22447033747E-02  0.10275216658E-02  0.17124001324E+03  0.17124000000E+03 0.  1.
     -611    1    1    2    0    0  0.12191389683E-01  0.51267246233E-02  0.58205003491E+00  0.58220049609E+00  0.51109989000E-03 0.  1.
      611    1    1    2    0    0  0.46515069762E-01  0.22944718386E-01  0.39718083172E+01  0.39721469865E+01  0.51109989000E-03 0. -1.
</event>
<event>
 6   3  0.2312675E+03  0.9118800E+02  0.7818608E-02  0.1180000E+00
       11   -1    0    0    0    0  0.00000000000E+00  0.00000000000E+00  0.54999999763E+01  0.55000000000E+01  0.51109989000E-03 0.  1.
     -623   -1    0    0    0    0  0.00000000000E+00  0.00000000000E+00  0.93234578044E-11  0.17124000000E+03  0.17124000000E+03 0.  1.
       11    1    1    2    0    0 -0.82792955278E-02 -0.33382427750E-02  0.11971677175E+00  0.12005022807E+00  0.51109989000E-03 0.  1.
     -623    1    1    2    0    0  0.58246433132E-02  0.14194005517E-02  0.14300558202E-02  0.17124000011E+03  0.17124000000E+03 0.  1.
     -611    1    1    2    0    0 -0.47371431429E-01 -0.21610087812E-01  0.21788952622E+01  0.21795173487E+01  0.51109989000E-03 0.  1.
      611    1    1    2    0    0  0.49826083644E-01  0.23528930035E-01  0.31999578864E+01  0.32004323123E+01  0.51109989000E-03 0. -1.
</event>
<event>
 6   3  0.2312675E+03  0.9118800E+02  0.7818608E-02  0.1180000E+00
       11   -1    0    0    0    0  0.00000000000E+00  0.00000000000E+00  0.54999999763E+01  0.55000000000E+01  0.51109989000E-03 0. -1.
     -623   -1    0    0    0    0  0.00000000000E+00  0.00000000000E+00  0.93234578044E-11  0.17124000000E+03  0.17124000000E+03 0. -1.
       11    1    1    2    0    0 -0.42855667168E-02  0.88802139940E-03  0.48089963373E+00  0.48091982036E+00  0.51109989000E-03 0. -1.
     -623    1    1    2    0    0 -0.57134133040E-01  0.33769373229E-02  0.48214928583E-03  0.17124000957E+03  0.17124000000E+03 0. -1.
     -611    1    1    2    0    0  0.16773044505E-01  0.10852963275E-01  0.12987353162E+01  0.12988890655E+01  0.51109989000E-03 0. -1.
      611    1    1    2    0    0  0.44646655253E-01 -0.15117921998E-01  0.37198828772E+01  0.37201815489E+01  0.51109989000E-03 0.  1.
</event>
<event>
 6   3  0.2312675E+03  0.9118800E+02  0.7818608E-02  0.1180000E+00
       11   -1    0    0    0    0  0.00000000000E+00  0.00000000000E+00  0.54999999763E+01  0.55000000000E+01  0.51109989000E-03 0. -1.
     -623   -1    0    0    0    0  0.00000000000E+00  0.00000000000E+00  0.93234578044E-11  0.17124000000E+03  0.17124000000E+03 0.  1.
       11    1    1    2    0    0 -0.29062374725E-01 -0.28315087878E-01  0.10025192220E+00  0.10815301639E+00  0.51109989000E-03 0. -1.
     -623    1    1    2    0    0  0.16337286420E-01 -0.96082966415E-02  0.96719025789E-02  0.17124000132E+03  0.17124000000E+03 0.  1.
     -611    1    1    2    0    0 -0.46717409606E-01 -0.15879419089E-01  0.12179694459E+01  0.12189686234E+01  0.51109989000E-03 0.  1.
      611    1    1    2    0    0  0.59442497911E-01  0.53802803608E-01  0.41721067055E+01  0.41728770382E+01  0.51109989000E-03 0. -1.
</event>
<event>
 6   3  0.2312675E+03  0.9118800E+02  0.7818608E-02  0.1180000E+00
       11   -1    0    0    0    0  0.00000000000E+00  0.00000000000E+00  0.54999999763E+01  0.55000000000E+01  0.51109989000E-03 0. -1.
     -623   -1    0    0    0    0  0.00000000000E+00  0.00000000000E+00  0.93234578044E-11  0.17124000000E+03  0.17124000000E+03 0.  1.
       11    1    1    2    0    0  0.71201480417E-03  0.83322402535E-03  0.23834333993E-01  0.23864993763E-01  0.51109989000E-03 0.  1.
     -623    1    1    2    0    0 -0.57923622282E-01  0.42977850805E-01  0.52015378218E-03  0.17124001519E+03  0.17124000000E+03 0.  1.
     -611    1    1    2    0    0  0.14276735923E-01 -0.10861506132E-01  0.13356855452E+01  0.13358060991E+01  0.51109989000E-03 0. -1.
      611    1    1    2    0    0  0.42934871480E-01 -0.32949568643E-01  0.41399599362E+01  0.41403137094E+01  0.51109989000E-03 0. -1.
</event>
<event>
 6   3  0.2312675E+03  0.9118800E+02  0.7818608E-02  0.1180000E+00
       11   -1    0    0    0    0  0.00000000000E+00  0.00000000000E+00  0.54999999763E+01  0.55000000000E+01  0.51109989000E-03 0. -1.
     -623   -1    0    0    0    0  0.00000000000E+00  0.00000000000E+00  0.93234578044E-11  0.17124000000E+03  0.17124000000E+03 0.  1.
       11    1    1    2    0    0 -0.20862680547E-02  0.44457753012E-02  0.74494954332E-02  0.89372052528E-02  0.51109989000E-03 0. -1.
     -623    1    1    2    0    0  0.42445514133E-02  0.49837691906E-03  0.18931800023E-02  0.17124000006E+03  0.17124000000E+03 0.  1.
     -611    1    1    2    0    0 -0.32888373666E-01  0.71107097829E-02  0.28875872558E+01  0.28877833417E+01  0.51109989000E-03 0. -1.
      611    1    1    2    0    0  0.30730090308E-01 -0.12054862003E-01  0.26030700450E+01  0.26032793892E+01  0.51109989000E-03 0.  1.
</event>
<event>
 6   3  0.2312675E+03  0.9118800E+02  0.7818608E-02  0.1180000E+00
       11   -1    0    0    0    0  0.00000000000E+00  0.00000000000E+00  0.54999999763E+01  0.55000000000E+01  0.51109989000E-03 0.  1.
     -623   -1    0    0    0    0  0.00000000000E+00  0.00000000000E+00  0.93234578044E-11  0.17124000000E+03  0.17124000000E+03 0.  1.
       11    1    1    2    0    0 -0.13887088162E-02 -0.25164597511E-02 -0.17388229220E-02  0.33979126102E-02  0.51109989000E-03 0.  1.
     -623    1    1    2    0    0 -0.62262157096E-02  0.56164753916E-02  0.69582346202E-02  0.17124000035E+03  0.17124000000E+03 0.  1.
     -611    1    1    2    0    0  0.56429155225E-01 -0.18902764222E-01  0.45777160680E+01  0.45781029067E+01  0.51109989000E-03 0.  1.
      611    1    1    2    0    0 -0.48814230699E-01  0.15802748581E-01  0.91706449655E+00  0.91849883399E+00  0.51109989000E-03 0. -1.
</event>
<event>
 6   3  0.2312675E+03  0.9118800E+02  0.7818608E-02  0.1180000E+00
       11   -1    0    0    0    0  0.00000000000E+00  0.00000000000E+00  0.54999999763E+01  0.55000000000E+01  0.51109989000E-03 0.  1.
     -623   -1    0    0    0    0  0.00000000000E+00  0.00000000000E+00  0.93234578044E-11  0.17124000000E+03  0.17124000000E+03 0. -1.
       11    1    1    2    0    0 -0.20087179560E-01  0.10662302690E-01  0.37298561638E+00  0.37367861958E+00  0.51109989000E-03 0.  1.
     -623    1    1    2    0    0 -0.40581057793E-01  0.25553982422E-01  0.11871044630E-02  0.17124000672E+03  0.17124000000E+03 0. -1.
     -611    1    1    2    0    0  0.23587248378E-01 -0.13400984634E-01  0.19164038801E+01  0.19165959505E+01  0.51109989000E-03 0. -1.
      611    1    1    2    0    0  0.37080988988E-01 -0.22815300485E-01  0.32094233765E+01  0.32097187118E+01  0.51109989000E-03 0.  1.
</event>
<event>
 6   3  0.2312675E+03  0.9118800E+02  0.7818608E-02  0.1180000E+00
       11   -1    0    0    0    0  0.00000000000E+00  0.00000000000E+00  0.54999999763E+01  0.55000000000E+01  0.51109989000E-03 0.  1.
     -623   -1    0    0    0    0  0.00000000000E+00  0.00000000000E+00  0.93234578044E-11  0.17124000000E+03  0.17124000000E+03 0.  1.
       11    1    1    2    0    0 -0.10291279496E-02  0.53871939335E-01  0.10921198101E+01  0.10934483005E+01  0.51109989000E-03 0.  1.
     -623    1    1    2    0    0 -0.11268586090E-01  0.35645834094E-01  0.31594769920E-02  0.17124000411E+03  0.17124000000E+03 0.  1.
     -611    1    1    2    0    0  0.45167929875E-01 -0.18873273449E-01  0.16905156542E+01  0.16912243436E+01  0.51109989000E-03 0. -1.
      611    1    1    2    0    0 -0.32870215835E-01 -0.70644499981E-01  0.27142050350E+01  0.27153232459E+01  0.51109989000E-03 0.  1.
</event>
<event>
 6   3  0.2312675E+03  0.9118800E+02  0.7818608E-02  0.1180000E+00
       11   -1    0    0    0    0  0.00000000000E+00  0.00000000000E+00  0.54999999763E+01  0.55000000000E+01  0.51109989000E-03 0.  1.
     -623   -1    0    0    0    0  0.00000000000E+00  0.00000000000E+00  0.93234578044E-11  0.17124000000E+03  0.17124000000E+03 0. -1.
       11    1    1    2    0    0 -0.87328322577E-01 -0.52049814327E-01  0.97433415624E+00  0.97962376877E+00  0.51109989000E-03 0.  1.
     -623    1    1    2    0    0  0.22386989339E-01  0.19084651976E-01  0.58791650849E-02  0.17124000263E+03  0.17124000000E+03 0. -1.
     -611    1    1    2    0    0  0.11744715261E-01  0.60965171177E-02  0.81169573373E+00  0.81180375168E+00  0.51109989000E-03 0.  1.
      611    1    1    2    0    0  0.53196617940E-01  0.26868645214E-01  0.37080909186E+01  0.37085698492E+01  0.51109989000E-03 0. -1.
</event>
<event>
 6   3  0.2312675E+03  0.9118800E+02  0.7818608E-02  0.1180000E+00
       11   -1    0    0    0    0  0.00000000000E+00  0.00000000000E+00  0.54999999763E+01  0.55000000000E+01  0.51109989000E-03 0. -1.
     -623   -1    0    0    0    0  0.00000000000E+00  0.00000000000E+00  0.93234578044E-11  0.17124000000E+03  0.17124000000E+03 0.  1.
       11    1    1    2    0    0 -0.60951567698E-01  0.46185473444E-01  0.10522150334E+01  0.10549904878E+01  0.51109989000E-03 0. -1.
     -623    1    1    2    0    0 -0.26605512607E-02 -0.11900949011E-02  0.34593034379E-02  0.17124000006E+03  0.17124000000E+03 0.  1.
     -611    1    1    2    0    0  0.78051354476E-02 -0.60316785062E-02  0.60031437551E+00  0.60039562952E+00  0.51109989000E-03 0. -1.
      611    1    1    2    0    0  0.55806983511E-01 -0.38963700036E-01  0.38440112638E+01  0.38446138229E+01  0.51109989000E-03 0. -1.
</event>
<event>
 6   3  0.2312675E+03  0.9118800E+02  0.7818608E-02  0.1180000E+00
       11   -1    0    0    0    0  0.00000000000E+00  0.00000000000E+00  0.54999999763E+01  0.55000000000E+01  0.51109989000E-03 0.  1.
     -623   -1    0    0    0    0  0.00000000000E+00  0.00000000000E+00  0.93234578044E-11  0.17124000000E+03  0.17124000000E+03 0.  1.
       11    1    1    2    0    0  0.25159928854E-01  0.43399358058E-01  0.88933002355E+00  0.89074389041E+00  0.51109989000E-03 0.  1.
     -623    1    1    2    0    0 -0.78477576316E-01 -0.44052726996E-01  0.17460850312E-02  0.17124002366E+03  0.17124000000E+03 0.  1.
     -611    1    1    2    0    0  0.39389733252E-01  0.53863037609E-03  0.34073824316E+01  0.34076101798E+01  0.51109989000E-03 0.  1.
      611    1    1    2    0    0  0.13927914136E-01  0.11473855989E-03  0.12015414297E+01  0.12016222653E+01  0.51109989000E-03 0.  1.
</event>
<event>
 6   3  0.2312675E+03  0.9118800E+02  0.7818608E-02  0.1180000E+00
       11   -1    0    0    0    0  0.00000000000E+00  0.00000000000E+00  0.54999999763E+01  0.55000000000E+01  0.51109989000E-03 0.  1.
     -623   -1    0    0    0    0  0.00000000000E+00  0.00000000000E+00  0.93234578044E-11  0.17124000000E+03  0.17124000000E+03 0. -1.
       11    1    1    2    0    0 -0.35928028270E-01  0.36417846723E-01  0.58854506496E+00  0.59076445178E+00  0.51109989000E-03 0.  1.
     -623    1    1    2    0    0 -0.26219697238E-01  0.61294758008E-01  0.35995643958E-02  0.17124001302E+03  0.17124000000E+03 0. -1.
     -611    1    1    2    0    0  0.40742796613E-01 -0.62591568560E-01  0.32211699772E+01  0.32220356862E+01  0.51109989000E-03 0.  1.
      611    1    1    2    0    0  0.21404928886E-01 -0.35121036157E-01  0.16866853690E+01  0.16871868460E+01  0.51109989000E-03 0. -1.
</event>
<event>
 6   3  0.2312675E+03  0.9118800E+02  0.7818608E-02  0.1180000E+00
       11   -1    0    0    0    0  0.00000000000E+00  0.00000000000E+00  0.54999999763E+01  0.55000000000E+01  0.51109989000E-03 0.  1.
     -623   -1    0    0    0    0  0.00000000000E+00  0.00000000000E+00  0.93234578044E-11  0.17124000000E+03  0.17124000000E+03 0. -1.
       11    1    1    2    0    0 -0.30620388608E-01  0.24440027351E-01  0.10071026817E+01  0.10078645721E+01  0.51109989000E-03 0.  1.
     -623    1    1    2    0    0 -0.25726512560E-01  0.26918325086E-01  0.14131046314E-02  0.17124000405E+03  0.17124000000E+03 0. -1.
     -611    1    1    2    0    0  0.28500381835E-01 -0.26275139462E-01  0.22953096972E+01  0.22956370623E+01  0.51109989000E-03 0.  1.
      611    1    1    2    0    0  0.27846519378E-01 -0.25083213017E-01  0.21961744962E+01  0.21964943149E+01  0.51109989000E-03 0.  1.
</event>
<event>
 6   3  0.2312675E+03  0.9118800E+02  0.7818608E-02  0.1180000E+00
       11   -1    0    0    0    0  0.00000000000E+00  0.00000000000E+00  0.54999999763E+01  0.55000000000E+01  0.51109989000E-03 0. -1.
     -623   -1    0    0    0    0  0.00000000000E+00  0.00000000000E+00  0.93234578044E-11  0.17124000000E+03  0.17124000000E+03 0. -1.
       11    1    1    2    0    0 -0.32065673084E-02  0.29437300375E-01  0.93520980326E+00  0.93567861687E+00  0.51109989000E-03 0. -1.
     -623    1    1    2    0    0  0.14735361276E-01 -0.19343381980E-01  0.85709833584E-03  0.17124000173E+03  0.17124000000E+03 0. -1.
     -611    1    1    2    0    0  0.19948330434E-01 -0.16273930565E-01  0.15265654083E+01  0.15267825594E+01  0.51109989000E-03 0.  1.
      611    1    1    2    0    0 -0.31477124402E-01  0.61800121702E-02  0.30373676666E+01  0.30375370953E+01  0.51109989000E-03 0. -1.
</event>
<event>
 6   3  0.2312675E+03  0.9118800E+02  0.7818608E-02  0.1180000E+00
       11   -1    0    0    0    0  0.00000000000E+00  0.00000000000E+00  0.54999999763E+01  0.55000000000E+01  0.51109989000E-03 0. -1.
     -623   -1    0    0    0    0  0.00000000000E+00  0.00000000000E+00  0.93234578044E-11  0.17124000000E+03  0.17124000000E+03 0.  1.
       11    1    1    2    0    0 -0.43300362897E-03  0.83888898155E-02  0.56968429309E+00  0.56974644885E+00  0.51109989000E-03 0. -1.
     -623    1    1    2    0    0 -0.60866437702E-01 -0.15907321227E-01  0.46287232078E-03  0.17124001156E+03  0.17124000000E+03 0.  1.
     -611    1    1    2    0    0  0.25470398194E-01  0.50566722969E-02  0.19652686632E+01  0.19654402792E+01  0.51109989000E-03 0.  1.
      611    1    1    2    0    0  0.35829043120E-01  0.24617591089E-02  0.29645841460E+01  0.29648017135E+01  0.51109989000E-03 0. -1.
</event>
<event>
 6   3  0.2312675E+03  0.9118800E+02  0.7818608E-02  0.1180000E+00
       11   -1    0    0    0    0  0.00000000000E+00  0.00000000000E+00  0.54999999763E+01  0.55000000000E+01  0.51109989000E-03 0.  1.
     -623   -1    0    0    0    0  0.00000000000E+00  0.00000000000E+00  0.93234578044E-11  0.17124000000E+03  0.17124000000E+03 0.  1.
       11    1    1    2    0    0  0.66479906869E-02 -0.77548023286E-02  0.38546248807E-01  0.39879910475E-01  0.51109989000E-03 0.  1.
     -623    1    1    2    0    0 -0.73567709743E-01  0.86724686717E-02  0.19277876969E-02  0.17124001603E+03  0.17124000000E+03 0.  1.
     -611    1    1    2    0    0 -0.54636582835E-02 -0.42860093817E-02  0.52024109435E+00  0.52028768860E+00  0.51109989000E-03 0. -1.
      611    1    1    2    0    0  0.72383377340E-01  0.33683430385E-02  0.49392848455E+01  0.49398163676E+01  0.51109989000E-03 0.  1.
</event>
<event>
 6   3  0.2312675E+03  0.9118800E+02  0.7818608E-02  0.1180000E+00
       11   -1    0    0    0    0  0.00000000000E+00  0.00000000000E+00  0.54999999763E+01  0.55000000000E+01  0.51109989000E-03 0.  1.
     -623   -1    0    0    0    0  0.00000000000E+00  0.00000000000E+00  0.93234578044E-11  0.17124000000E+03  0.17124000000E+03 0.  1.
       11    1    1    2    0    0 -0.59658926876E-02  0.50528848594E-02  0.19352427246E+00  0.19368280454E+00  0.51109989000E-03 0.  1.
     -623    1    1    2    0    0  0.19784631436E-02  0.42842160099E-03  0.15905310125E-02  0.17124000002E+03  0.17124000000E+03 0.  1.
     -611    1    1    2    0    0 -0.30586487261E-01 -0.54774653681E-01  0.25158308405E+01  0.25166129769E+01  0.51109989000E-03 0.  1.
      611    1    1    2    0    0  0.34573916805E-01  0.49293347221E-01  0.27890543321E+01  0.27897041991E+01  0.51109989000E-03 0. -1.
</event>
<event>
 6   3  0.2312675E+03  0.9118800E+02  0.7818608E-02  0.1180000E+00
       11   -1    0    0    0    0  0.00000000000E+00  0.00000000000E+00  0.54999999763E+01  0.55000000000E+01  0.51109989000E-03 0.  1.
     -623   -1    0    0    0    0  0.00000000000E+00  0.00000000000E+00  0.93234578044E-11  0.17124000000E+03  0.17124000000E+03 0.  1.
       11    1    1    2    0    0  0.32205729054E+00 -0.47441879782E-01  0.83400165785E+00  0.89528244530E+00  0.51109989000E-03 0.  1.
     -623    1    1    2    0    0 -0.62143345773E-01 -0.54314311846E-01  0.70068103216E-01  0.17124003422E+03  0.17124000000E+03 0.  1.
     -611    1    1    2    0    0 -0.19276127300E+00  0.50476276956E-01  0.32573868915E+01  0.32634758134E+01  0.51109989000E-03 0.  1.
      611    1    1    2    0    0 -0.67152671766E-01  0.51279914672E-01  0.13385433237E+01  0.13412075163E+01  0.51109989000E-03 0. -1.
</event>
<event>
 6   3  0.2312675E+03  0.9118800E+02  0.7818608E-02  0.1180000E+00
       11   -1    0    0    0    0  0.00000000000E+00  0.00000000000E+00  0.54999999763E+01  0.55000000000E+01  0.51109989000E-03 0.  1.
     -623   -1    0    0    0    0  0.00000000000E+00  0.00000000000E+00  0.93234578044E-11  0.17124000000E+03  0.17124000000E+03 0.  1.
       11    1    1    2    0    0  0.25033271142E-02  0.57110378545E-02  0.20639009239E+00  0.20648490032E+00  0.51109989000E-03 0.  1.
     -623    1    1    2    0    0 -0.60608152395E-01 -0.55281512200E-01  0.66588811413E-03  0.17124001965E+03  0.17124000000E+03 0.  1.
     -611    1    1    2    0    0  0.47409068221E-01  0.40575103502E-01  0.42789930635E+01  0.42794480786E+01  0.51109989000E-03 0.  1.
      611    1    1    2    0    0  0.10695757020E-01  0.89953708086E-02  0.10139509287E+01  0.10140473672E+01  0.51109989000E-03 0.  1.
</event>
<event>
 6   3  0.2312675E+03  0.9118800E+02  0.7818608E-02  0.1180000E+00
       11   -1    0    0    0    0  0.00000000000E+00  0.00000000000E+00  0.54999999763E+01  0.55000000000E+01  0.51109989000E-03 0. -1.
     -623   -1    0    0    0    0  0.00000000000E+00  0.00000000000E+00  0.93234578044E-11  0.17124000000E+03  0.17124000000E+03 0. -1.
       11    1    1    2    0    0 -0.52137316928E-02  0.16589131319E-01  0.92271919034E-01  0.93897553437E-01  0.51109989000E-03 0. -1.
     -623    1    1    2    0    0 -0.25733746473E-02 -0.74013844969E-02  0.27170362248E-02  0.17124000020E+03  0.17124000000E+03 0. -1.
     -611    1    1    2    0    0 -0.49632290203E-01 -0.77498910650E-02  0.28788300639E+01  0.28792683486E+01  0.51109989000E-03 0.  1.
      611    1    1    2    0    0  0.57419396543E-01 -0.14378557568E-02  0.25261809571E+01  0.25268338971E+01  0.51109989000E-03 0. -1.
</event>
<event>
 6   3  0.2312675E+03  0.9118800E+02  0.7818608E-02  0.1180000E+00
       11   -1    0    0    0    0  0.00000000000E+00  0.00000000000E+00  0.54999999763E+01  0.55000000000E+01  0.51109989000E-03 0. -1.
     -623   -1    0    0    0    0  0.00000000000E+00  0.00000000000E+00  0.93234578044E-11  0.17124000000E+03  0.17124000000E+03 0. -1.
       11    1    1    2    0    0  0.42225756549E-02 -0.13560573929E-02  0.92938456538E-03  0.45600455680E-02  0.51109989000E-03 0. -1.
     -623    1    1    2    0    0  0.47253513234E-02 -0.33376637591E-02  0.41032422267E-02  0.17124000015E+03  0.17124000000E+03 0. -1.
     -611    1    1    2    0    0  0.31169010522E-01 -0.25231102436E-02  0.23219398097E+01  0.23221504289E+01  0.51109989000E-03 0.  1.
      611    1    1    2    0    0 -0.40116937500E-01  0.72168313956E-02  0.31730275397E+01  0.31732893786E+01  0.51109989000E-03 0. -1.
</event>
<event>
 6   3  0.2312675E+03  0.9118800E+02  0.7818608E-02  0.1180000E+00
       11   -1    0    0    0    0  0.00000000000E+00  0.00000000000E+00  0.54999999763E+01  0.55000000000E+01  0.51109989000E-03 0.  1.
     -623   -1    0    0    0    0  0.00000000000E+00  0.00000000000E+00  0.93234578044E-11  0.17124000000E+03  0.17124000000E+03 0. -1.
       11    1    1    2    0    0  0.15591289889E-01  0.32544821029E-04  0.37642211415E+00  0.37674521713E+00  0.51109989000E-03 0.  1.
     -623    1    1    2    0    0  0.47822060361E-01 -0.31953515069E-01  0.10095781681E-02  0.17124000966E+03  0.17124000000E+03 0. -1.
     -611    1    1    2    0    0  0.63625467759E-02  0.62088955783E-02  0.52887501277E+00  0.52894997187E+00  0.51109989000E-03 0. -1.
      611    1    1    2    0    0 -0.69775897026E-01  0.25712074670E-01  0.45936932712E+01  0.45942951492E+01  0.51109989000E-03 0.  1.
</event>
<event>
 6   3  0.2312675E+03  0.9118800E+02  0.7818608E-02  0.1180000E+00
       11   -1    0    0    0    0  0.00000000000E+00  0.00000000000E+00  0.54999999763E+01  0.55000000000E+01  0.51109989000E-03 0.  1.
     -623   -1    0    0    0    0  0.00000000000E+00  0.00000000000E+00  0.93234578044E-11  0.17124000000E+03  0.17124000000E+03 0.  1.
       11    1    1    2    0    0 -0.19017765627E-03  0.18227919395E-01  0.19301782173E-01  0.26553968275E-01  0.51109989000E-03 0.  1.
     -623    1    1    2    0    0  0.75590548049E-02 -0.28195503642E-01  0.12164549545E-01  0.17124000292E+03  0.17124000000E+03 0.  1.
     -611    1    1    2    0    0 -0.11101520588E+00  0.31420892454E-01  0.36572866729E+01  0.36591061364E+01  0.51109989000E-03 0. -1.
      611    1    1    2    0    0  0.10364632873E+00 -0.21453308207E-01  0.18112469716E+01  0.18143369751E+01  0.51109989000E-03 0.  1.
</event>
<event>
 6   3  0.2312675E+03  0.9118800E+02  0.7818608E-02  0.1180000E+00
       11   -1    0    0    0    0  0.00000000000E+00  0.00000000000E+00  0.54999999763E+01  0.55000000000E+01  0.51109989000E-03 0.  1.
     -623   -1    0    0    0    0  0.00000000000E+00  0.00000000000E+00  0.93234578044E-11  0.17124000000E+03  0.17124000000E+03 0. -1.
       11    1    1    2    0    0 -0.12108322352E-01 -0.27345878025E-02  0.76080823900E+00  0.76090967085E+00  0.51109989000E-03 0.  1.
     -623    1    1    2    0    0  0.60220730548E-01  0.14255175626E-01  0.37096204705E-03  0.17124001118E+03  0.17124000000E+03 0. -1.
     -611    1    1    2    0    0 -0.19444474290E-01 -0.48036466395E-02  0.19025386109E+01  0.19026441049E+01  0.51109989000E-03 0.  1.
      611    1    1    2    0    0 -0.28667933897E-01 -0.67169411826E-02  0.28362821640E+01  0.28364350411E+01  0.51109989000E-03 0.  1.
</event>
<event>
 6   3  0.2312675E+03  0.9118800E+02  0.7818608E-02  0.1180000E+00
       11   -1    0    0    0    0  0.00000000000E+00  0.00000000000E+00  0.54999999763E+01  0.55000000000E+01  0.51109989000E-03 0. -1.
     -623   -1    0    0    0    0  0.00000000000E+00  0.00000000000E+00  0.93234578044E-11  0.17124000000E+03  0.17124000000E+03 0.  1.
       11    1    1    2    0    0  0.82433220422E-01  0.55863669828E-02  0.39249455433E+00  0.40109684582E+00  0.51109989000E-03 0. -1.
     -623    1    1    2    0    0 -0.55482028894E-02  0.15171431653E-01  0.92643458426E-02  0.17124000101E+03  0.17124000000E+03 0.  1.
     -611    1    1    2    0    0 -0.49516764713E-01 -0.34718264188E-02  0.29690504011E+01  0.29694653575E+01  0.51109989000E-03 0. -1.
      611    1    1    2    0    0 -0.27368252820E-01 -0.17285972217E-01  0.21291906750E+01  0.21294367842E+01  0.51109989000E-03 0.  1.
</event>
<event>
 6   3  0.2312675E+03  0.9118800E+02  0.7818608E-02  0.1180000E+00
       11   -1    0    0    0    0  0.00000000000E+00  0.00000000000E+00  0.54999999763E+01  0.55000000000E+01  0.51109989000E-03 0.  1.
     -623   -1    0    0    0    0  0.00000000000E+00  0.00000000000E+00  0.93234578044E-11  0.17124000000E+03  0.17124000000E+03 0. -1.
       11    1    1    2    0    0  0.25262818188E-01  0.27143329050E-01  0.35473845363E+00  0.35667156040E+00  0.51109989000E-03 0.  1.
     -623    1    1    2    0    0 -0.21173050843E-01 -0.98104159900E-02  0.42178936249E-02  0.17124000164E+03  0.17124000000E+03 0. -1.
     -611    1    1    2    0    0  0.51259617606E-01 -0.59579410755E-01  0.33668458368E+01  0.33677631159E+01  0.51109989000E-03 0.  1.
      611    1    1    2    0    0 -0.55349384951E-01  0.42246497695E-01  0.17741977922E+01  0.17755636818E+01  0.51109989000E-03 0. -1.
</event>
<event>
 6   3  0.2312675E+03  0.9118800E+02  0.7818608E-02  0.1180000E+00
       11   -1    0    0    0    0  0.00000000000E+00  0.00000000000E+00  0.54999999763E+01  0.55000000000E+01  0.51109989000E-03 0. -1.
     -623   -1    0    0    0    0  0.00000000000E+00  0.00000000000E+00  0.93234578044E-11  0.17124000000E+03  0.17124000000E+03 0. -1.
       11    1    1    2    0    0  0.10517187099E-01  0.85494572880E-02  0.20658600505E+00  0.20703077827E+00  0.51109989000E-03 0. -1.
     -623    1    1    2    0    0  0.87627818620E-03 -0.82689199968E-03  0.98383601435E-03  0.17124000001E+03  0.17124000000E+03 0. -1.
     -611    1    1    2    0    0 -0.37741917695E-01  0.15123470137E-01  0.28589490393E+01  0.28592381926E+01  0.51109989000E-03 0.  1.
      611    1    1    2    0    0  0.26348452409E-01 -0.22846035425E-01  0.24334810958E+01  0.24337310220E+01  0.51109989000E-03 0. -1.
</event>
<event>
 6   3  0.2312675E+03  0.9118800E+02  0.7818608E-02  0.1180000E+00
       11   -1    0    0    0    0  0.00000000000E+00  0.00000000000E+00  0.54999999763E+01  0.55000000000E+01  0.51109989000E-03 0. -1.
     -623   -1    0    0    0    0  0.00000000000E+00  0.00000000000E+00  0.93234578044E-11  0.17124000000E+03  0.17124000000E+03 0.  1.
       11    1    1    2    0    0 -0.41680705142E-02 -0.28641050268E-01  0.22002879814E+00  0.22192479763E+00  0.51109989000E-03 0. -1.
     -623    1    1    2    0    0 -0.51967443760E-01  0.24134771112E-01  0.22061524238E-02  0.17124000960E+03  0.17124000000E+03 0.  1.
     -611    1    1    2    0    0  0.22767826383E-01  0.20272428285E-02  0.21554347586E+01  0.21555560172E+01  0.51109989000E-03 0. -1.
      611    1    1    2    0    0  0.33367687815E-01  0.24790363209E-02  0.31223302600E+01  0.31225095776E+01  0.51109989000E-03 0. -1.
</event>
<event>
 6   3  0.2312675E+03  0.9118800E+02  0.7818608E-02  0.1180000E+00
       11   -1    0    0    0    0  0.00000000000E+00  0.00000000000E+00  0.54999999763E+01  0.55000000000E+01  0.51109989000E-03 0.  1.
     -623   -1    0    0    0    0  0.00000000000E+00  0.00000000000E+00  0.93234578044E-11  0.17124000000E+03  0.17124000000E+03 0. -1.
       11    1    1    2    0    0 -0.73409352975E-03 -0.68327761101E-03  0.30205777751E-01  0.30226743031E-01  0.51109989000E-03 0.  1.
     -623    1    1    2    0    0 -0.10493135757E-02 -0.81968736033E-04  0.48988483562E-03  0.17124000000E+03  0.17124000000E+03 0. -1.
     -611    1    1    2    0    0 -0.29331223440E-01  0.19559205687E-01  0.27393818442E+01  0.27396087372E+01  0.51109989000E-03 0. -1.
      611    1    1    2    0    0  0.31114630545E-01 -0.18793959340E-01  0.27299224694E+01  0.27301645158E+01  0.51109989000E-03 0.  1.
</event>
<event>
 6   3  0.2312675E+03  0.9118800E+02  0.7818608E-02  0.1180000E+00
       11   -1    0    0    0    0  0.00000000000E+00  0.00000000000E+00  0.54999999763E+01  0.55000000000E+01  0.51109989000E-03 0.  1.
     -623   -1    0    0    0    0  0.00000000000E+00  0.00000000000E+00  0.93234578044E-11  0.17124000000E+03  0.17124000000E+03 0.  1.
       11    1    1    2    0    0  0.29068057715E-01  0.21157206134E-01  0.67486649024E+00  0.67582366060E+00  0.51109989000E-03 0.  1.
     -623    1    1    2    0    0 -0.14315476069E-01 -0.41475276287E-02  0.17094300645E-02  0.17124000066E+03  0.17124000000E+03 0.  1.
     -611    1    1    2    0    0 -0.41134537479E-01  0.42347547423E-02  0.37245455445E+01  0.37247751285E+01  0.51109989000E-03 0. -1.
      611    1    1    2    0    0  0.26381955832E-01 -0.21244433247E-01  0.10988785114E+01  0.10994005537E+01  0.51109989000E-03 0.  1.
</event>
<event>
 6   3  0.2312675E+03  0.9118800E+02  0.7818608E-02  0.1180000E+00
       11   -1    0    0    0    0  0.00000000000E+00  0.00000000000E+00  0.54999999763E+01  0.55000000000E+01  0.51109989000E-03 0. -1.
     -623   -1    0    0    0    0  0.00000000000E+00  0.00000000000E+00  0.93234578044E-11  0.17124000000E+03  0.17124000000E+03 0. -1.
       11    1    1    2    0    0 -0.41112019019E-01 -0.23289383288E-01  0.78205993016E+00  0.78348617669E+00  0.51109989000E-03 0. -1.
     -623    1    1    2    0    0 -0.23204916222E-01  0.38898531532E-01  0.18987621181E-02  0.17124000600E+03  0.17124000000E+03 0. -1.
     -611    1    1    2    0    0  0.61134323677E-02 -0.25056556372E-02  0.52816074839E+00  0.52820231893E+00  0.51109989000E-03 0. -1.
      611    1    1    2    0    0  0.58203502862E-01 -0.13103492605E-01  0.41878805348E+01  0.41883055028E+01  0.51109989000E-03 0. -1.
</event>
<event>
 6   3  0.2312675E+03  0.9118800E+02  0.7818608E-02  0.1180000E+00
       11   -1    0    0    0    0  0.00000000000E+00  0.00000000000E+00  0.54999999763E+01  0.55000000000E+01  0.51109989000E-03 0.  1.
     -623   -1    0    0    0    0  0.00000000000E+00  0.00000000000E+00  0.93234578044E-11  0.17124000000E+03  0.17124000000E+03 0. -1.
       11    1    1    2    0    0 -0.12548589361E-01  0.60390323211E-02  0.47252029113E+00  0.47272573841E+00  0.51109989000E-03 0.  1.
     -623    1    1    2    0    0  0.48810796914E-03  0.28554187702E-02  0.85233448952E-03  0.17124000003E+03  0.17124000000E+03 0. -1.
     -611    1    1    2    0    0 -0.30929553860E-01  0.68797646955E-02  0.27769869852E+01  0.27771677921E+01  0.51109989000E-03 0.  1.
      611    1    1    2    0    0  0.42990035252E-01 -0.15774215787E-01  0.22496403656E+01  0.22501064430E+01  0.51109989000E-03 0. -1.
</event>
<event>
 6   3  0.2312675E+03  0.9118800E+02  0.7818608E-02  0.1180000E+00
       11   -1    0    0    0    0  0.00000000000E+00  0.00000000000E+00  0.54999999763E+01  0.55000000000E+01  0.51109989000E-03 0.  1.
     -623   -1    0    0    0    0  0.00000000000E+00  0.00000000000E+00  0.93234578044E-11  0.17124000000E+03  0.17124000000E+03 0.  1.
       11    1    1    2    0    0 -0.46690186164E-02 -0.70553135951E-02 -0.11977957403E-01  0.14673441021E-01  0.51109989000E-03 0.  1.
     -623    1    1    2    0    0  0.16077319479E-01 -0.72058577233E-03  0.28071152038E-01  0.17124000306E+03  0.17124000000E+03 0.  1.
     -611    1    1    2    0    0 -0.61701219442E-01  0.12706327076E-01  0.41185264601E+01  0.41190082490E+01  0.51109989000E-03 0.  1.
      611    1    1    2    0    0  0.50292918579E-01 -0.49304277091E-02  0.13653803215E+01  0.13663152529E+01  0.51109989000E-03 0. -1.
</event>
<event>
 6   3  0.2312675E+03  0.9118800E+02  0.7818608E-02  0.1180000E+00
       11   -1    0    0    0    0  0.00000000000E+00  0.00000000000E+00  0.54999999763E+01  0.55000000000E+01  0.51109989000E-03 0. -1.
     -623   -1    0    0    0    0  0.00000000000E+00  0.00000000000E+00  0.93234578044E-11  0.17124000000E+03  0.17124000000E+03 0. -1.
       11    1    1    2    0    0  0.14256556415E-02  0.23939677949E-02  0.12261845146E-02  0.30867988876E-02  0.51109989000E-03 0. -1.
     -623    1    1    2    0    0 -0.50010567878E-02 -0.66678747567E-02  0.45453924941E-02  0.17124000026E+03  0.17124000000E+03 0. -1.
     -611    1    1    2    0    0 -0.34341808725E-01 -0.71202140283E-01  0.18233761607E+01  0.18250890359E+01  0.51109989000E-03 0. -1.
      611    1    1    2    0    0  0.37917209872E-01  0.75476047244E-01  0.36708522386E+01  0.36718239020E+01  0.51109989000E-03 0.  1.
</event>
<event>
 6   3  0.2312675E+03  0.9118800E+02  0.7818608E-02  0.1180000E+00
       11   -1    0    0    0    0  0.00000000000E+00  0.00000000000E+00  0.54999999763E+01  0.55000000000E+01  0.51109989000E-03 0.  1.
     -623   -1    0    0    0    0  0.00000000000E+00  0.00000000000E+00  0.93234578044E-11  0.17124000000E+03  0.17124000000E+03 0.  1.
       11    1    1    2    0    0 -0.23062031611E-01  0.52262866630E-01  0.72716709508E+00  0.72940764317E+00  0.51109989000E-03 0.  1.
     -623    1    1    2    0    0  0.17942769261E-02 -0.65630325934E-02  0.30725951856E-02  0.17124000016E+03  0.17124000000E+03 0.  1.
     -611    1    1    2    0    0 -0.20218383185E-01  0.65339609514E-02  0.15089198415E+01  0.15090695229E+01  0.51109989000E-03 0. -1.
      611    1    1    2    0    0  0.41486137870E-01 -0.52233794988E-01  0.32608404445E+01  0.32615226712E+01  0.51109989000E-03 0.  1.
</event>
<event>
 6   3  0.2312675E+03  0.9118800E+02  0.7818608E-02  0.1180000E+00
       11   -1    0    0    0    0  0.00000000000E+00  0.00000000000E+00  0.54999999763E+01  0.55000000000E+01  0.51109989000E-03 0.  1.
     -623   -1    0    0    0    0  0.00000000000E+00  0.00000000000E+00  0.93234578044E-11  0.17124000000E+03  0.17124000000E+03 0. -1.
       11    1    1    2    0    0 -0.64562105728E-03 -0.35931979666E-04  0.64581045082E-03  0.10470968879E-02  0.51109989000E-03 0.  1.
     -623    1    1    2    0    0  0.51244260981E-02 -0.11867057912E-01  0.10402211610E-02  0.17124000049E+03  0.17124000000E+03 0. -1.
     -611    1    1    2    0    0 -0.43023302022E-01  0.11346441581E-01  0.33072842814E+01  0.33075836083E+01  0.51109989000E-03 0.  1.
      611    1    1    2    0    0  0.38544496981E-01  0.55654830955E-03  0.21910296631E+01  0.21913688037E+01  0.51109989000E-03 0. -1.
</event>
<event>
 6   3  0.2312675E+03  0.9118800E+02  0.7818608E-02  0.1180000E+00
       11   -1    0    0    0    0  0.00000000000E+00  0.00000000000E+00  0.54999999763E+01  0.55000000000E+01  0.51109989000E-03 0.  1.
     -623   -1    0    0    0    0  0.00000000000E+00  0.00000000000E+00  0.93234578044E-11  0.17124000000E+03  0.17124000000E+03 0.  1.
       11    1    1    2    0    0 -0.74987984030E-01  0.66135241732E-02  0.80765320595E+00  0.81115405366E+00  0.51109989000E-03 0.  1.
     -623    1    1    2    0    0  0.13708049726E-01  0.41401845392E-02  0.39232615986E-02  0.17124000064E+03  0.17124000000E+03 0.  1.
     -611    1    1    2    0    0  0.29346733356E-01 -0.39964424507E-02  0.19034507917E+01  0.19036812706E+01  0.51109989000E-03 0. -1.
      611    1    1    2    0    0  0.31933200947E-01 -0.67572662614E-02  0.27849727169E+01  0.27851640320E+01  0.51109989000E-03 0.  1.
</event>
<event>
 6   3  0.2312675E+03  0.9118800E+02  0.7818608E-02  0.1180000E+00
       11   -1    0    0    0    0  0.00000000000E+00  0.00000000000E+00  0.54999999763E+01  0.55000000000E+01  0.51109989000E-03 0. -1.
     -623   -1    0    0    0    0  0.00000000000E+00  0.00000000000E+00  0.93234578044E-11  0.17124000000E+03  0.17124000000E+03 0. -1.
       11    1    1    2    0    0  0.19107734277E-01 -0.26541703669E-01  0.10876147065E+01  0.10881064188E+01  0.51109989000E-03 0. -1.
     -623    1    1    2    0    0 -0.71046256716E-03  0.23781033184E-01  0.14024945178E-02  0.17124000166E+03  0.17124000000E+03 0. -1.
     -611    1    1    2    0    0  0.22650032476E-01 -0.29561112515E-01  0.19219197018E+01  0.19222805427E+01  0.51109989000E-03 0.  1.
      611    1    1    2    0    0 -0.41047304186E-01  0.32321782999E-01  0.24890630735E+01  0.24896113801E+01  0.51109989000E-03 0. -1.
</event>
<event>
 6   3  0.2312675E+03  0.9118800E+02  0.7818608E-02  0.1180000E+00
       11   -1    0    0    0    0  0.00000000000E+00  0.00000000000E+00  0.54999999763E+01  0.55000000000E+01  0.51109989000E-03 0.  1.
     -623   -1    0    0    0    0  0.00000000000E+00  0.00000000000E+00  0.93234578044E-11  0.17124000000E+03  0.17124000000E+03 0.  1.
       11    1    1    2    0    0  0.10856687683E-02  0.57842753850E-02  0.82801720388E-01  0.83012183688E-01  0.51109989000E-03 0.  1.
     -623    1    1    2    0    0 -0.81086540858E-02 -0.51339070241E-02  0.91902984718E-03  0.17124000027E+03  0.17124000000E+03 0.  1.
     -611    1    1    2    0    0 -0.32080298075E-01  0.25044424846E-01  0.26514508340E+01  0.26517632162E+01  0.51109989000E-03 0. -1.
      611    1    1    2    0    0  0.39103283393E-01 -0.25694793207E-01  0.27648283920E+01  0.27652243286E+01  0.51109989000E-03 0.  1.
</event>
<event>
 6   3  0.2312675E+03  0.9118800E+02  0.7818608E-02  0.1180000E+00
       11   -1    0    0    0    0  0.00000000000E+00  0.00000000000E+00  0.54999999763E+01  0.55000000000E+01  0.51109989000E-03 0. -1.
     -623   -1    0    0    0    0  0.00000000000E+00  0.00000000000E+00  0.93234578044E-11  0.17124000000E+03  0.17124000000E+03 0.  1.
       11    1    1    2    0    0  0.30140349917E-03 -0.41999206942E-03 -0.80316334234E-04  0.73137624981E-03  0.51109989000E-03 0. -1.
     -623    1    1    2    0    0 -0.51208130225E-02  0.19060023103E-02  0.33288445288E-02  0.17124000012E+03  0.17124000000E+03 0.  1.
     -611    1    1    2    0    0 -0.68346641982E-01  0.15169646464E-01  0.13300299903E+01  0.13318713969E+01  0.51109989000E-03 0.  1.
      611    1    1    2    0    0  0.73166051505E-01 -0.16655656705E-01  0.41667214578E+01  0.41673971073E+01  0.51109989000E-03 0. -1.
</event>
<event>
 6   3  0.2312675E+03  0.9118800E+02  0.7818608E-02  0.1180000E+00
       11   -1    0    0    0    0  0.00000000000E+00  0.00000000000E+00  0.54999999763E+01  0.55000000000E+01  0.51109989000E-03 0.  1.
     -623   -1    0    0    0    0  0.00000000000E+00  0.00000000000E+00  0.93234578044E-11  0.17124000000E+03  0.17124000000E+03 0. -1.
       11    1    1    2    0    0 -0.21481110469E-01  0.27623899027E-01  0.90291021680E+00  0.90358820197E+00  0.51109989000E-03 0.  1.
     -623    1    1    2    0    0 -0.32751397488E-01 -0.22500399039E-01  0.24920883927E-02  0.17124000463E+03  0.17124000000E+03 0. -1.
     -611    1    1    2    0    0 -0.36440326835E-01  0.78306226657E-02  0.14086503953E+01  0.14091435035E+01  0.51109989000E-03 0.  1.
      611    1    1    2    0    0  0.90672834792E-01 -0.12954122654E-01  0.31859472757E+01  0.31872636661E+01  0.51109989000E-03 0. -1.
</event>
<event>
 6   3  0.2312675E+03  0.9118800E+02  0.7818608E-02  0.1180000E+00
       11   -1    0    0    0    0  0.00000000000E+00  0.00000000000E+00  0.54999999763E+01  0.55000000000E+01  0.51109989000E-03 0.  1.
     -623   -1    0    0    0    0  0.00000000000E+00  0.00000000000E+00  0.93234578044E-11  0.17124000000E+03  0.17124000000E+03 0.  1.
       11    1    1    2    0    0 -0.26330996824E-02 -0.15243941649E-01  0.75686465135E+00  0.75702290101E+00  0.51109989000E-03 0.  1.
     -623    1    1    2    0    0  0.58726868292E-01  0.24459586018E-01  0.51149356622E-03  0.17124001182E+03  0.17124000000E+03 0.  1.
     -611    1    1    2    0    0 -0.49824893290E-01 -0.81858062718E-02  0.41508146668E+01  0.41511217986E+01  0.51109989000E-03 0.  1.
      611    1    1    2    0    0 -0.62688753117E-02 -0.10298380939E-02  0.59180916382E+00  0.59184348181E+00  0.51109989000E-03 0.  1.
</event>
<event>
 6   3  0.2312675E+03  0.9118800E+02  0.7818608E-02  0.1180000E+00
       11   -1    0    0    0    0  0.00000000000E+00  0.00000000000E+00  0.54999999763E+01  0.55000000000E+01  0.51109989000E-03 0.  1.
     -623   -1    0    0    0    0  0.00000000000E+00  0.00000000000E+00  0.93234578044E-11  0.17124000000E+03  0.17124000000E+03 0. -1.
       11    1    1    2    0    0 -0.21974406542E-02  0.78389911070E-03  0.21069964785E-02  0.31849490581E-02  0.51109989000E-03 0. -1.
     -623    1    1    2    0    0 -0.14730876374E-01  0.68458105891E-02  0.62908343290E-02  0.17124000089E+03  0.17124000000E+03 0. -1.
     -611    1    1    2    0    0 -0.90145766440E-01 -0.29207061676E-01  0.40388767503E+01  0.40399882397E+01  0.51109989000E-03 0.  1.
      611    1    1    2    0    0  0.10707408347E+00  0.21577351976E-01  0.14527253952E+01  0.14568259253E+01  0.51109989000E-03 0. -1.
</event>
<event>
 6   3  0.2312675E+03  0.9118800E+02  0.7818608E-02  0.1180000E+00
       11   -1    0    0    0    0  0.00000000000E+00  0.00000000000E+00  0.54999999763E+01  0.55000000000E+01  0.51109989000E-03 0.  1.
     -623   -1    0    0    0    0  0.00000000000E+00  0.00000000000E+00  0.93234578044E-11  0.17124000000E+03  0.17124000000E+03 0. -1.
       11    1    1    2    0    0  0.29282691522E-01 -0.13375853995E-01  0.93606957203E+00  0.93662313360E+00  0.51109989000E-03 0.  1.
     -623    1    1    2    0    0  0.11087722398E-01 -0.41427656185E-02  0.15423605810E-02  0.17124000042E+03  0.17124000000E+03 0. -1.
     -611    1    1    2    0    0 -0.61945993049E-01 -0.56207661318E-02  0.26743699477E+01  0.26750932278E+01  0.51109989000E-03 0.  1.
      611    1    1    2    0    0  0.21575579129E-01  0.23139385746E-01  0.18880180958E+01  0.18882832224E+01  0.51109989000E-03 0. -1.
</event>
<event>
 6   3  0.2312675E+03  0.9118800E+02  0.7818608E-02  0.1180000E+00
       11   -1    0    0    0    0  0.00000000000E+00  0.00000000000E+00  0.54999999763E+01  0.55000000000E+01  0.51109989000E-03 0. -1.
     -623   -1    0    0    0    0  0.00000000000E+00  0.00000000000E+00  0.93234578044E-11  0.17124000000E+03  0.17124000000E+03 0. -1.
       11    1    1    2    0    0  0.75755962465E-02  0.33854982717E-02  0.73734710113E-01  0.74201886469E-01  0.51109989000E-03 0. -1.
     -623    1    1    2    0    0  0.42892409891E-02 -0.27636325867E-02  0.12746840615E-02  0.17124000008E+03  0.17124000000E+03 0. -1.
     -611    1    1    2    0    0  0.38846684094E-01  0.10231306740E-01  0.18892168409E+01  0.18896439553E+01  0.51109989000E-03 0.  1.
      611    1    1    2    0    0 -0.50711521329E-01 -0.10853172425E-01  0.35357737411E+01  0.35361540774E+01  0.51109989000E-03 0. -1.
</event>
<event>
 6   3  0.2312675E+03  0.9118800E+02  0.7818608E-02  0.1180000E+00
       11   -1    0    0    0    0  0.00000000000E+00  0.00000000000E+00  0.54999999763E+01  0.55000000000E+01  0.51109989000E-03 0.  1.
     -623   -1    0    0    0    0  0.00000000000E+00  0.00000000000E+00  0.93234578044E-11  0.17124000000E+03  0.17124000000E+03 0.  1.
       11    1    1    2    0    0 -0.40383095150E-02 -0.11184862809E-01  0.65396633164E+00  0.65407463889E+00  0.51109989000E-03 0.  1.
     -623    1    1    2    0    0  0.52306702136E-04 -0.10319520106E-02  0.45255390715E-03  0.17124000000E+03  0.17124000000E+03 0.  1.
     -611    1    1    2    0    0  0.30026190133E-01  0.38545122032E-02  0.23825087399E+01  0.23827011114E+01  0.51109989000E-03 0.  1.
      611    1    1    2    0    0 -0.26040187321E-01  0.83623026166E-02  0.24630723505E+01  0.24632242457E+01  0.51109989000E-03 0. -1.
</event>
<event>
 6   3  0.2312675E+03  0.9118800E+02  0.7818608E-02  0.1180000E+00
       11   -1    0    0    0    0  0.00000000000E+00  0.00000000000E+00  0.54999999763E+01  0.55000000000E+01  0.51109989000E-03 0. -1.
     -623   -1    0    0    0    0  0.00000000000E+00  0.00000000000E+00  0.93234578044E-11  0.17124000000E+03  0.17124000000E+03 0. -1.
       11    1    1    2    0    0  0.10906519609E-01 -0.29680690345E-02  0.67696365107E-01  0.68635418521E-01  0.51109989000E-03 0. -1.
     -623    1    1    2    0    0  0.52155926148E-02  0.27849160216E-02  0.31649206019E-02  0.17124000013E+03  0.17124000000E+03 0. -1.
     -611    1    1    2    0    0  0.47876085595E-01 -0.35822465991E-01  0.39049751166E+01  0.39054329198E+01  0.51109989000E-03 0. -1.
      611    1    1    2    0    0 -0.63998197818E-01  0.36005619003E-01  0.15241635740E+01  0.15259315304E+01  0.51109989000E-03 0.  1.
</event>
<event>
 6   3  0.2312675E+03  0.9118800E+02  0.7818608E-02  0.1180000E+00
       11   -1    0    0    0    0  0.00000000000E+00  0.00000000000E+00  0.54999999763E+01  0.55000000000E+01  0.51109989000E-03 0.  1.
     -623   -1    0    0    0    0  0.00000000000E+00  0.00000000000E+00  0.93234578044E-11  0.17124000000E+03  0.17124000000E+03 0. -1.
       11    1    1    2    0    0 -0.40006235523E-02 -0.28561974243E-01  0.42426910671E+00  0.42524854790E+00  0.51109989000E-03 0.  1.
     -623    1    1    2    0    0 -0.47375228278E-01  0.88613537430E-02  0.12849095943E-02  0.17124000679E+03  0.17124000000E+03 0. -1.
     -611    1    1    2    0    0  0.44263606258E-01  0.16599234176E-01  0.43868705280E+01  0.43871252652E+01  0.51109989000E-03 0.  1.
      611    1    1    2    0    0  0.71122455779E-02  0.31013863257E-02  0.68757543253E+00  0.68761940001E+00  0.51109989000E-03 0. -1.
</event>
<event>
 6   3  0.2312675E+03  0.9118800E+02  0.7818608E-02  0.1180000E+00
       11   -1    0    0    0    0  0.00000000000E+00  0.00000000000E+00  0.54999999763E+01  0.55000000000E+01  0.51109989000E-03 0.  1.
     -623   -1    0    0    0    0  0.00000000000E+00  0.00000000000E+00  0.93234578044E-11  0.17124000000E+03  0.17124000000E+03 0.  1.
       11    1    1    2    0    0  0.59844527971E-01 -0.11362128576E-01  0.53799678625E+00  0.54143445469E+00  0.51109989000E-03 0.  1.
     -623    1    1    2    0    0  0.65114657960E-02 -0.39428832773E-02  0.39104575369E-02  0.17124000021E+03  0.17124000000E+03 0.  1.
     -611    1    1    2    0    0 -0.13069961984E-01  0.28674457716E-02  0.79109701480E+00  0.79121033499E+00  0.51109989000E-03 0. -1.
      611    1    1    2    0    0 -0.53286031784E-01  0.12437566082E-01  0.41669957178E+01  0.41673549966E+01  0.51109989000E-03 0.  1.
</event>
<event>
 6   3  0.2312675E+03  0.9118800E+02  0.7818608E-02  0.1180000E+00
       11   -1    0    0    0    0  0.00000000000E+00  0.00000000000E+00  0.54999999763E+01  0.55000000000E+01  0.51109989000E-03 0.  1.
     -623   -1    0    0    0    0  0.00000000000E+00  0.00000000000E+00  0.93234578044E-11  0.17124000000E+03  0.17124000000E+03 0. -1.
       11    1    1    2    0    0 -0.84458548702E-02  0.88366465116E-02  0.20800314305E+00  0.20836263467E+00  0.51109989000E-03 0.  1.
     -623    1    1    2    0    0  0.83110053245E-03 -0.10948690248E-01  0.13868438296E-02  0.17124000036E+03  0.17124000000E+03 0. -1.
     -611    1    1    2    0    0 -0.47096763437E-01 -0.93093356674E-02  0.22310438124E+01  0.22315603337E+01  0.51109989000E-03 0.  1.
      611    1    1    2    0    0  0.54711517775E-01  0.11421379404E-01  0.30595661770E+01  0.30600766740E+01  0.51109989000E-03 0. -1.
</event>
<event>
 6   3  0.2312675E+03  0.9118800E+02  0.7818608E-02  0.1180000E+00
       11   -1    0    0    0    0  0.00000000000E+00  0.00000000000E+00  0.54999999763E+01  0.55000000000E+01  0.51109989000E-03 0. -1.
     -623   -1    0    0    0    0  0.00000000000E+00  0.00000000000E+00  0.93234578044E-11  0.17124000000E+03  0.17124000000E+03 0.  1.
       11    1    1    2    0    0 -0.63754096597E-01  0.24689917675E-01  0.19975290720E+00  0.21112949114E+00  0.51109989000E-03 0. -1.
     -623    1    1    2    0    0 -0.21223014245E-01  0.13484522421E-01  0.12314844502E-01  0.17124000229E+03  0.17124000000E+03 0.  1.
     -611    1    1    2    0    0  0.21602740453E-01 -0.27121133897E-01  0.16101275882E+01  0.16105009611E+01  0.51109989000E-03 0.  1.
      611    1    1    2    0    0  0.63374370390E-01 -0.11053306199E-01  0.36778046364E+01  0.36783672589E+01  0.51109989000E-03 0. -1.
</event>
<event>
 6   3  0.2312675E+03  0.9118800E+02  0.7818608E-02  0.1180000E+00
       11   -1    0    0    0    0  0.00000000000E+00  0.00000000000E+00  0.54999999763E+01  0.55000000000E+01  0.51109989000E-03 0.  1.
     -623   -1    0    0    0    0  0.00000000000E+00  0.00000000000E+00  0.93234578044E-11  0.17124000000E+03  0.17124000000E+03 0.  1.
       11    1    1    2    0    0  0.10406672971E-02  0.80834401284E-02  0.31151408948E-01  0.32203982600E-01  0.51109989000E-03 0.  1.
     -623    1    1    2    0    0 -0.70094548778E-03 -0.51679457530E-02  0.34740665710E-02  0.17124000011E+03  0.17124000000E+03 0.  1.
     -611    1    1    2    0    0 -0.71356755279E-01 -0.40616935786E-01  0.26281285241E+01  0.26294108318E+01  0.51109989000E-03 0. -1.
      611    1    1    2    0    0  0.71017033470E-01  0.37701441411E-01  0.28372459766E+01  0.28383850709E+01  0.51109989000E-03 0.  1.
</event>
<event>
 6   3  0.2312675E+03  0.9118800E+02  0.7818608E-02  0.1180000E+00
       11   -1    0    0    0    0  0.00000000000E+00  0.00000000000E+00  0.54999999763E+01  0.55000000000E+01  0.51109989000E-03 0. -1.
     -623   -1    0    0    0    0  0.00000000000E+00  0.00000000000E+00  0.93234578044E-11  0.17124000000E+03  0.17124000000E+03 0. -1.
       11    1    1    2    0    0  0.42995956455E-01 -0.33336900957E-01  0.49737688889E+00  0.50034391378E+00  0.51109989000E-03 0. -1.
     -623    1    1    2    0    0 -0.21605483057E-01  0.49581914386E-01  0.34174746166E-02  0.17124000858E+03  0.17124000000E+03 0. -1.
     -611    1    1    2    0    0  0.19668891349E-01  0.40551036839E-02  0.12380650833E+01  0.12382280569E+01  0.51109989000E-03 0.  1.
      611    1    1    2    0    0 -0.41059364747E-01 -0.20300117113E-01  0.37611405294E+01  0.37614194541E+01  0.51109989000E-03 0. -1.
</event>
<event>
 6   3  0.2312675E+03  0.9118800E+02  0.7818608E-02  0.1180000E+00
       11   -1    0    0    0    0  0.00000000000E+00  0.00000000000E+00  0.54999999763E+01  0.55000000000E+01  0.51109989000E-03 0.  1.
     -623   -1    0    0    0    0  0.00000000000E+00  0.00000000000E+00  0.93234578044E-11  0.17124000000E+03  0.17124000000E+03 0. -1.
       11    1    1    2    0    0  0.85818711078E-01 -0.40972760386E-01  0.51661682829E+00  0.52529689392E+00  0.51109989000E-03 0.  1.
     -623    1    1    2    0    0  0.73278212481E-02  0.23866054858E-01  0.95840955080E-02  0.17124000209E+03  0.17124000000E+03 0. -1.
     -611    1    1    2    0    0 -0.29083317179E-01  0.56194139622E-02  0.15962522369E+01  0.15965271317E+01  0.51109989000E-03 0. -1.
      611    1    1    2    0    0 -0.64063215116E-01  0.11487291559E-01  0.33775468139E+01  0.33781738846E+01  0.51109989000E-03 0.  1.
</event>
<event>
 6   3  0.2312675E+03  0.9118800E+02  0.7818608E-02  0.1180000E+00
       11   -1    0    0    0    0  0.00000000000E+00  0.00000000000E+00  0.54999999763E+01  0.55000000000E+01  0.51109989000E-03 0. -1.
     -623   -1    0    0    0    0  0.00000000000E+00  0.00000000000E+00  0.93234578044E-11  0.17124000000E+03  0.17124000000E+03 0. -1.
       11    1    1    2    0    0 -0.10756337819E-01 -0.64924966958E-03  0.20155366604E+00  0.20184217063E+00  0.51109989000E-03 0. -1.
     -623    1    1    2    0    0  0.69966276830E-02 -0.76955376871E-02  0.73323716847E-03  0.17124000032E+03  0.17124000000E+03 0. -1.
     -611    1    1    2    0    0 -0.31211438799E-01 -0.28187790042E-02  0.27822884405E+01  0.27824649731E+01  0.51109989000E-03 0.  1.
      611    1    1    2    0    0  0.34971148936E-01  0.11163566361E-01  0.25154246326E+01  0.25156925388E+01  0.51109989000E-03 0. -1.
</event>
<event>
 6   3  0.2312675E+03  0.9118800E+02  0.7818608E-02  0.1180000E+00
       11   -1    0    0    0    0  0.00000000000E+00  0.00000000000E+00  0.54999999763E+01  0.55000000000E+01  0.51109989000E-03 0. -1.
     -623   -1    0    0    0    0  0.00000000000E+00  0.00000000000E+00  0.93234578044E-11  0.17124000000E+03  0.17124000000E+03 0.  1.
       11    1    1    2    0    0  0.15929663316E-01 -0.86826520451E-02  0.75803127102E+00  0.75824851579E+00  0.51109989000E-03 0. -1.
     -623    1    1    2    0    0 -0.85285410222E-03 -0.25352980662E-02  0.18143199404E-02  0.17124000003E+03  0.17124000000E+03 0.  1.
     -611    1    1    2    0    0 -0.55345566768E-01  0.30054812118E-01  0.38242880739E+01  0.38248066561E+01  0.51109989000E-03 0. -1.
      611    1    1    2    0    0  0.40268757554E-01 -0.18836862007E-01  0.91586631137E+00  0.91694479754E+00  0.51109989000E-03 0.  1.
</event>
<event>
 6   3  0.2312675E+03  0.9118800E+02  0.7818608E-02  0.1180000E+00
       11   -1    0    0    0    0  0.00000000000E+00  0.00000000000E+00  0.54999999763E+01  0.55000000000E+01  0.51109989000E-03 0.  1.
     -623   -1    0    0    0    0  0.00000000000E+00  0.00000000000E+00  0.93234578044E-11  0.17124000000E+03  0.17124000000E+03 0. -1.
       11    1    1    2    0    0  0.69911075758E-01  0.11451576316E-01  0.82171469152E-01  0.10849474033E+00  0.51109989000E-03 0.  1.
     -623    1    1    2    0    0  0.62455489244E-01  0.48189082410E-01  0.28302924874E-01  0.17124002051E+03  0.17124000000E+03 0. -1.
     -611    1    1    2    0    0 -0.45395333777E-01 -0.19088610840E-01  0.17242063167E+01  0.17249095035E+01  0.51109989000E-03 0. -1.
      611    1    1    2    0    0 -0.86971231224E-01 -0.40552047886E-01  0.36653192655E+01  0.36665752471E+01  0.51109989000E-03 0.  1.
</event>
<event>
 6   3  0.2312675E+03  0.9118800E+02  0.7818608E-02  0.1180000E+00
       11   -1    0    0    0    0  0.00000000000E+00  0.00000000000E+00  0.54999999763E+01  0.55000000000E+01  0.51109989000E-03 0. -1.
     -623   -1    0    0    0    0  0.00000000000E+00  0.00000000000E+00  0.93234578044E-11  0.17124000000E+03  0.17124000000E+03 0.  1.
       11    1    1    2    0    0 -0.21504704790E-02 -0.67338984474E-02  0.95655600873E-02  0.11905086075E-01  0.51109989000E-03 0. -1.
     -623    1    1    2    0    0 -0.58335512321E-02  0.83706994528E-02  0.39815578594E-02  0.17124000035E+03  0.17124000000E+03 0.  1.
     -611    1    1    2    0    0 -0.57553706507E-01  0.15353744367E-01  0.34556064727E+01  0.34561198651E+01  0.51109989000E-03 0.  1.
      611    1    1    2    0    0  0.65537728218E-01 -0.16990545373E-01  0.20308463855E+01  0.20319746985E+01  0.51109989000E-03 0. -1.
</event>
<event>
 6   3  0.2312675E+03  0.9118800E+02  0.7818608E-02  0.1180000E+00
       11   -1    0    0    0    0  0.00000000000E+00  0.00000000000E+00  0.54999999763E+01  0.55000000000E+01  0.51109989000E-03 0.  1.
     -623   -1    0    0    0    0  0.00000000000E+00  0.00000000000E+00  0.93234578044E-11  0.17124000000E+03  0.17124000000E+03 0. -1.
       11    1    1    2    0    0 -0.50353467902E-01 -0.17073022633E-01  0.33183025999E+00  0.33606330132E+00  0.51109989000E-03 0.  1.
     -623    1    1    2    0    0 -0.22829090951E-01 -0.32782625712E-01  0.49971611262E-02  0.17124000473E+03  0.17124000000E+03 0. -1.
     -611    1    1    2    0    0  0.35369514075E-01  0.23830456182E-01  0.24847763198E+01  0.24851423528E+01  0.51109989000E-03 0.  1.
      611    1    1    2    0    0  0.37813044719E-01  0.26025192123E-01  0.26783962312E+01  0.26787896090E+01  0.51109989000E-03 0.  1.
</event>
<event>
 6   3  0.2312675E+03  0.9118800E+02  0.7818608E-02  0.1180000E+00
       11   -1    0    0    0    0  0.00000000000E+00  0.00000000000E+00  0.54999999763E+01  0.55000000000E+01  0.51109989000E-03 0.  1.
     -623   -1    0    0    0    0  0.00000000000E+00  0.00000000000E+00  0.93234578044E-11  0.17124000000E+03  0.17124000000E+03 0.  1.
       11    1    1    2    0    0  0.11430195586E+00  0.75270296419E-01  0.10679095905E+01  0.10766437244E+01  0.51109989000E-03 0.  1.
     -623    1    1    2    0    0 -0.11171174691E-01  0.24799798888E-02  0.10645063125E-01  0.17124000071E+03  0.17124000000E+03 0.  1.
     -611    1    1    2    0    0 -0.86930441867E-01 -0.59902610684E-01  0.34755738653E+01  0.34771768979E+01  0.51109989000E-03 0.  1.
      611    1    1    2    0    0 -0.16200339305E-01 -0.17847665623E-01  0.94587145725E+00  0.94617866444E+00  0.51109989000E-03 0. -1.
</event>
<event>
 6   3  0.2312675E+03  0.9118800E+02  0.7818608E-02  0.1180000E+00
       11   -1    0    0    0    0  0.00000000000E+00  0.00000000000E+00  0.54999999763E+01  0.55000000000E+01  0.51109989000E-03 0.  1.
     -623   -1    0    0    0    0  0.00000000000E+00  0.00000000000E+00  0.93234578044E-11  0.17124000000E+03  0.17124000000E+03 0. -1.
       11    1    1    2    0    0  0.32833516034E-02  0.72410381936E-03  0.15822045835E+00  0.15825700423E+00  0.51109989000E-03 0.  1.
     -623    1    1    2    0    0 -0.10201127131E+00 -0.44919678911E-01  0.11691036861E-02  0.17124003628E+03  0.17124000000E+03 0. -1.
     -611    1    1    2    0    0  0.15695604346E-01  0.65609549900E-02  0.79290530996E+00  0.79308794589E+00  0.51109989000E-03 0. -1.
      611    1    1    2    0    0  0.83032316071E-01  0.37634620415E-01  0.45477051426E+01  0.45486188074E+01  0.51109989000E-03 0.  1.
</event>
<event>
 6   3  0.2312675E+03  0.9118800E+02  0.7818608E-02  0.1180000E+00
       11   -1    0    0    0    0  0.00000000000E+00  0.00000000000E+00  0.54999999763E+01  0.55000000000E+01  0.51109989000E-03 0.  1.
     -623   -1    0    0    0    0  0.00000000000E+00  0.00000000000E+00  0.93234578044E-11  0.17124000000E+03  0.17124000000E+03 0. -1.
       11    1    1    2    0    0  0.15860035856E-01 -0.11671896561E-01  0.85040325046E+00  0.85063136758E+00  0.51109989000E-03 0.  1.
     -623    1    1    2    0    0 -0.63153910929E-01  0.11160109951E-01  0.48082481818E-03  0.17124001201E+03  0.17124000000E+03 0. -1.
     -611    1    1    2    0    0  0.27580012108E-01  0.49699329274E-03  0.27287668087E+01  0.27289062757E+01  0.51109989000E-03 0.  1.
      611    1    1    2    0    0  0.19713862932E-01  0.14793313342E-04  0.19203490890E+01  0.19204503434E+01  0.51109989000E-03 0.  1.
</event>
<event>
 6   3  0.2312675E+03  0.9118800E+02  0.7818608E-02  0.1180000E+00
       11   -1    0    0    0    0  0.00000000000E+00  0.00000000000E+00  0.54999999763E+01  0.55000000000E+01  0.51109989000E-03 0.  1.
     -623   -1    0    0    0    0  0.00000000000E+00  0.00000000000E+00  0.93234578044E-11  0.17124000000E+03  0.17124000000E+03 0. -1.
       11    1    1    2    0    0  0.66124268095E-01 -0.49353123945E-01  0.91847108269E+00  0.92217001721E+00  0.51109989000E-03 0.  1.
     -623    1    1    2    0    0 -0.13903113636E-01  0.65776025121E-03  0.42976367883E-02  0.17124000062E+03  0.17124000000E+03 0. -1.
     -611    1    1    2    0    0 -0.38840308386E-01  0.46154732418E-01  0.37929165009E+01  0.37933961924E+01  0.51109989000E-03 0.  1.
      611    1    1    2    0    0 -0.13380846073E-01  0.25406312762E-02  0.78431475594E+00  0.78443317080E+00  0.51109989000E-03 0. -1.
</event>
<event>
 6   3  0.2312675E+03  0.9118800E+02  0.7818608E-02  0.1180000E+00
       11   -1    0    0    0    0  0.00000000000E+00  0.00000000000E+00  0.54999999763E+01  0.55000000000E+01  0.51109989000E-03 0.  1.
     -623   -1    0    0    0    0  0.00000000000E+00  0.00000000000E+00  0.93234578044E-11  0.17124000000E+03  0.17124000000E+03 0. -1.
       11    1    1    2    0    0  0.10006248312E+00 -0.18203487132E-01  0.71473709164E+00  0.72193714329E+00  0.51109989000E-03 0.  1.
     -623    1    1    2    0    0 -0.16516133493E-01  0.12384652830E-01  0.81137958137E-02  0.17124000144E+03  0.17124000000E+03 0. -1.
     -611    1    1    2    0    0 -0.44062535960E-01  0.22373460138E-01  0.29251991096E+01  0.29256165454E+01  0.51109989000E-03 0.  1.
      611    1    1    2    0    0 -0.39483813672E-01 -0.16554625836E-01  0.18519499792E+01  0.18524448747E+01  0.51109989000E-03 0. -1.
</event>
<event>
 6   3  0.2312675E+03  0.9118800E+02  0.7818608E-02  0.1180000E+00
       11   -1    0    0    0    0  0.00000000000E+00  0.00000000000E+00  0.54999999763E+01  0.55000000000E+01  0.51109989000E-03 0.  1.
     -623   -1    0    0    0    0  0.00000000000E+00  0.00000000000E+00  0.93234578044E-11  0.17124000000E+03  0.17124000000E+03 0.  1.
       11    1    1    2    0    0  0.11328229299E+00 -0.36801760547E-01  0.80849977892E+00  0.81722665230E+00  0.51109989000E-03 0.  1.
     -623    1    1    2    0    0 -0.49314041125E-02 -0.61944461919E-02  0.10182704284E-01  0.17124000049E+03  0.17124000000E+03 0.  1.
     -611    1    1    2    0    0 -0.95663411223E-01  0.37575028640E-01  0.40444598854E+01  0.40457656132E+01  0.51109989000E-03 0.  1.
      611    1    1    2    0    0 -0.12687477653E-01  0.54211780983E-02  0.63685760764E+00  0.63700724870E+00  0.51109989000E-03 0. -1.
</event>
<event>
 6   3  0.2312675E+03  0.9118800E+02  0.7818608E-02  0.1180000E+00
       11   -1    0    0    0    0  0.00000000000E+00  0.00000000000E+00  0.54999999763E+01  0.55000000000E+01  0.51109989000E-03 0. -1.
     -623   -1    0    0    0    0  0.00000000000E+00  0.00000000000E+00  0.93234578044E-11  0.17124000000E+03  0.17124000000E+03 0. -1.
       11    1    1    2    0    0 -0.41707377387E-01 -0.30170898296E-01  0.92367655467E-01  0.10574418864E+00  0.51109989000E-03 0. -1.
     -623    1    1    2    0    0 -0.22659701003E-01 -0.33416220749E-01  0.14141266248E-01  0.17124000534E+03  0.17124000000E+03 0. -1.
     -611    1    1    2    0    0  0.56943456970E-02  0.55586269131E-02  0.50335289658E+00  0.50341605420E+00  0.51109989000E-03 0. -1.
      611    1    1    2    0    0  0.58672732698E-01  0.58028492138E-01  0.48901381584E+01  0.48908344140E+01  0.51109989000E-03 0. -1.
</event>
<event>
 6   3  0.2312675E+03  0.9118800E+02  0.7818608E-02  0.1180000E+00
       11   -1    0    0    0    0  0.00000000000E+00  0.00000000000E+00  0.54999999763E+01  0.55000000000E+01  0.51109989000E-03 0. -1.
     -623   -1    0    0    0    0  0.00000000000E+00  0.00000000000E+00  0.93234578044E-11  0.17124000000E+03  0.17124000000E+03 0. -1.
       11    1    1    2    0    0 -0.91683149372E-01 -0.45333395923E-01  0.53382497408E+00  0.54353498585E+00  0.51109989000E-03 0. -1.
     -623    1    1    2    0    0  0.15407392481E-01 -0.24890239182E-01  0.10800667595E-01  0.17124000284E+03  0.17124000000E+03 0. -1.
     -611    1    1    2    0    0  0.55530992935E-01  0.52550281230E-01  0.37575347493E+01  0.37583125039E+01  0.51109989000E-03 0. -1.
      611    1    1    2    0    0  0.20744763953E-01  0.17673353871E-01  0.11978395851E+01  0.11981496674E+01  0.51109989000E-03 0.  1.
</event>
<event>
 6   3  0.2312675E+03  0.9118800E+02  0.7818608E-02  0.1180000E+00
       11   -1    0    0    0    0  0.00000000000E+00  0.00000000000E+00  0.54999999763E+01  0.55000000000E+01  0.51109989000E-03 0.  1.
     -623   -1    0    0    0    0  0.00000000000E+00  0.00000000000E+00  0.93234578044E-11  0.17124000000E+03  0.17124000000E+03 0.  1.
       11    1    1    2    0    0 -0.40536070353E-02 -0.15680318009E-01  0.16186438280E+00  0.16267342667E+00  0.51109989000E-03 0.  1.
     -623    1    1    2    0    0  0.10531746394E-01  0.24331103834E-02  0.12913868165E-02  0.17124000035E+03  0.17124000000E+03 0.  1.
     -611    1    1    2    0    0  0.30593340878E-01  0.13063393445E-01  0.30506871591E+01  0.30508685663E+01  0.51109989000E-03 0. -1.
      611    1    1    2    0    0 -0.37071480237E-01  0.18381418084E-03  0.22861570476E+01  0.22864576611E+01  0.51109989000E-03 0.  1.
</event>
<event>
 6   3  0.2312675E+03  0.9118800E+02  0.7818608E-02  0.1180000E+00
       11   -1    0    0    0    0  0.00000000000E+00  0.00000000000E+00  0.54999999763E+01  0.55000000000E+01  0.51109989000E-03 0.  1.
     -623   -1    0    0    0    0  0.00000000000E+00  0.00000000000E+00  0.93234578044E-11  0.17124000000E+03  0.17124000000E+03 0.  1.
       11    1    1    2    0    0  0.45355048321E-01  0.75480165250E-02  0.20354995405E+00  0.20867893516E+00  0.51109989000E-03 0.  1.
     -623    1    1    2    0    0  0.77038032737E-02  0.57876034293E-02  0.88308401190E-02  0.17124000050E+03  0.17124000000E+03 0.  1.
     -611    1    1    2    0    0 -0.86698968816E-01 -0.81554828758E-01  0.36416241416E+01  0.36435689305E+01  0.51109989000E-03 0.  1.
      611    1    1    2    0    0  0.33640117221E-01  0.68219208803E-01  0.16459950405E+01  0.16477516355E+01  0.51109989000E-03 0. -1.
</event>
<event>
 6   3  0.2312675E+03  0.9118800E+02  0.7818608E-02  0.1180000E+00
       11   -1    0    0    0    0  0.00000000000E+00  0.00000000000E+00  0.54999999763E+01  0.55000000000E+01  0.51109989000E-03 0.  1.
     -623   -1    0    0    0    0  0.00000000000E+00  0.00000000000E+00  0.93234578044E-11  0.17124000000E+03  0.17124000000E+03 0. -1.
       11    1    1    2    0    0 -0.24976368251E-02 -0.11144408681E-02  0.44342960474E-01  0.44430164695E-01  0.51109989000E-03 0.  1.
     -623    1    1    2    0    0  0.84613432415E-01  0.43238862673E-01  0.90907237966E-03  0.17124002637E+03  0.17124000000E+03 0. -1.
     -611    1    1    2    0    0 -0.67978936515E-01 -0.36868358713E-01  0.42802551721E+01  0.42809537502E+01  0.51109989000E-03 0.  1.
      611    1    1    2    0    0 -0.14136859054E-01 -0.52560630803E-02  0.11744927699E+01  0.11745897176E+01  0.51109989000E-03 0. -1.
</event>
<event>
 6   3  0.2312675E+03  0.9118800E+02  0.7818608E-02  0.1180000E+00
       11   -1    0    0    0    0  0.00000000000E+00  0.00000000000E+00  0.54999999763E+01  0.55000000000E+01  0.51109989000E-03 0.  1.
     -623   -1    0    0    0    0  0.00000000000E+00  0.00000000000E+00  0.93234578044E-11  0.17124000000E+03  0.17124000000E+03 0.  1.
       11    1    1    2    0    0  0.27263468754E-01  0.23943675850E-01  0.10510834343E+00  0.11119631929E+00  0.51109989000E-03 0.  1.
     -623    1    1    2    0    0 -0.81700440508E-02  0.47946227497E-01  0.88535438531E-02  0.17124000714E+03  0.17124000000E+03 0.  1.
     -611    1    1    2    0    0 -0.84959186844E-01 -0.58853067380E-01  0.36425162830E+01  0.36439822832E+01  0.51109989000E-03 0.  1.
      611    1    1    2    0    0  0.65865762140E-01 -0.13036835968E-01  0.17435218060E+01  0.17448142614E+01  0.51109989000E-03 0. -1.
</event>
<event>
 6   3  0.2312675E+03  0.9118800E+02  0.7818608E-02  0.1180000E+00
       11   -1    0    0    0    0  0.00000000000E+00  0.00000000000E+00  0.54999999763E+01  0.55000000000E+01  0.51109989000E-03 0. -1.
     -623   -1    0    0    0    0  0.00000000000E+00  0.00000000000E+00  0.93234578044E-11  0.17124000000E+03  0.17124000000E+03 0.  1.
       11    1    1    2    0    0 -0.58033321597E-01 -0.66034180907E-01  0.84105002836E+00  0.84563218416E+00  0.51109989000E-03 0. -1.
     -623    1    1    2    0    0  0.68064183437E-02  0.25355244541E-01  0.50443357442E-02  0.17124000209E+03  0.17124000000E+03 0.  1.
     -611    1    1    2    0    0  0.76980326585E-02  0.62190389143E-02  0.67099593825E+00  0.67106910712E+00  0.51109989000E-03 0.  1.
      611    1    1    2    0    0  0.43528870575E-01  0.34459897436E-01  0.39829096721E+01  0.39832966202E+01  0.51109989000E-03 0. -1.
</event>
<event>
 6   3  0.2312675E+03  0.9118800E+02  0.7818608E-02  0.1180000E+00
       11   -1    0    0    0    0  0.00000000000E+00  0.00000000000E+00  0.54999999763E+01  0.55000000000E+01  0.51109989000E-03 0.  1.
     -623   -1    0    0    0    0  0.00000000000E+00  0.00000000000E+00  0.93234578044E-11  0.17124000000E+03  0.17124000000E+03 0.  1.
       11    1    1    2    0    0  0.11106091415E+00  0.91076063657E-01  0.91585853267E+00  0.92705258164E+00  0.51109989000E-03 0.  1.
     -623    1    1    2    0    0 -0.17805477126E-01 -0.12099574943E-01  0.14109793146E-01  0.17124000193E+03  0.17124000000E+03 0.  1.
     -611    1    1    2    0    0 -0.39773191101E-01  0.46074560146E-02  0.26890874495E+01  0.26893855632E+01  0.51109989000E-03 0. -1.
      611    1    1    2    0    0 -0.53482245925E-01 -0.83583944729E-01  0.18809442010E+01  0.18835599207E+01  0.51109989000E-03 0.  1.
</event>
<event>
 6   3  0.2312675E+03  0.9118800E+02  0.7818608E-02  0.1180000E+00
       11   -1    0    0    0    0  0.00000000000E+00  0.00000000000E+00  0.54999999763E+01  0.55000000000E+01  0.51109989000E-03 0.  1.
     -623   -1    0    0    0    0  0.00000000000E+00  0.00000000000E+00  0.93234578044E-11  0.17124000000E+03  0.17124000000E+03 0. -1.
       11    1    1    2    0    0 -0.25556147629E-02 -0.10920413861E-01  0.31408490826E+00  0.31428550304E+00  0.51109989000E-03 0.  1.
     -623    1    1    2    0    0 -0.10581884463E-01  0.16839454161E-02  0.97414485512E-03  0.17124000034E+03  0.17124000000E+03 0. -1.
     -611    1    1    2    0    0  0.50335701759E-01  0.13275285269E-01  0.31163361388E+01  0.31167709424E+01  0.51109989000E-03 0.  1.
      611    1    1    2    0    0 -0.37198202533E-01 -0.40388168239E-02  0.20686047843E+01  0.20689432165E+01  0.51109989000E-03 0. -1.
</event>
<event>
 6   3  0.2312675E+03  0.9118800E+02  0.7818608E-02  0.1180000E+00
       11   -1    0    0    0    0  0.00000000000E+00  0.00000000000E+00  0.54999999763E+01  0.55000000000E+01  0.51109989000E-03 0.  1.
     -623   -1    0    0    0    0  0.00000000000E+00  0.00000000000E+00  0.93234578044E-11  0.17124000000E+03  0.17124000000E+03 0.  1.
       11    1    1    2    0    0 -0.39306904801E-01 -0.24775589706E-01  0.53341910045E+00  0.53543912871E+00  0.51109989000E-03 0.  1.
     -623    1    1    2    0    0 -0.27341480448E-01 -0.49307010285E-02  0.25619561718E-02  0.17124000227E+03  0.17124000000E+03 0.  1.
     -611    1    1    2    0    0  0.38127217304E-01  0.20056886270E-01  0.29419028039E+01  0.29422182673E+01  0.51109989000E-03 0.  1.
      611    1    1    2    0    0  0.28521167947E-01  0.96494044657E-02  0.20221161158E+01  0.20223403312E+01  0.51109989000E-03 0. -1.
</event>
<event>
 6   3  0.2312675E+03  0.9118800E+02  0.7818608E-02  0.1180000E+00
       11   -1    0    0    0    0  0.00000000000E+00  0.00000000000E+00  0.54999999763E+01  0.55000000000E+01  0.51109989000E-03 0. -1.
     -623   -1    0    0    0    0  0.00000000000E+00  0.00000000000E+00  0.93234578044E-11  0.17124000000E+03  0.17124000000E+03 0.  1.
       11    1    1    2    0    0  0.14368084867E-01  0.80481998256E-03  0.10299103685E+01  0.10300110281E+01  0.51109989000E-03 0. -1.
     -623    1    1    2    0    0 -0.69622976922E-01  0.90950007398E-03  0.45728032589E-03  0.17124001416E+03  0.17124000000E+03 0.  1.
     -611    1    1    2    0    0  0.48024104950E-01 -0.13758332274E-02  0.38321382149E+01  0.38324394016E+01  0.51109989000E-03 0. -1.
      611    1    1    2    0    0  0.72307867231E-02 -0.33848682444E-03  0.63749408242E+00  0.63753538348E+00  0.51109989000E-03 0.  1.
</event>
<event>
 6   3  0.2312675E+03  0.9118800E+02  0.7818608E-02  0.1180000E+00
       11   -1    0    0    0    0  0.00000000000E+00  0.00000000000E+00  0.54999999763E+01  0.55000000000E+01  0.51109989000E-03 0.  1.
     -623   -1    0    0    0    0  0.00000000000E+00  0.00000000000E+00  0.93234578044E-11  0.17124000000E+03  0.17124000000E+03 0.  1.
       11    1    1    2    0    0  0.27144813723E-02  0.27018379230E-02  0.30930604339E+00  0.30933017641E+00  0.51109989000E-03 0.  1.
     -623    1    1    2    0    0 -0.58383918710E-01 -0.18606070663E-01  0.35808315119E-03  0.17124001096E+03  0.17124000000E+03 0.  1.
     -611    1    1    2    0    0  0.25765264832E-01  0.72501831217E-02  0.23911951060E+01  0.23913449585E+01  0.51109989000E-03 0.  1.
      611    1    1    2    0    0  0.29904172307E-01  0.86540495542E-02  0.27991407250E+01  0.27993138823E+01  0.51109989000E-03 0.  1.
</event>
<event>
 6   3  0.2312675E+03  0.9118800E+02  0.7818608E-02  0.1180000E+00
       11   -1    0    0    0    0  0.00000000000E+00  0.00000000000E+00  0.54999999763E+01  0.55000000000E+01  0.51109989000E-03 0. -1.
     -623   -1    0    0    0    0  0.00000000000E+00  0.00000000000E+00  0.93234578044E-11  0.17124000000E+03  0.17124000000E+03 0.  1.
       11    1    1    2    0    0 -0.13724527095E+00  0.40563560186E-01  0.50963473995E+00  0.52934818050E+00  0.51109989000E-03 0. -1.
     -623    1    1    2    0    0  0.25357108830E-02 -0.62622037469E-01  0.21601047232E-01  0.17124001283E+03  0.17124000000E+03 0.  1.
     -611    1    1    2    0    0  0.72150598586E-01  0.11833615620E-01  0.26667660051E+01  0.26677681553E+01  0.51109989000E-03 0. -1.
      611    1    1    2    0    0  0.62558961587E-01  0.10224861681E-01  0.23019981880E+01  0.23028708367E+01  0.51109989000E-03 0. -1.
</event>
<event>
 6   3  0.2312675E+03  0.9118800E+02  0.7818608E-02  0.1180000E+00
       11   -1    0    0    0    0  0.00000000000E+00  0.00000000000E+00  0.54999999763E+01  0.55000000000E+01  0.51109989000E-03 0. -1.
     -623   -1    0    0    0    0  0.00000000000E+00  0.00000000000E+00  0.93234578044E-11  0.17124000000E+03  0.17124000000E+03 0.  1.
       11    1    1    2    0    0  0.17856786322E+00  0.90551673562E-01  0.99241361169E+00  0.10124085762E+01  0.51109989000E-03 0. -1.
     -623    1    1    2    0    0 -0.42478329200E-01 -0.46621990877E-01  0.22555991892E-01  0.17124001310E+03  0.17124000000E+03 0.  1.
     -611    1    1    2    0    0 -0.48291188108E-01 -0.38983583926E-01  0.15841380796E+01  0.15853534228E+01  0.51109989000E-03 0. -1.
      611    1    1    2    0    0 -0.87798345907E-01 -0.49460987581E-02  0.29008922931E+01  0.29022249001E+01  0.51109989000E-03 0.  1.
</event>
<event>
 6   3  0.2312675E+03  0.9118800E+02  0.7818608E-02  0.1180000E+00
       11   -1    0    0    0    0  0.00000000000E+00  0.00000000000E+00  0.54999999763E+01  0.55000000000E+01  0.51109989000E-03 0.  1.
     -623   -1    0    0    0    0  0.00000000000E+00  0.00000000000E+00  0.93234578044E-11  0.17124000000E+03  0.17124000000E+03 0.  1.
       11    1    1    2    0    0  0.14514321957E-01 -0.83948682771E-02  0.42667395381E-01  0.45846561561E-01  0.51109989000E-03 0.  1.
     -623    1    1    2    0    0 -0.85982570067E-02 -0.12743662130E-01  0.51062356711E-02  0.17124000077E+03  0.17124000000E+03 0.  1.
     -611    1    1    2    0    0  0.29542448279E-01 -0.52101243391E-01  0.29359626220E+01  0.29365735262E+01  0.51109989000E-03 0.  1.
      611    1    1    2    0    0 -0.35458513230E-01  0.73239773798E-01  0.25162637233E+01  0.25175791461E+01  0.51109989000E-03 0. -1.
</event>
<event>
 6   3  0.2312675E+03  0.9118800E+02  0.7818608E-02  0.1180000E+00
       11   -1    0    0    0    0  0.00000000000E+00  0.00000000000E+00  0.54999999763E+01  0.55000000000E+01  0.51109989000E-03 0.  1.
     -623   -1    0    0    0    0  0.00000000000E+00  0.00000000000E+00  0.93234578044E-11  0.17124000000E+03  0.17124000000E+03 0. -1.
       11    1    1    2    0    0  0.48696710064E-02  0.42342640319E-02  0.68014331480E-01  0.68321689070E-01  0.51109989000E-03 0.  1.
     -623    1    1    2    0    0  0.27265504696E-02 -0.37805648710E-03  0.95629191628E-03  0.17124000002E+03  0.17124000000E+03 0. -1.
     -611    1    1    2    0    0 -0.45499367798E-01 -0.50803275657E-02  0.27612526677E+01  0.27616322272E+01  0.51109989000E-03 0.  1.
      611    1    1    2    0    0  0.37903146322E-01  0.12241200209E-02  0.26697766852E+01  0.26700460589E+01  0.51109989000E-03 0. -1.
</event>
<event>
 6   3  0.2312675E+03  0.9118800E+02  0.7818608E-02  0.1180000E+00
       11   -1    0    0    0    0  0.00000000000E+00  0.00000000000E+00  0.54999999763E+01  0.55000000000E+01  0.51109989000E-03 0. -1.
     -623   -1    0    0    0    0  0.00000000000E+00  0.00000000000E+00  0.93234578044E-11  0.17124000000E+03  0.17124000000E+03 0.  1.
       11    1    1    2    0    0 -0.71183106498E-01 -0.34619963612E-01  0.59617882090E+00  0.60141086143E+00  0.51109989000E-03 0. -1.
     -623    1    1    2    0    0 -0.99634264334E-02  0.23502273489E-01  0.59210870107E-02  0.17124000201E+03  0.17124000000E+03 0.  1.
     -611    1    1    2    0    0  0.49755808158E-01  0.85028453485E-02  0.29251567697E+01  0.29255923037E+01  0.51109989000E-03 0. -1.
      611    1    1    2    0    0  0.31390724773E-01  0.26148447742E-02  0.19727432986E+01  0.19729948298E+01  0.51109989000E-03 0.  1.
</event>
<event>
 6   3  0.2312675E+03  0.9118800E+02  0.7818608E-02  0.1180000E+00
       11   -1    0    0    0    0  0.00000000000E+00  0.00000000000E+00  0.54999999763E+01  0.55000000000E+01  0.51109989000E-03 0. -1.
     -623   -1    0    0    0    0  0.00000000000E+00  0.00000000000E+00  0.93234578044E-11  0.17124000000E+03  0.17124000000E+03 0.  1.
       11    1    1    2    0    0 -0.85774240191E-01  0.84165148734E-01  0.52885592438E+00  0.54233738808E+00  0.51109989000E-03 0. -1.
     -623    1    1    2    0    0  0.19136655049E-01  0.64861409950E-02  0.14790027852E-01  0.17124000183E+03  0.17124000000E+03 0.  1.
     -611    1    1    2    0    0  0.25948064867E-01 -0.44271827454E-01  0.25462848657E+01  0.25468019505E+01  0.51109989000E-03 0.  1.
      611    1    1    2    0    0  0.40689520276E-01 -0.46379462275E-01  0.24100691584E+01  0.24108588305E+01  0.51109989000E-03 0. -1.
</event>
<event>
 6   3  0.2312675E+03  0.9118800E+02  0.7818608E-02  0.1180000E+00
       11   -1    0    0    0    0  0.00000000000E+00  0.00000000000E+00  0.54999999763E+01  0.55000000000E+01  0.51109989000E-03 0. -1.
     -623   -1    0    0    0    0  0.00000000000E+00  0.00000000000E+00  0.93234578044E-11  0.17124000000E+03  0.17124000000E+03 0.  1.
       11    1    1    2    0    0  0.30242166180E-01  0.47072832279E-01  0.88232814318E+00  0.88410047711E+00  0.51109989000E-03 0. -1.
     -623    1    1    2    0    0 -0.50414099804E-02  0.21710395498E-02  0.55936878297E-02  0.17124000018E+03  0.17124000000E+03 0.  1.
     -611    1    1    2    0    0  0.13835067716E-01 -0.76957711259E-01  0.86793738304E+00  0.87145250044E+00  0.51109989000E-03 0.  1.
      611    1    1    2    0    0 -0.39035823915E-01  0.27713839430E-01  0.37441407622E+01  0.37444468431E+01  0.51109989000E-03 0. -1.
</event>
<event>
 6   3  0.2312675E+03  0.9118800E+02  0.7818608E-02  0.1180000E+00
       11   -1    0    0    0    0  0.00000000000E+00  0.00000000000E+00  0.54999999763E+01  0.55000000000E+01  0.51109989000E-03 0. -1.
     -623   -1    0    0    0    0  0.00000000000E+00  0.00000000000E+00  0.93234578044E-11  0.17124000000E+03  0.17124000000E+03 0.  1.
       11    1    1    2    0    0  0.12500577993E-01 -0.11645330800E+00  0.40704945644E+00  0.42356482221E+00  0.51109989000E-03 0. -1.
     -623    1    1    2    0    0  0.75480207274E-01  0.10105410077E+00  0.17349533187E-01  0.17124004733E+03  0.17124000000E+03 0.  1.
     -611    1    1    2    0    0 -0.56650364604E-01  0.11344847380E-01  0.33024816771E+01  0.33029870509E+01  0.51109989000E-03 0. -1.
      611    1    1    2    0    0 -0.31330420659E-01  0.40543598547E-02  0.17731193093E+01  0.17734007949E+01  0.51109989000E-03 0.  1.
</event>
<event>
 6   3  0.2312675E+03  0.9118800E+02  0.7818608E-02  0.1180000E+00
       11   -1    0    0    0    0  0.00000000000E+00  0.00000000000E+00  0.54999999763E+01  0.55000000000E+01  0.51109989000E-03 0.  1.
     -623   -1    0    0    0    0  0.00000000000E+00  0.00000000000E+00  0.93234578044E-11  0.17124000000E+03  0.17124000000E+03 0. -1.
       11    1    1    2    0    0 -0.10425194060E-02  0.77173871333E-03  0.10973716283E-02  0.17742251666E-02  0.51109989000E-03 0.  1.
     -623    1    1    2    0    0  0.51637155956E-03 -0.23065820556E-03  0.26723666197E-02  0.17124000002E+03  0.17124000000E+03 0. -1.
     -611    1    1    2    0    0  0.54611178998E-01 -0.50500769605E-01  0.28660648274E+01  0.28670299204E+01  0.51109989000E-03 0.  1.
      611    1    1    2    0    0 -0.54085031151E-01  0.49959689097E-01  0.26301654106E+01  0.26311958326E+01  0.51109989000E-03 0. -1.
</event>
<event>
 6   3  0.2312675E+03  0.9118800E+02  0.7818608E-02  0.1180000E+00
       11   -1    0    0    0    0  0.00000000000E+00  0.00000000000E+00  0.54999999763E+01  0.55000000000E+01  0.51109989000E-03 0. -1.
     -623   -1    0    0    0    0  0.00000000000E+00  0.00000000000E+00  0.93234578044E-11  0.17124000000E+03  0.17124000000E+03 0. -1.
       11    1    1    2    0    0 -0.47695978199E-01  0.54683184236E-01  0.32586153880E+00  0.33384301800E+00  0.51109989000E-03 0. -1.
     -623    1    1    2    0    0 -0.31136634985E-01 -0.22311023314E-01  0.88663881298E-02  0.17124000451E+03  0.17124000000E+03 0. -1.
     -611    1    1    2    0    0  0.33026768372E-01 -0.36587650932E-01  0.25667432428E+01  0.25672165003E+01  0.51109989000E-03 0.  1.
      611    1    1    2    0    0  0.45805844812E-01  0.42154900094E-02  0.25985288066E+01  0.25989359679E+01  0.51109989000E-03 0. -1.
</event>
<event>
 6   3  0.2312675E+03  0.9118800E+02  0.7818608E-02  0.1180000E+00
       11   -1    0    0    0    0  0.00000000000E+00  0.00000000000E+00  0.54999999763E+01  0.55000000000E+01  0.51109989000E-03 0.  1.
     -623   -1    0    0    0    0  0.00000000000E+00  0.00000000000E+00  0.93234578044E-11  0.17124000000E+03  0.17124000000E+03 0. -1.
       11    1    1    2    0    0 -0.45844220102E-01  0.81937595848E-02  0.10913502294E+01  0.10923435424E+01  0.51109989000E-03 0.  1.
     -623    1    1    2    0    0  0.12094785639E+00 -0.26566860245E-01  0.17165329464E-02  0.17124004478E+03  0.17124000000E+03 0. -1.
     -611    1    1    2    0    0 -0.53573140497E-01  0.13088483193E-01  0.31677141951E+01  0.31681942606E+01  0.51109989000E-03 0.  1.
      611    1    1    2    0    0 -0.21530495894E-01  0.52846174911E-02  0.12392190247E+01  0.12394174203E+01  0.51109989000E-03 0.  1.
</event>
<event>
 6   3  0.2312675E+03  0.9118800E+02  0.7818608E-02  0.1180000E+00
       11   -1    0    0    0    0  0.00000000000E+00  0.00000000000E+00  0.54999999763E+01  0.55000000000E+01  0.51109989000E-03 0.  1.
     -623   -1    0    0    0    0  0.00000000000E+00  0.00000000000E+00  0.93234578044E-11  0.17124000000E+03  0.17124000000E+03 0.  1.
       11    1    1    2    0    0  0.12512890800E+00 -0.36202232428E-01  0.69235604971E+00  0.70450337547E+00  0.51109989000E-03 0.  1.
     -623    1    1    2    0    0 -0.28497804625E-01  0.93347899856E-02  0.13409383537E-01  0.17124000315E+03  0.17124000000E+03 0.  1.
     -611    1    1    2    0    0 -0.18414815391E-01 -0.98159257669E-02  0.14186831308E+01  0.14188366871E+01  0.51109989000E-03 0. -1.
      611    1    1    2    0    0 -0.78216287983E-01  0.36683368209E-01  0.33755514122E+01  0.33766567867E+01  0.51109989000E-03 0.  1.
</event>
<event>
 6   3  0.2312675E+03  0.9118800E+02  0.7818608E-02  0.1180000E+00
       11   -1    0    0    0    0  0.00000000000E+00  0.00000000000E+00  0.54999999763E+01  0.55000000000E+01  0.51109989000E-03 0. -1.
     -623   -1    0    0    0    0  0.00000000000E+00  0.00000000000E+00  0.93234578044E-11  0.17124000000E+03  0.17124000000E+03 0.  1.
       11    1    1    2    0    0  0.38143838054E-01  0.84547915695E-02  0.11249502756E+00  0.11908748184E+00  0.51109989000E-03 0. -1.
     -623    1    1    2    0    0 -0.58526647542E-01  0.78360078517E-02  0.10455446606E-01  0.17124001050E+03  0.17124000000E+03 0.  1.
     -611    1    1    2    0    0  0.77359498114E-01  0.61891499128E-02  0.47969191140E+01  0.47975468778E+01  0.51109989000E-03 0. -1.
      611    1    1    2    0    0 -0.56976688627E-01 -0.22479949334E-01  0.58013038809E+00  0.58335514019E+00  0.51109989000E-03 0.  1.
</event>
<event>
 6   3  0.2312675E+03  0.9118800E+02  0.7818608E-02  0.1180000E+00
       11   -1    0    0    0    0  0.00000000000E+00  0.00000000000E+00  0.54999999763E+01  0.55000000000E+01  0.51109989000E-03 0. -1.
     -623   -1    0    0    0    0  0.00000000000E+00  0.00000000000E+00  0.93234578044E-11  0.17124000000E+03  0.17124000000E+03 0.  1.
       11    1    1    2    0    0 -0.31453653780E-02  0.18067551055E-01  0.17382729684E-01  0.25273508637E-01  0.51109989000E-03 0. -1.
     -623    1    1    2    0    0 -0.12738032427E-01  0.12899319734E-01  0.11210770133E-01  0.17124000133E+03  0.17124000000E+03 0.  1.
     -611    1    1    2    0    0 -0.68249100234E-01 -0.10032640817E-01  0.95570635407E+00  0.95819282506E+00  0.51109989000E-03 0.  1.
      611    1    1    2    0    0  0.84132498040E-01 -0.20934229972E-01  0.45157001224E+01  0.45165323397E+01  0.51109989000E-03 0. -1.
</event>
<event>
 6   3  0.2312675E+03  0.9118800E+02  0.7818608E-02  0.1180000E+00
       11   -1    0    0    0    0  0.00000000000E+00  0.00000000000E+00  0.54999999763E+01  0.55000000000E+01  0.51109989000E-03 0.  1.
     -623   -1    0    0    0    0  0.00000000000E+00  0.00000000000E+00  0.93234578044E-11  0.17124000000E+03  0.17124000000E+03 0.  1.
       11    1    1    2    0    0 -0.48745565209E-03  0.26669359932E-02  0.40546137304E-01  0.40639889689E-01  0.51109989000E-03 0.  1.
     -623    1    1    2    0    0 -0.48549566446E-03 -0.15345211070E-02  0.71150916848E-03  0.17124000001E+03  0.17124000000E+03 0.  1.
     -611    1    1    2    0    0  0.30848217414E-01  0.26654624830E-01  0.30443173644E+01  0.30445903760E+01  0.51109989000E-03 0.  1.
      611    1    1    2    0    0 -0.29875266098E-01 -0.27787039717E-01  0.24144249654E+01  0.24147697252E+01  0.51109989000E-03 0. -1.
</event>
<event>
 6   3  0.2312675E+03  0.9118800E+02  0.7818608E-02  0.1180000E+00
       11   -1    0    0    0    0  0.00000000000E+00  0.00000000000E+00  0.54999999763E+01  0.55000000000E+01  0.51109989000E-03 0. -1.
     -623   -1    0    0    0    0  0.00000000000E+00  0.00000000000E+00  0.93234578044E-11  0.17124000000E+03  0.17124000000E+03 0.  1.
       11    1    1    2    0    0 -0.31047321432E-02 -0.30066001989E-03  0.42025989943E+00  0.42027178593E+00  0.51109989000E-03 0. -1.
     -623    1    1    2    0    0  0.58788045119E-01 -0.19983319427E-01  0.36929307196E-03  0.17124001126E+03  0.17124000000E+03 0.  1.
     -611    1    1    2    0    0 -0.12154333021E-01  0.47475449665E-02  0.10618799575E+01  0.10619602499E+01  0.51109989000E-03 0.  1.
      611    1    1    2    0    0 -0.43528979986E-01  0.15536434492E-01  0.40174908291E+01  0.40177567094E+01  0.51109989000E-03 0. -1.
</event>
<event>
 6   3  0.2312675E+03  0.9118800E+02  0.7818608E-02  0.1180000E+00
       11   -1    0    0    0    0  0.00000000000E+00  0.00000000000E+00  0.54999999763E+01  0.55000000000E+01  0.51109989000E-03 0.  1.
     -623   -1    0    0    0    0  0.00000000000E+00  0.00000000000E+00  0.93234578044E-11  0.17124000000E+03  0.17124000000E+03 0. -1.
       11    1    1    2    0    0 -0.45114870744E-01  0.29127543458E-01  0.10479783290E+01  0.10493534222E+01  0.51109989000E-03 0.  1.
     -623    1    1    2    0    0 -0.29779334811E-02 -0.27508581189E-02  0.17180579227E-02  0.17124000006E+03  0.17124000000E+03 0. -1.
     -611    1    1    2    0    0  0.94784394241E-02 -0.27119850520E-02  0.89542891481E+00  0.89548333228E+00  0.51109989000E-03 0. -1.
      611    1    1    2    0    0  0.38614364797E-01 -0.23664700285E-01  0.35548746742E+01  0.35551631886E+01  0.51109989000E-03 0.  1.
</event>
<event>
 6   3  0.2312675E+03  0.9118800E+02  0.7818608E-02  0.1180000E+00
       11   -1    0    0    0    0  0.00000000000E+00  0.00000000000E+00  0.54999999763E+01  0.55000000000E+01  0.51109989000E-03 0.  1.
     -623   -1    0    0    0    0  0.00000000000E+00  0.00000000000E+00  0.93234578044E-11  0.17124000000E+03  0.17124000000E+03 0.  1.
       11    1    1    2    0    0  0.45827664546E-02 -0.14977931159E-02  0.27101029541E-01  0.27531294155E-01  0.51109989000E-03 0.  1.
     -623    1    1    2    0    0 -0.13034436929E-02 -0.15481890847E-02  0.91040053071E-03  0.17124000001E+03  0.17124000000E+03 0.  1.
     -611    1    1    2    0    0 -0.36467517878E-01  0.62186782874E-02  0.22092013835E+01  0.22095111599E+01  0.51109989000E-03 0. -1.
      611    1    1    2    0    0  0.33188195116E-01 -0.31726960869E-02  0.32627871626E+01  0.32629575314E+01  0.51109989000E-03 0.  1.
</event>
<event>
 6   3  0.2312675E+03  0.9118800E+02  0.7818608E-02  0.1180000E+00
       11   -1    0    0    0    0  0.00000000000E+00  0.00000000000E+00  0.54999999763E+01  0.55000000000E+01  0.51109989000E-03 0.  1.
     -623   -1    0    0    0    0  0.00000000000E+00  0.00000000000E+00  0.93234578044E-11  0.17124000000E+03  0.17124000000E+03 0.  1.
       11    1    1    2    0    0 -0.69001114658E-02  0.64018037303E-02 -0.25631600409E-03  0.94298223861E-02  0.51109989000E-03 0.  1.
     -623    1    1    2    0    0 -0.21581425197E-02  0.11590056256E-01  0.10477565567E-01  0.17124000073E+03  0.17124000000E+03 0.  1.
     -611    1    1    2    0    0  0.50021183458E-01 -0.91416924950E-02  0.27491346127E+01  0.27496048933E+01  0.51109989000E-03 0. -1.
      611    1    1    2    0    0 -0.40962929473E-01 -0.88501674916E-02  0.27406441140E+01  0.27409645579E+01  0.51109989000E-03 0.  1.
</event>
<event>
 6   3  0.2312675E+03  0.9118800E+02  0.7818608E-02  0.1180000E+00
       11   -1    0    0    0    0  0.00000000000E+00  0.00000000000E+00  0.54999999763E+01  0.55000000000E+01  0.51109989000E-03 0.  1.
     -623   -1    0    0    0    0  0.00000000000E+00  0.00000000000E+00  0.93234578044E-11  0.17124000000E+03  0.17124000000E+03 0. -1.
       11    1    1    2    0    0 -0.28919191152E-01  0.70459942175E-02  0.34807944676E+00  0.34935015119E+00  0.51109989000E-03 0.  1.
     -623    1    1    2    0    0  0.94908380617E-04 -0.82389367525E-02  0.18895172643E-02  0.17124000021E+03  0.17124000000E+03 0. -1.
     -611    1    1    2    0    0 -0.18182722917E-01 -0.14089738593E-01  0.78058428618E+00  0.78092331327E+00  0.51109989000E-03 0. -1.
      611    1    1    2    0    0  0.47007005689E-01  0.15282681128E-01  0.43694467261E+01  0.43697263270E+01  0.51109989000E-03 0.  1.
</event>
<event>
 6   3  0.2312675E+03  0.9118800E+02  0.7818608E-02  0.1180000E+00
       11   -1    0    0    0    0  0.00000000000E+00  0.00000000000E+00  0.54999999763E+01  0.55000000000E+01  0.51109989000E-03 0. -1.
     -623   -1    0    0    0    0  0.00000000000E+00  0.00000000000E+00  0.93234578044E-11  0.17124000000E+03  0.17124000000E+03 0. -1.
       11    1    1    2    0    0  0.13129437021E-01  0.42725645756E-02  0.79927526516E+00  0.79939467577E+00  0.51109989000E-03 0. -1.
     -623    1    1    2    0    0 -0.88269510460E-01 -0.23941321130E-01  0.78611755310E-03  0.17124002443E+03  0.17124000000E+03 0. -1.
     -611    1    1    2    0    0  0.26174527280E-01  0.59167443806E-02  0.16067650043E+01  0.16069891580E+01  0.51109989000E-03 0.  1.
      611    1    1    2    0    0  0.48965544193E-01  0.13752011641E-01  0.30931734668E+01  0.30935916180E+01  0.51109989000E-03 0. -1.
</event>
<event>
 6   3  0.2312675E+03  0.9118800E+02  0.7818608E-02  0.1180000E+00
       11   -1    0    0    0    0  0.00000000000E+00  0.00000000000E+00  0.54999999763E+01  0.55000000000E+01  0.51109989000E-03 0. -1.
     -623   -1    0    0    0    0  0.00000000000E+00  0.00000000000E+00  0.93234578044E-11  0.17124000000E+03  0.17124000000E+03 0. -1.
       11    1    1    2    0    0 -0.29452230093E-01  0.27003301693E-01  0.96229541147E+00  0.96312477505E+00  0.51109989000E-03 0. -1.
     -623    1    1    2    0    0 -0.23847441990E-01  0.71618432767E-02  0.12733826930E-02  0.17124000182E+03  0.17124000000E+03 0. -1.
     -611    1    1    2    0    0  0.39189067616E-01 -0.24309286500E-01  0.33292533605E+01  0.33295727841E+01  0.51109989000E-03 0. -1.
      611    1    1    2    0    0  0.14110604470E-01 -0.98558584717E-02  0.12071778218E+01  0.12073006261E+01  0.51109989000E-03 0. -1.
</event>
<event>
 6   3  0.2312675E+03  0.9118800E+02  0.7818608E-02  0.1180000E+00
       11   -1    0    0    0    0  0.00000000000E+00  0.00000000000E+00  0.54999999763E+01  0.55000000000E+01  0.51109989000E-03 0.  1.
     -623   -1    0    0    0    0  0.00000000000E+00  0.00000000000E+00  0.93234578044E-11  0.17124000000E+03  0.17124000000E+03 0.  1.
       11    1    1    2    0    0  0.42985735453E-02  0.10919670755E-01  0.11586207183E+00  0.11645599107E+00  0.51109989000E-03 0.  1.
     -623    1    1    2    0    0 -0.31304200689E-02 -0.12388903300E-01  0.10034039311E-02  0.17124000048E+03  0.17124000000E+03 0.  1.
     -611    1    1    2    0    0  0.27365520334E-01 -0.17105048638E-01  0.25314516177E+01  0.25316573639E+01  0.51109989000E-03 0. -1.
      611    1    1    2    0    0 -0.28533673810E-01  0.18574281182E-01  0.28516828827E+01  0.28518861652E+01  0.51109989000E-03 0.  1.
</event>
<event>
 6   3  0.2312675E+03  0.9118800E+02  0.7818608E-02  0.1180000E+00
       11   -1    0    0    0    0  0.00000000000E+00  0.00000000000E+00  0.54999999763E+01  0.55000000000E+01  0.51109989000E-03 0. -1.
     -623   -1    0    0    0    0  0.00000000000E+00  0.00000000000E+00  0.93234578044E-11  0.17124000000E+03  0.17124000000E+03 0.  1.
       11    1    1    2    0    0  0.25119954464E-01  0.66874433244E-02  0.78324716586E-02  0.27154057632E-01  0.51109989000E-03 0. -1.
     -623    1    1    2    0    0 -0.31671736612E-01 -0.39839800583E-02  0.20778942040E-01  0.17124000424E+03  0.17124000000E+03 0.  1.
     -611    1    1    2    0    0 -0.56444269979E-01 -0.19982329530E-01  0.22914094211E+01  0.22921916686E+01  0.51109989000E-03 0.  1.
      611    1    1    2    0    0  0.62996052127E-01  0.17278866264E-01  0.31799791414E+01  0.31806500378E+01  0.51109989000E-03 0. -1.
</event>
<event>
 6   3  0.2312675E+03  0.9118800E+02  0.7818608E-02  0.1180000E+00
       11   -1    0    0    0    0  0.00000000000E+00  0.00000000000E+00  0.54999999763E+01  0.55000000000E+01  0.51109989000E-03 0. -1.
     -623   -1    0    0    0    0  0.00000000000E+00  0.00000000000E+00  0.93234578044E-11  0.17124000000E+03  0.17124000000E+03 0.  1.
       11    1    1    2    0    0  0.80139304313E-04  0.17124591609E-01  0.57329715682E-01  0.59834902719E-01  0.51109989000E-03 0. -1.
     -623    1    1    2    0    0 -0.64283887485E-01  0.71173568571E-01  0.36434211771E-02  0.17124002690E+03  0.17124000000E+03 0.  1.
     -611    1    1    2    0    0  0.57237393393E-01 -0.83635948475E-01  0.49237673097E+01  0.49248102372E+01  0.51109989000E-03 0. -1.
      611    1    1    2    0    0  0.69663547884E-02 -0.46622117057E-02  0.51525952976E+00  0.51532796407E+00  0.51109989000E-03 0.  1.
</event>
<event>
 6   3  0.2312675E+03  0.9118800E+02  0.7818608E-02  0.1180000E+00
       11   -1    0    0    0    0  0.00000000000E+00  0.00000000000E+00  0.54999999763E+01  0.55000000000E+01  0.51109989000E-03 0. -1.
     -623   -1    0    0    0    0  0.00000000000E+00  0.00000000000E+00  0.93234578044E-11  0.17124000000E+03  0.17124000000E+03 0. -1.
       11    1    1    2    0    0  0.49837799651E-01  0.51091678953E-01  0.10081883449E+01  0.10107117126E+01  0.51109989000E-03 0. -1.
     -623    1    1    2    0    0  0.38225458776E-01  0.75547538671E-02  0.37853052203E-02  0.17124000447E+03  0.17124000000E+03 0. -1.
     -611    1    1    2    0    0 -0.73534636343E-01 -0.44464822674E-01  0.36121064596E+01  0.36131285336E+01  0.51109989000E-03 0. -1.
      611    1    1    2    0    0 -0.14528622087E-01 -0.14181610148E-01  0.87591986661E+00  0.87615527898E+00  0.51109989000E-03 0.  1.
</event>
<event>
 6   3  0.2312675E+03  0.9118800E+02  0.7818608E-02  0.1180000E+00
       11   -1    0    0    0    0  0.00000000000E+00  0.00000000000E+00  0.54999999763E+01  0.55000000000E+01  0.51109989000E-03 0. -1.
     -623   -1    0    0    0    0  0.00000000000E+00  0.00000000000E+00  0.93234578044E-11  0.17124000000E+03  0.17124000000E+03 0.  1.
       11    1    1    2    0    0 -0.62838016303E-01  0.18679292205E-01  0.46407648896E+00  0.46868409518E+00  0.51109989000E-03 0. -1.
     -623    1    1    2    0    0  0.35837359553E-02  0.10522973893E-01  0.50505644115E-02  0.17124000044E+03  0.17124000000E+03 0.  1.
     -611    1    1    2    0    0  0.14726454621E-01 -0.45454962866E-02  0.95066682864E+00  0.95079188590E+00  0.51109989000E-03 0.  1.
      611    1    1    2    0    0  0.44527825728E-01 -0.24656769813E-01  0.40802060944E+01  0.40805235838E+01  0.51109989000E-03 0. -1.
</event>
<event>
 6   3  0.2312675E+03  0.9118800E+02  0.7818608E-02  0.1180000E+00
       11   -1    0    0    0    0  0.00000000000E+00  0.00000000000E+00  0.54999999763E+01  0.55000000000E+01  0.51109989000E-03 0. -1.
     -623   -1    0    0    0    0  0.00000000000E+00  0.00000000000E+00  0.93234578044E-11  0.17124000000E+03  0.17124000000E+03 0.  1.
       11    1    1    2    0    0 -0.36766582511E-02  0.11330508906E-01  0.11864384652E+00  0.11924144325E+00  0.51109989000E-03 0. -1.
     -623    1    1    2    0    0 -0.91760844432E-01 -0.56183558929E-01  0.17066025032E-02  0.17124003381E+03  0.17124000000E+03 0.  1.
     -611    1    1    2    0    0  0.69964771063E-01  0.30628688068E-01  0.43128049325E+01  0.43134811734E+01  0.51109989000E-03 0. -1.
      611    1    1    2    0    0  0.25472731617E-01  0.14224361953E-01  0.10668445945E+01  0.10672435722E+01  0.51109989000E-03 0.  1.
</event>
<event>
 6   3  0.2312675E+03  0.9118800E+02  0.7818608E-02  0.1180000E+00
       11   -1    0    0    0    0  0.00000000000E+00  0.00000000000E+00  0.54999999763E+01  0.55000000000E+01  0.51109989000E-03 0.  1.
     -623   -1    0    0    0    0  0.00000000000E+00  0.00000000000E+00  0.93234578044E-11  0.17124000000E+03  0.17124000000E+03 0.  1.
       11    1    1    2    0    0 -0.67833639066E-01  0.93815771125E-01  0.87940075377E+00  0.88698858418E+00  0.51109989000E-03 0.  1.
     -623    1    1    2    0    0  0.10648319685E-01 -0.58752347597E-02  0.87817498565E-02  0.17124000066E+03  0.17124000000E+03 0.  1.
     -611    1    1    2    0    0  0.13529931647E-01 -0.19964303670E-01  0.10831953059E+01  0.10834638731E+01  0.51109989000E-03 0. -1.
      611    1    1    2    0    0  0.43655387742E-01 -0.67976232706E-01  0.35286221673E+01  0.35295468862E+01  0.51109989000E-03 0.  1.
</event>
<event>
 6   3  0.2312675E+03  0.9118800E+02  0.7818608E-02  0.1180000E+00
       11   -1    0    0    0    0  0.00000000000E+00  0.00000000000E+00  0.54999999763E+01  0.55000000000E+01  0.51109989000E-03 0. -1.
     -623   -1    0    0    0    0  0.00000000000E+00  0.00000000000E+00  0.93234578044E-11  0.17124000000E+03  0.17124000000E+03 0.  1.
       11    1    1    2    0    0 -0.12719885211E-02 -0.45309566379E-02  0.97085380360E-02  0.10801132197E-01  0.51109989000E-03 0. -1.
     -623    1    1    2    0    0 -0.18665088153E-02  0.28322569678E-02  0.18674679409E-02  0.17124000004E+03  0.17124000000E+03 0.  1.
     -611    1    1    2    0    0 -0.43942157882E-01  0.80644452149E-02  0.27381658110E+01  0.27385303026E+01  0.51109989000E-03 0. -1.
      611    1    1    2    0    0  0.47080655218E-01 -0.63657455447E-02  0.27502581593E+01  0.27506685214E+01  0.51109989000E-03 0.  1.
</event>
<event>
 6   3  0.2312675E+03  0.9118800E+02  0.7818608E-02  0.1180000E+00
       11   -1    0    0    0    0  0.00000000000E+00  0.00000000000E+00  0.54999999763E+01  0.55000000000E+01  0.51109989000E-03 0. -1.
     -623   -1    0    0    0    0  0.00000000000E+00  0.00000000000E+00  0.93234578044E-11  0.17124000000E+03  0.17124000000E+03 0.  1.
       11    1    1    2    0    0  0.69316629522E-03  0.10096808536E-02  0.17534875539E-02  0.21990626727E-02  0.51109989000E-03 0.  1.
     -623    1    1    2    0    0 -0.24823170513E-02  0.22613343745E-02  0.19663189033E-02  0.17124000004E+03  0.17124000000E+03 0.  1.
     -611    1    1    2    0    0  0.48345774372E-01  0.33672768701E-01  0.38450236996E+01  0.38454750917E+01  0.51109989000E-03 0. -1.
      611    1    1    2    0    0 -0.46556623616E-01 -0.36943783929E-01  0.16512564703E+01  0.16523258015E+01  0.51109989000E-03 0.  1.
</event>
<event>
 6   3  0.2312675E+03  0.9118800E+02  0.7818608E-02  0.1180000E+00
       11   -1    0    0    0    0  0.00000000000E+00  0.00000000000E+00  0.54999999763E+01  0.55000000000E+01  0.51109989000E-03 0. -1.
     -623   -1    0    0    0    0  0.00000000000E+00  0.00000000000E+00  0.93234578044E-11  0.17124000000E+03  0.17124000000E+03 0.  1.
       11    1    1    2    0    0 -0.13510596424E-01 -0.46802512329E-02  0.47435788731E-01  0.49546505860E-01  0.51109989000E-03 0. -1.
     -623    1    1    2    0    0 -0.18172515644E-01  0.11186750207E-01  0.32779885673E-02  0.17124000136E+03  0.17124000000E+03 0.  1.
     -611    1    1    2    0    0  0.67251982330E-01  0.68056134739E-02  0.24733239609E+01  0.24742475265E+01  0.51109989000E-03 0. -1.
      611    1    1    2    0    0 -0.35568870262E-01 -0.13312112448E-01  0.29759622381E+01  0.29762046067E+01  0.51109989000E-03 0.  1.
</event>
<event>
 6   3  0.2312675E+03  0.9118800E+02  0.7818608E-02  0.1180000E+00
       11   -1    0    0    0    0  0.00000000000E+00  0.00000000000E+00  0.54999999763E+01  0.55000000000E+01  0.51109989000E-03 0. -1.
     -623   -1    0    0    0    0  0.00000000000E+00  0.00000000000E+00  0.93234578044E-11  0.17124000000E+03  0.17124000000E+03 0.  1.
       11    1    1    2    0    0 -0.70821437914E-01  0.12310661571E-01  0.72377004177E+00  0.72733112338E+00  0.51109989000E-03 0. -1.
     -623    1    1    2    0    0 -0.32522945780E-01 -0.48325976862E-01  0.48267706834E-02  0.17124000998E+03  0.17124000000E+03 0.  1.
     -611    1    1    2    0    0  0.80377036536E-01  0.27002749428E-01  0.37137080927E+01  0.37146759853E+01  0.51109989000E-03 0.  1.
      611    1    1    2    0    0  0.22967347156E-01  0.90125658613E-02  0.10576950710E+01  0.10579829156E+01  0.51109989000E-03 0. -1.
</event>
<event>
 6   3  0.2312675E+03  0.9118800E+02  0.7818608E-02  0.1180000E+00
       11   -1    0    0    0    0  0.00000000000E+00  0.00000000000E+00  0.54999999763E+01  0.55000000000E+01  0.51109989000E-03 0. -1.
     -623   -1    0    0    0    0  0.00000000000E+00  0.00000000000E+00  0.93234578044E-11  0.17124000000E+03  0.17124000000E+03 0.  1.
       11    1    1    2    0    0 -0.20951873836E-01  0.75656243426E-01  0.39752070263E+00  0.40519849263E+00  0.51109989000E-03 0. -1.
     -623    1    1    2    0    0 -0.34782728148E-01  0.41177515282E-01  0.93340211142E-02  0.17124000874E+03  0.17124000000E+03 0.  1.
     -611    1    1    2    0    0  0.31687704692E-01 -0.71995758205E-01  0.30586948554E+01  0.30597061917E+01  0.51109989000E-03 0. -1.
      611    1    1    2    0    0  0.24046897289E-01 -0.44838000498E-01  0.20344503969E+01  0.20350865776E+01  0.51109989000E-03 0.  1.
</event>
<event>
 6   3  0.2312675E+03  0.9118800E+02  0.7818608E-02  0.1180000E+00
       11   -1    0    0    0    0  0.00000000000E+00  0.00000000000E+00  0.54999999763E+01  0.55000000000E+01  0.51109989000E-03 0. -1.
     -623   -1    0    0    0    0  0.00000000000E+00  0.00000000000E+00  0.93234578044E-11  0.17124000000E+03  0.17124000000E+03 0. -1.
       11    1    1    2    0    0 -0.23185549142E-01 -0.46383139357E-01  0.97578906869E+00  0.97716607243E+00  0.51109989000E-03 0. -1.
     -623    1    1    2    0    0 -0.46531007742E-01  0.11956739800E-01  0.20749948753E-02  0.17124000675E+03  0.17124000000E+03 0. -1.
     -611    1    1    2    0    0  0.31501843461E-01  0.77848319996E-02  0.19197284576E+01  0.19200027557E+01  0.51109989000E-03 0. -1.
      611    1    1    2    0    0  0.38214713423E-01  0.26641567557E-01  0.26024074551E+01  0.26028244200E+01  0.51109989000E-03 0.  1.
</event>
<event>
 6   3  0.2312675E+03  0.9118800E+02  0.7818608E-02  0.1180000E+00
       11   -1    0    0    0    0  0.00000000000E+00  0.00000000000E+00  0.54999999763E+01  0.55000000000E+01  0.51109989000E-03 0.  1.
     -623   -1    0    0    0    0  0.00000000000E+00  0.00000000000E+00  0.93234578044E-11  0.17124000000E+03  0.17124000000E+03 0.  1.
       11    1    1    2    0    0 -0.49350524905E-02 -0.35257872481E-02  0.58728141282E-01  0.59042710984E-01  0.51109989000E-03 0.  1.
     -623    1    1    2    0    0  0.41992422156E-02  0.53052527614E-02  0.15386821833E-02  0.17124000014E+03  0.17124000000E+03 0.  1.
     -611    1    1    2    0    0  0.49377831739E-01  0.14009111243E-01  0.39750379842E+01  0.39753693744E+01  0.51109989000E-03 0.  1.
      611    1    1    2    0    0 -0.48642021464E-01 -0.15788576756E-01  0.14646951685E+01  0.14655877740E+01  0.51109989000E-03 0. -1.
</event>
<event>
 6   3  0.2312675E+03  0.9118800E+02  0.7818608E-02  0.1180000E+00
       11   -1    0    0    0    0  0.00000000000E+00  0.00000000000E+00  0.54999999763E+01  0.55000000000E+01  0.51109989000E-03 0.  1.
     -623   -1    0    0    0    0  0.00000000000E+00  0.00000000000E+00  0.93234578044E-11  0.17124000000E+03  0.17124000000E+03 0.  1.
       11    1    1    2    0    0  0.37954517975E-01 -0.16559764799E-01  0.28608685173E+00  0.28906871017E+00  0.51109989000E-03 0.  1.
     -623    1    1    2    0    0 -0.23275529628E-01 -0.30116751180E-01  0.40100014141E-02  0.17124000428E+03  0.17124000000E+03 0.  1.
     -611    1    1    2    0    0  0.35717773271E-01  0.37952416125E-01  0.26885564956E+01  0.26890616275E+01  0.51109989000E-03 0.  1.
      611    1    1    2    0    0 -0.50396761618E-01  0.87240998542E-02  0.25213466275E+01  0.25218653851E+01  0.51109989000E-03 0. -1.
</event>
<event>
 6   3  0.2312675E+03  0.9118800E+02  0.7818608E-02  0.1180000E+00
       11   -1    0    0    0    0  0.00000000000E+00  0.00000000000E+00  0.54999999763E+01  0.55000000000E+01  0.51109989000E-03 0. -1.
     -623   -1    0    0    0    0  0.00000000000E+00  0.00000000000E+00  0.93234578044E-11  0.17124000000E+03  0.17124000000E+03 0.  1.
       11    1    1    2    0    0 -0.63002913198E-01  0.32767232581E-01  0.96687622767E+00  0.96948076796E+00  0.51109989000E-03 0. -1.
     -623    1    1    2    0    0  0.64616696562E-02  0.86049588874E-02  0.31603503979E-02  0.17124000037E+03  0.17124000000E+03 0.  1.
     -611    1    1    2    0    0  0.16828199590E-01 -0.63743891901E-02  0.11293453077E+01  0.11294887810E+01  0.51109989000E-03 0.  1.
      611    1    1    2    0    0  0.39713043950E-01 -0.34997802278E-01  0.34006180904E+01  0.34010300837E+01  0.51109989000E-03 0. -1.
</event>
<event>
 6   3  0.2312675E+03  0.9118800E+02  0.7818608E-02  0.1180000E+00
       11   -1    0    0    0    0  0.00000000000E+00  0.00000000000E+00  0.54999999763E+01  0.55000000000E+01  0.51109989000E-03 0. -1.
     -623   -1    0    0    0    0  0.00000000000E+00  0.00000000000E+00  0.93234578044E-11  0.17124000000E+03  0.17124000000E+03 0. -1.
       11    1    1    2    0    0  0.18556448243E-02  0.13044526046E-02  0.11642313800E+00  0.11644635374E+00  0.51109989000E-03 0. -1.
     -623    1    1    2    0    0 -0.38633583500E-02 -0.32623260031E-02  0.62951516011E-03  0.17124000008E+03  0.17124000000E+03 0. -1.
     -611    1    1    2    0    0  0.41046399256E-01  0.39680392540E-02  0.30481489127E+01  0.30484278912E+01  0.51109989000E-03 0. -1.
      611    1    1    2    0    0 -0.39038685731E-01 -0.20101658556E-02  0.23347984103E+01  0.23351256792E+01  0.51109989000E-03 0.  1.
</event>
<event>
 6   3  0.2312675E+03  0.9118800E+02  0.7818608E-02  0.1180000E+00
       11   -1    0    0    0    0  0.00000000000E+00  0.00000000000E+00  0.54999999763E+01  0.55000000000E+01  0.51109989000E-03 0. -1.
     -623   -1    0    0    0    0  0.00000000000E+00  0.00000000000E+00  0.93234578044E-11  0.17124000000E+03  0.17124000000E+03 0. -1.
       11    1    1    2    0    0 -0.14984664822E-02 -0.32496529154E-02  0.75952923476E-03  0.36937452030E-02  0.51109989000E-03 0. -1.
     -623    1    1    2    0    0 -0.39183912365E-03  0.26371401151E-02  0.41368337975E-02  0.17124000007E+03  0.17124000000E+03 0. -1.
     -611    1    1    2    0    0  0.45169634517E-01 -0.31521918631E-01  0.18995705441E+01  0.19003690275E+01  0.51109989000E-03 0. -1.
      611    1    1    2    0    0 -0.43279328911E-01  0.32134431431E-01  0.35955330692E+01  0.35959371567E+01  0.51109989000E-03 0.  1.
</event>
<event>
 6   3  0.2312675E+03  0.9118800E+02  0.7818608E-02  0.1180000E+00
       11   -1    0    0    0    0  0.00000000000E+00  0.00000000000E+00  0.54999999763E+01  0.55000000000E+01  0.51109989000E-03 0.  1.
     -623   -1    0    0    0    0  0.00000000000E+00  0.00000000000E+00  0.93234578044E-11  0.17124000000E+03  0.17124000000E+03 0.  1.
       11    1    1    2    0    0 -0.82039522964E-01  0.48387003987E-01  0.93846731139E+00  0.94328836590E+00  0.51109989000E-03 0.  1.
     -623    1    1    2    0    0  0.46214792446E-02  0.17207949339E-02  0.57564608211E-02  0.17124000017E+03  0.17124000000E+03 0.  1.
     -611    1    1    2    0    0  0.18430484704E-01 -0.13990961587E-01  0.11622703569E+01  0.11625007844E+01  0.51109989000E-03 0. -1.
      611    1    1    2    0    0  0.58987559026E-01 -0.36116837340E-01  0.33935058477E+01  0.33942106826E+01  0.51109989000E-03 0.  1.
</event>
<event>
 6   3  0.2312675E+03  0.9118800E+02  0.7818608E-02  0.1180000E+00
       11   -1    0    0    0    0  0.00000000000E+00  0.00000000000E+00  0.54999999763E+01  0.55000000000E+01  0.51109989000E-03 0.  1.
     -623   -1    0    0    0    0  0.00000000000E+00  0.00000000000E+00  0.93234578044E-11  0.17124000000E+03  0.17124000000E+03 0.  1.
       11    1    1    2    0    0 -0.81682379300E-01 -0.34361551557E-01  0.96966684727E+00  0.97370775042E+00  0.51109989000E-03 0.  1.
     -623    1    1    2    0    0 -0.33699217218E-01 -0.31942362932E-02  0.56810885284E-02  0.17124000344E+03  0.17124000000E+03 0.  1.
     -611    1    1    2    0    0  0.93299949393E-01  0.26463188532E-01  0.36347376099E+01  0.36360312065E+01  0.51109989000E-03 0.  1.
      611    1    1    2    0    0  0.22081647123E-01  0.11092599318E-01  0.88991443054E+00  0.89025760306E+00  0.51109989000E-03 0. -1.
</event>
<event>
 6   3  0.2312675E+03  0.9118800E+02  0.7818608E-02  0.1180000E+00
       11   -1    0    0    0    0  0.00000000000E+00  0.00000000000E+00  0.54999999763E+01  0.55000000000E+01  0.51109989000E-03 0. -1.
     -623   -1    0    0    0    0  0.00000000000E+00  0.00000000000E+00  0.93234578044E-11  0.17124000000E+03  0.17124000000E+03 0.  1.
       11    1    1    2    0    0 -0.49673310393E-02  0.13197482319E-01  0.67113301197E+00  0.67128133365E+00  0.51109989000E-03 0. -1.
     -623    1    1    2    0    0  0.61898196357E-03 -0.12672610813E-01  0.22873010744E-02  0.17124000049E+03  0.17124000000E+03 0.  1.
     -611    1    1    2    0    0  0.39743594837E-01 -0.55587304745E-01  0.33386930894E+01  0.33393923561E+01  0.51109989000E-03 0. -1.
      611    1    1    2    0    0 -0.35395245761E-01  0.55062433239E-01  0.14878865738E+01  0.14893258249E+01  0.51109989000E-03 0.  1.
</event>
<event>
 6   3  0.2312675E+03  0.9118800E+02  0.7818608E-02  0.1180000E+00
       11   -1    0    0    0    0  0.00000000000E+00  0.00000000000E+00  0.54999999763E+01  0.55000000000E+01  0.51109989000E-03 0. -1.
     -623   -1    0    0    0    0  0.00000000000E+00  0.00000000000E+00  0.93234578044E-11  0.17124000000E+03  0.17124000000E+03 0. -1.
       11    1    1    2    0    0  0.56416834552E-01  0.22369361395E-01  0.79670412644E+00  0.79901249919E+00  0.51109989000E-03 0. -1.
     -623    1    1    2    0    0  0.26454678468E-02 -0.10419962195E-01  0.26964911508E-02  0.17124000036E+03  0.17124000000E+03 0. -1.
     -611    1    1    2    0    0 -0.48845439420E-01 -0.86513963864E-02  0.38117781865E+01  0.38121009860E+01  0.51109989000E-03 0. -1.
      611    1    1    2    0    0 -0.10216862968E-01 -0.32980028118E-02  0.88882117143E+00  0.88888615532E+00  0.51109989000E-03 0.  1.
</event>
<event>
 6   3  0.2312675E+03  0.9118800E+02  0.7818608E-02  0.1180000E+00
       11   -1    0    0    0    0  0.00000000000E+00  0.00000000000E+00  0.54999999763E+01  0.55000000000E+01  0.51109989000E-03 0. -1.
     -623   -1    0    0    0    0  0.00000000000E+00  0.00000000000E+00  0.93234578044E-11  0.17124000000E+03  0.17124000000E+03 0. -1.
       11    1    1    2    0    0  0.42711165314E-03  0.27255724684E-01  0.13733734067E+00  0.14001736791E+00  0.51109989000E-03 0. -1.
     -623    1    1    2    0    0  0.10896919257E-01  0.78377855019E-02  0.43632164420E-02  0.17124000058E+03  0.17124000000E+03 0. -1.
     -611    1    1    2    0    0 -0.65716697673E-01 -0.15294042757E-01  0.18990627153E+01  0.19002610478E+01  0.51109989000E-03 0.  1.
      611    1    1    2    0    0  0.54392666763E-01 -0.19799467430E-01  0.34592367039E+01  0.34597210026E+01  0.51109989000E-03 0. -1.
</event>
<event>
 6   3  0.2312675E+03  0.9118800E+02  0.7818608E-02  0.1180000E+00
       11   -1    0    0    0    0  0.00000000000E+00  0.00000000000E+00  0.54999999763E+01  0.55000000000E+01  0.51109989000E-03 0.  1.
     -623   -1    0    0    0    0  0.00000000000E+00  0.00000000000E+00  0.93234578044E-11  0.17124000000E+03  0.17124000000E+03 0. -1.
       11    1    1    2    0    0  0.10908433899E-01  0.12107372469E-01  0.29778128648E+00  0.29822732638E+00  0.51109989000E-03 0.  1.
     -623    1    1    2    0    0 -0.43950987526E-02  0.16976111735E-02  0.17166976573E-02  0.17124000007E+03  0.17124000000E+03 0. -1.
     -611    1    1    2    0    0 -0.52679637574E-01 -0.34781557977E-01  0.32395025663E+01  0.32401175965E+01  0.51109989000E-03 0. -1.
      611    1    1    2    0    0  0.46166302428E-01  0.20976574335E-01  0.19609994259E+01  0.19616550037E+01  0.51109989000E-03 0.  1.
</event>
<event>
 6   3  0.2312675E+03  0.9118800E+02  0.7818608E-02  0.1180000E+00
       11   -1    0    0    0    0  0.00000000000E+00  0.00000000000E+00  0.54999999763E+01  0.55000000000E+01  0.51109989000E-03 0.  1.
     -623   -1    0    0    0    0  0.00000000000E+00  0.00000000000E+00  0.93234578044E-11  0.17124000000E+03  0.17124000000E+03 0. -1.
       11    1    1    2    0    0 -0.30237673576E-01  0.78572184540E-02  0.14114503215E+00  0.14456221535E+00  0.51109989000E-03 0.  1.
     -623    1    1    2    0    0 -0.64261401619E-02 -0.10706082345E-01  0.41164241390E-02  0.17124000050E+03  0.17124000000E+03 0. -1.
     -611    1    1    2    0    0 -0.14717901287E-01 -0.17323742069E-01  0.69509379392E+00  0.69546557947E+00  0.51109989000E-03 0. -1.
      611    1    1    2    0    0  0.51381715025E-01  0.20172605959E-01  0.46596447261E+01  0.46599717005E+01  0.51109989000E-03 0.  1.
</event>
<event>
 6   3  0.2312675E+03  0.9118800E+02  0.7818608E-02  0.1180000E+00
       11   -1    0    0    0    0  0.00000000000E+00  0.00000000000E+00  0.54999999763E+01  0.55000000000E+01  0.51109989000E-03 0. -1.
     -623   -1    0    0    0    0  0.00000000000E+00  0.00000000000E+00  0.93234578044E-11  0.17124000000E+03  0.17124000000E+03 0.  1.
       11    1    1    2    0    0 -0.44571934126E-01 -0.20756571810E-01  0.78784113155E+00  0.78937405732E+00  0.51109989000E-03 0. -1.
     -623    1    1    2    0    0 -0.24634523432E-01  0.63847218106E-01  0.23292380947E-02  0.17124001369E+03  0.17124000000E+03 0.  1.
     -611    1    1    2    0    0  0.27113721192E-01 -0.44270427824E-02  0.11797342587E+01  0.11800542085E+01  0.51109989000E-03 0.  1.
      611    1    1    2    0    0  0.42092736366E-01 -0.38663603513E-01  0.35300953479E+01  0.35305580436E+01  0.51109989000E-03 0. -1.
</event>
<event>
 6   3  0.2312675E+03  0.9118800E+02  0.7818608E-02  0.1180000E+00
       11   -1    0    0    0    0  0.00000000000E+00  0.00000000000E+00  0.54999999763E+01  0.55000000000E+01  0.51109989000E-03 0. -1.
     -623   -1    0    0    0    0  0.00000000000E+00  0.00000000000E+00  0.93234578044E-11  0.17124000000E+03  0.17124000000E+03 0.  1.
       11    1    1    2    0    0 -0.35450186185E-02  0.22053129619E-02  0.45838645082E-02  0.62212216801E-02  0.51109989000E-03 0. -1.
     -623    1    1    2    0    0  0.97663917869E-03  0.79779384219E-02  0.31740113173E-02  0.17124000022E+03  0.17124000000E+03 0.  1.
     -611    1    1    2    0    0 -0.56369402220E-01 -0.31636164482E-01  0.22437228048E+01  0.22446537912E+01  0.51109989000E-03 0.  1.
      611    1    1    2    0    0  0.58937781660E-01  0.21452913098E-01  0.32485192957E+01  0.32491247691E+01  0.51109989000E-03 0. -1.
</event>
<event>
 6   3  0.2312675E+03  0.9118800E+02  0.7818608E-02  0.1180000E+00
       11   -1    0    0    0    0  0.00000000000E+00  0.00000000000E+00  0.54999999763E+01  0.55000000000E+01  0.51109989000E-03 0. -1.
     -623   -1    0    0    0    0  0.00000000000E+00  0.00000000000E+00  0.93234578044E-11  0.17124000000E+03  0.17124000000E+03 0.  1.
       11    1    1    2    0    0 -0.37812973808E-01  0.13506912520E-01  0.10934111048E+01  0.10941482363E+01  0.51109989000E-03 0. -1.
     -623    1    1    2    0    0 -0.82644046754E-02 -0.32481107411E-02  0.99114914539E-03  0.17124000023E+03  0.17124000000E+03 0.  1.
     -611    1    1    2    0    0  0.39572283420E-01 -0.96061698744E-02  0.37654121614E+01  0.37656323839E+01  0.51109989000E-03 0. -1.
      611    1    1    2    0    0  0.65050950565E-02 -0.65263190258E-03  0.64018556018E+00  0.64021914597E+00  0.51109989000E-03 0. -1.
</event>
<event>
 6   3  0.2312675E+03  0.9118800E+02  0.7818608E-02  0.1180000E+00
       11   -1    0    0    0    0  0.00000000000E+00  0.00000000000E+00  0.54999999763E+01  0.55000000000E+01  0.51109989000E-03 0. -1.
     -623   -1    0    0    0    0  0.00000000000E+00  0.00000000000E+00  0.93234578044E-11  0.17124000000E+03  0.17124000000E+03 0. -1.
       11    1    1    2    0    0  0.60686521996E-01  0.23440334007E-01  0.98940500941E+00  0.99154164667E+00  0.51109989000E-03 0. -1.
     -623    1    1    2    0    0 -0.75688155941E-02  0.19935277315E-02  0.25217176060E-02  0.17124000020E+03  0.17124000000E+03 0. -1.
     -611    1    1    2    0    0 -0.15326190076E-01 -0.70790791165E-02  0.12658118252E+01  0.12659245015E+01  0.51109989000E-03 0. -1.
      611    1    1    2    0    0 -0.37791516332E-01 -0.18354782625E-01  0.32422614245E+01  0.32425336549E+01  0.51109989000E-03 0. -1.
</event>
<event>
 6   3  0.2312675E+03  0.9118800E+02  0.7818608E-02  0.1180000E+00
       11   -1    0    0    0    0  0.00000000000E+00  0.00000000000E+00  0.54999999763E+01  0.55000000000E+01  0.51109989000E-03 0. -1.
     -623   -1    0    0    0    0  0.00000000000E+00  0.00000000000E+00  0.93234578044E-11  0.17124000000E+03  0.17124000000E+03 0. -1.
       11    1    1    2    0    0  0.45045515038E-01  0.12809785475E-01  0.92149862335E+00  0.92268800962E+00  0.51109989000E-03 0. -1.
     -623    1    1    2    0    0  0.10638338854E-01 -0.26934117274E-02  0.15397959059E-02  0.17124000036E+03  0.17124000000E+03 0. -1.
     -611    1    1    2    0    0 -0.39117410400E-01 -0.68760795684E-02  0.32259845678E+01  0.32262290906E+01  0.51109989000E-03 0. -1.
      611    1    1    2    0    0 -0.16566443518E-01 -0.32402941839E-02  0.13509769913E+01  0.13510825433E+01  0.51109989000E-03 0. -1.
</event>
<event>
 6   3  0.2312675E+03  0.9118800E+02  0.7818608E-02  0.1180000E+00
       11   -1    0    0    0    0  0.00000000000E+00  0.00000000000E+00  0.54999999763E+01  0.55000000000E+01  0.51109989000E-03 0. -1.
     -623   -1    0    0    0    0  0.00000000000E+00  0.00000000000E+00  0.93234578044E-11  0.17124000000E+03  0.17124000000E+03 0. -1.
       11    1    1    2    0    0 -0.48501405193E-01 -0.44582857412E-01  0.16173197307E+00  0.17463536245E+00  0.51109989000E-03 0. -1.
     -623    1    1    2    0    0 -0.94272039806E-02  0.36937627615E-01  0.13229133095E-01  0.17124000475E+03  0.17124000000E+03 0. -1.
     -611    1    1    2    0    0  0.26358071768E-01  0.32642387439E-02  0.23357794291E+01  0.23359304796E+01  0.51109989000E-03 0.  1.
      611    1    1    2    0    0  0.31570537407E-01  0.43809910540E-02  0.29892594412E+01  0.29894294037E+01  0.51109989000E-03 0. -1.
</event>
<event>
 6   3  0.2312675E+03  0.9118800E+02  0.7818608E-02  0.1180000E+00
       11   -1    0    0    0    0  0.00000000000E+00  0.00000000000E+00  0.54999999763E+01  0.55000000000E+01  0.51109989000E-03 0.  1.
     -623   -1    0    0    0    0  0.00000000000E+00  0.00000000000E+00  0.93234578044E-11  0.17124000000E+03  0.17124000000E+03 0.  1.
       11    1    1    2    0    0  0.13527388857E-01  0.16400662018E-01  0.13544286341E+00  0.13710216058E+00  0.51109989000E-03 0.  1.
     -623    1    1    2    0    0 -0.62936088977E-02  0.58333610083E-02  0.23984978265E-02  0.17124000023E+03  0.17124000000E+03 0.  1.
     -611    1    1    2    0    0 -0.42064001079E-01 -0.20557763807E-01  0.40671500310E+01  0.40674195306E+01  0.51109989000E-03 0.  1.
      611    1    1    2    0    0  0.34830221120E-01 -0.16762592185E-02  0.12950085841E+01  0.12954780771E+01  0.51109989000E-03 0. -1.
</event>
<event>
 6   3  0.2312675E+03  0.9118800E+02  0.7818608E-02  0.1180000E+00
       11   -1    0    0    0    0  0.00000000000E+00  0.00000000000E+00  0.54999999763E+01  0.55000000000E+01  0.51109989000E-03 0.  1.
     -623   -1    0    0    0    0  0.00000000000E+00  0.00000000000E+00  0.93234578044E-11  0.17124000000E+03  0.17124000000E+03 0.  1.
       11    1    1    2    0    0  0.42641319518E-01  0.14262353321E+00  0.90550947633E+00  0.91766411464E+00  0.51109989000E-03 0.  1.
     -623    1    1    2    0    0  0.18214561982E-01  0.12630235194E-01  0.15197052382E-01  0.17124000211E+03  0.17124000000E+03 0.  1.
     -611    1    1    2    0    0 -0.36176139725E-01 -0.96610726483E-01  0.27521737706E+01  0.27541065830E+01  0.51109989000E-03 0.  1.
      611    1    1    2    0    0 -0.24679741777E-01 -0.58643041930E-01  0.18271196771E+01  0.18282271937E+01  0.51109989000E-03 0. -1.
</event>
<event>
 6   3  0.2312675E+03  0.9118800E+02  0.7818608E-02  0.1180000E+00
       11   -1    0    0    0    0  0.00000000000E+00  0.00000000000E+00  0.54999999763E+01  0.55000000000E+01  0.51109989000E-03 0.  1.
     -623   -1    0    0    0    0  0.00000000000E+00  0.00000000000E+00  0.93234578044E-11  0.17124000000E+03  0.17124000000E+03 0.  1.
       11    1    1    2    0    0  0.38846629792E-02 -0.14245162594E-02  0.81704100246E-02  0.91726046520E-02  0.51109989000E-03 0.  1.
     -623    1    1    2    0    0 -0.58465502615E-03  0.47389860173E-02  0.16020558071E-02  0.17124000007E+03  0.17124000000E+03 0.  1.
     -611    1    1    2    0    0 -0.33037413289E-01  0.23818600672E-01  0.25849433664E+01  0.25852642544E+01  0.51109989000E-03 0. -1.
      611    1    1    2    0    0  0.29737405336E-01 -0.27133070430E-01  0.29052841440E+01  0.29055630669E+01  0.51109989000E-03 0.  1.
</event>
<event>
 6   3  0.2312675E+03  0.9118800E+02  0.7818608E-02  0.1180000E+00
       11   -1    0    0    0    0  0.00000000000E+00  0.00000000000E+00  0.54999999763E+01  0.55000000000E+01  0.51109989000E-03 0.  1.
     -623   -1    0    0    0    0  0.00000000000E+00  0.00000000000E+00  0.93234578044E-11  0.17124000000E+03  0.17124000000E+03 0. -1.
       11    1    1    2    0    0  0.25285490524E-01 -0.13714127711E-02  0.76921967306E+00  0.76963653983E+00  0.51109989000E-03 0.  1.
     -623    1    1    2    0    0 -0.27927651816E-03  0.29117754233E-02  0.86123751626E-03  0.17124000003E+03  0.17124000000E+03 0. -1.
     -611    1    1    2    0    0 -0.40487228463E-01  0.10359414866E-01  0.38539631326E+01  0.38541897491E+01  0.51109989000E-03 0.  1.
      611    1    1    2    0    0  0.15481014457E-01 -0.11899777518E-01  0.87595593280E+00  0.87617368366E+00  0.51109989000E-03 0. -1.
</event>
<event>
 6   3  0.2312675E+03  0.9118800E+02  0.7818608E-02  0.1180000E+00
       11   -1    0    0    0    0  0.00000000000E+00  0.00000000000E+00  0.54999999763E+01  0.55000000000E+01  0.51109989000E-03 0.  1.
     -623   -1    0    0    0    0  0.00000000000E+00  0.00000000000E+00  0.93234578044E-11  0.17124000000E+03  0.17124000000E+03 0.  1.
       11    1    1    2    0    0  0.32805460905E-01  0.60796014849E-02  0.75311237948E+00  0.75385123013E+00  0.51109989000E-03 0.  1.
     -623    1    1    2    0    0 -0.36897398160E-02  0.28914821358E-02  0.15926801235E-02  0.17124000007E+03  0.17124000000E+03 0.  1.
     -611    1    1    2    0    0  0.14736269375E-01  0.27937416168E-01  0.13466915990E+01  0.13470620553E+01  0.51109989000E-03 0. -1.
      611    1    1    2    0    0 -0.43851990464E-01 -0.36908499788E-01  0.33986033176E+01  0.33990866429E+01  0.51109989000E-03 0.  1.
</event>
<event>
 6   3  0.2312675E+03  0.9118800E+02  0.7818608E-02  0.1180000E+00
       11   -1    0    0    0    0  0.00000000000E+00  0.00000000000E+00  0.54999999763E+01  0.55000000000E+01  0.51109989000E-03 0.  1.
     -623   -1    0    0    0    0  0.00000000000E+00  0.00000000000E+00  0.93234578044E-11  0.17124000000E+03  0.17124000000E+03 0.  1.
       11    1    1    2    0    0  0.51509449110E-01 -0.26505962429E-01  0.29757354675E+00  0.30316013316E+00  0.51109989000E-03 0.  1.
     -623    1    1    2    0    0  0.13226980586E-01  0.11286119846E-01  0.64459497522E-02  0.17124000100E+03  0.17124000000E+03 0.  1.
     -611    1    1    2    0    0 -0.49512657867E-01  0.38714895397E-01  0.41802527214E+01  0.41807252268E+01  0.51109989000E-03 0.  1.
      611    1    1    2    0    0 -0.15223771830E-01 -0.23495052814E-01  0.10157277584E+01  0.10161136360E+01  0.51109989000E-03 0. -1.
</event>
<event>
 6   3  0.2312675E+03  0.9118800E+02  0.7818608E-02  0.1180000E+00
       11   -1    0    0    0    0  0.00000000000E+00  0.00000000000E+00  0.54999999763E+01  0.55000000000E+01  0.51109989000E-03 0.  1.
     -623   -1    0    0    0    0  0.00000000000E+00  0.00000000000E+00  0.93234578044E-11  0.17124000000E+03  0.17124000000E+03 0.  1.
       11    1    1    2    0    0  0.30422081678E-01 -0.78964107512E-01  0.61697289838E+00  0.62274926888E+00  0.51109989000E-03 0.  1.
     -623    1    1    2    0    0  0.26607778035E-01  0.53953466209E-02  0.68740672053E-02  0.17124000229E+03  0.17124000000E+03 0.  1.
     -611    1    1    2    0    0  0.77763346450E-02  0.82940370390E-02  0.53320086633E+00  0.53332231109E+00  0.51109989000E-03 0. -1.
      611    1    1    2    0    0 -0.64806194358E-01  0.65274723853E-01  0.43429521444E+01  0.43439261299E+01  0.51109989000E-03 0.  1.
</event>
<event>
 6   3  0.2312675E+03  0.9118800E+02  0.7818608E-02  0.1180000E+00
       11   -1    0    0    0    0  0.00000000000E+00  0.00000000000E+00  0.54999999763E+01  0.55000000000E+01  0.51109989000E-03 0.  1.
     -623   -1    0    0    0    0  0.00000000000E+00  0.00000000000E+00  0.93234578044E-11  0.17124000000E+03  0.17124000000E+03 0.  1.
       11    1    1    2    0    0  0.68852006958E-02  0.39833543426E-02  0.10737782431E+01  0.10738078272E+01  0.51109989000E-03 0.  1.
     -623    1    1    2    0    0 -0.97401562699E-03  0.37140202087E-02  0.63989953467E-03  0.17124000004E+03  0.17124000000E+03 0.  1.
     -611    1    1    2    0    0 -0.37854687854E-01 -0.82484432887E-02  0.30120766412E+01  0.30123258403E+01  0.51109989000E-03 0. -1.
      611    1    1    2    0    0  0.31943502785E-01  0.55106873738E-03  0.14135051925E+01  0.14138662884E+01  0.51109989000E-03 0.  1.
</event>
<event>
 6   3  0.2312675E+03  0.9118800E+02  0.7818608E-02  0.1180000E+00
       11   -1    0    0    0    0  0.00000000000E+00  0.00000000000E+00  0.54999999763E+01  0.55000000000E+01  0.51109989000E-03 0.  1.
     -623   -1    0    0    0    0  0.00000000000E+00  0.00000000000E+00  0.93234578044E-11  0.17124000000E+03  0.17124000000E+03 0.  1.
       11    1    1    2    0    0 -0.69571929233E-01  0.76547297484E-03  0.86836404157E+00  0.87114706520E+00  0.51109989000E-03 0.  1.
     -623    1    1    2    0    0  0.16854871441E-01  0.20805570274E-01  0.31361151858E-02  0.17124000212E+03  0.17124000000E+03 0.  1.
     -611    1    1    2    0    0  0.94906665723E-02 -0.31688876657E-02  0.81980652461E+00  0.81986774154E+00  0.51109989000E-03 0.  1.
      611    1    1    2    0    0  0.43226391235E-01 -0.18402155590E-01  0.38086932962E+01  0.38089830724E+01  0.51109989000E-03 0.  1.
</event>
<event>
 6   3  0.2312675E+03  0.9118800E+02  0.7818608E-02  0.1180000E+00
       11   -1    0    0    0    0  0.00000000000E+00  0.00000000000E+00  0.54999999763E+01  0.55000000000E+01  0.51109989000E-03 0. -1.
     -623   -1    0    0    0    0  0.00000000000E+00  0.00000000000E+00  0.93234578044E-11  0.17124000000E+03  0.17124000000E+03 0. -1.
       11    1    1    2    0    0 -0.42455677377E-01 -0.61341878137E-02  0.60838025251E+00  0.60989089652E+00  0.51109989000E-03 0. -1.
     -623    1    1    2    0    0 -0.55213415054E-01 -0.77202151593E-02  0.29031829665E-02  0.17124000910E+03  0.17124000000E+03 0. -1.
     -611    1    1    2    0    0  0.26260177360E-01  0.28698449091E-01  0.11145268187E+01  0.11152055813E+01  0.51109989000E-03 0. -1.
      611    1    1    2    0    0  0.71408915071E-01 -0.14844046118E-01  0.37741897221E+01  0.37748944222E+01  0.51109989000E-03 0.  1.
</event>
<event>
 6   3  0.2312675E+03  0.9118800E+02  0.7818608E-02  0.1180000E+00
       11   -1    0    0    0    0  0.00000000000E+00  0.00000000000E+00  0.54999999763E+01  0.55000000000E+01  0.51109989000E-03 0. -1.
     -623   -1    0    0    0    0  0.00000000000E+00  0.00000000000E+00  0.93234578044E-11  0.17124000000E+03  0.17124000000E+03 0. -1.
       11    1    1    2    0    0 -0.28222738366E-01 -0.25192226738E-01  0.10737769621E+00  0.11384815376E+00  0.51109989000E-03 0. -1.
     -623    1    1    2    0    0 -0.71579967078E-02  0.40352630719E-02  0.79167490616E-02  0.17124000038E+03  0.17124000000E+03 0. -1.
     -611    1    1    2    0    0  0.75853616408E-01  0.26098358276E-01  0.28917101200E+01  0.28928225965E+01  0.51109989000E-03 0.  1.
      611    1    1    2    0    0 -0.40472881334E-01 -0.49413946103E-02  0.24929954109E+01  0.24933288695E+01  0.51109989000E-03 0. -1.
</event>
<event>
 6   3  0.2312675E+03  0.9118800E+02  0.7818608E-02  0.1180000E+00
       11   -1    0    0    0    0  0.00000000000E+00  0.00000000000E+00  0.54999999763E+01  0.55000000000E+01  0.51109989000E-03 0. -1.
     -623   -1    0    0    0    0  0.00000000000E+00  0.00000000000E+00  0.93234578044E-11  0.17124000000E+03  0.17124000000E+03 0. -1.
       11    1    1    2    0    0  0.98879076642E-02 -0.14620341111E-01  0.14348293305E+00  0.14456534299E+00  0.51109989000E-03 0. -1.
     -623    1    1    2    0    0  0.72086891790E-01  0.20931051683E-01  0.17328806624E-02  0.17124001646E+03  0.17124000000E+03 0. -1.
     -611    1    1    2    0    0 -0.26968495223E-01 -0.45664343862E-02  0.17355701634E+01  0.17357857602E+01  0.51109989000E-03 0. -1.
      611    1    1    2    0    0 -0.55006304231E-01 -0.17442761863E-02  0.36192139992E+01  0.36196324356E+01  0.51109989000E-03 0.  1.
</event>
<event>
 6   3  0.2312675E+03  0.9118800E+02  0.7818608E-02  0.1180000E+00
       11   -1    0    0    0    0  0.00000000000E+00  0.00000000000E+00  0.54999999763E+01  0.55000000000E+01  0.51109989000E-03 0.  1.
     -623   -1    0    0    0    0  0.00000000000E+00  0.00000000000E+00  0.93234578044E-11  0.17124000000E+03  0.17124000000E+03 0. -1.
       11    1    1    2    0    0  0.28694383543E-02  0.10804534272E-01  0.21992093378E-01  0.24675595870E-01  0.51109989000E-03 0.  1.
     -623    1    1    2    0    0  0.83985395114E-02 -0.42807993378E-02  0.38216739733E-02  0.17124000030E+03  0.17124000000E+03 0. -1.
     -611    1    1    2    0    0 -0.51316908363E-01  0.24290413653E-01  0.36364870301E+01  0.36369302482E+01  0.51109989000E-03 0. -1.
      611    1    1    2    0    0  0.40048930497E-01 -0.30814148587E-01  0.18376991788E+01  0.18383938538E+01  0.51109989000E-03 0.  1.
</event>
<event>
 6   3  0.2312675E+03  0.9118800E+02  0.7818608E-02  0.1180000E+00
       11   -1    0    0    0    0  0.00000000000E+00  0.00000000000E+00  0.54999999763E+01  0.55000000000E+01  0.51109989000E-03 0.  1.
     -623   -1    0    0    0    0  0.00000000000E+00  0.00000000000E+00  0.93234578044E-11  0.17124000000E+03  0.17124000000E+03 0. -1.
       11    1    1    2    0    0 -0.30776833580E-02  0.20324159761E-02  0.84740991854E-01  0.84822755042E-01  0.51109989000E-03 0.  1.
     -623    1    1    2    0    0 -0.77774605732E-03  0.10520350815E-01  0.78021799459E-03  0.17124000033E+03  0.17124000000E+03 0. -1.
     -611    1    1    2    0    0  0.40498323903E-01 -0.85089551434E-02  0.40125905229E+01  0.40128039427E+01  0.51109989000E-03 0.  1.
      611    1    1    2    0    0 -0.36642894487E-01 -0.40438116473E-02  0.14018882434E+01  0.14023729755E+01  0.51109989000E-03 0. -1.
</event>
<event>
 6   3  0.2312675E+03  0.9118800E+02  0.7818608E-02  0.1180000E+00
       11   -1    0    0    0    0  0.00000000000E+00  0.00000000000E+00  0.54999999763E+01  0.55000000000E+01  0.51109989000E-03 0. -1.
     -623   -1    0    0    0    0  0.00000000000E+00  0.00000000000E+00  0.93234578044E-11  0.17124000000E+03  0.17124000000E+03 0.  1.
       11    1    1    2    0    0 -0.55589473151E-03 -0.34435353975E-02  0.36805179077E-02  0.50965076428E-02  0.51109989000E-03 0. -1.
     -623    1    1    2    0    0 -0.24376633860E-02  0.24278573423E-02  0.21211318527E-02  0.17124000005E+03  0.17124000000E+03 0.  1.
     -611    1    1    2    0    0 -0.38857246138E-01  0.99722692994E-02  0.35898618545E+01  0.35900860334E+01  0.51109989000E-03 0.  1.
      611    1    1    2    0    0  0.41850804255E-01 -0.89565912443E-02  0.19043364720E+01  0.19048174112E+01  0.51109989000E-03 0. -1.
</event>
<event>
 6   3  0.2312675E+03  0.9118800E+02  0.7818608E-02  0.1180000E+00
       11   -1    0    0    0    0  0.00000000000E+00  0.00000000000E+00  0.54999999763E+01  0.55000000000E+01  0.51109989000E-03 0.  1.
     -623   -1    0    0    0    0  0.00000000000E+00  0.00000000000E+00  0.93234578044E-11  0.17124000000E+03  0.17124000000E+03 0.  1.
       11    1    1    2    0    0 -0.10354704291E-02  0.47532357200E-03  0.43768845014E-01  0.43786654913E-01  0.51109989000E-03 0.  1.
     -623    1    1    2    0    0  0.60453391149E-01  0.10656301279E-01  0.37123145064E-03  0.17124001100E+03  0.17124000000E+03 0.  1.
     -611    1    1    2    0    0 -0.23130934978E-01  0.94044109075E-04  0.20311891467E+01  0.20313209151E+01  0.51109989000E-03 0. -1.
      611    1    1    2    0    0 -0.36286985739E-01 -0.11225668960E-01  0.34246707527E+01  0.34248814267E+01  0.51109989000E-03 0.  1.
</event>
<event>
 6   3  0.2312675E+03  0.9118800E+02  0.7818608E-02  0.1180000E+00
       11   -1    0    0    0    0  0.00000000000E+00  0.00000000000E+00  0.54999999763E+01  0.55000000000E+01  0.51109989000E-03 0.  1.
     -623   -1    0    0    0    0  0.00000000000E+00  0.00000000000E+00  0.93234578044E-11  0.17124000000E+03  0.17124000000E+03 0.  1.
       11    1    1    2    0    0  0.65364752564E-01  0.35223124392E-01  0.87246100740E-01  0.11456597526E+00  0.51109989000E-03 0.  1.
     -623    1    1    2    0    0 -0.95135332899E-02  0.85974055247E-01  0.31620975930E-01  0.17124002477E+03  0.17124000000E+03 0.  1.
     -611    1    1    2    0    0 -0.10883545029E+00 -0.10642368108E+00  0.44904716762E+01  0.44930510003E+01  0.51109989000E-03 0.  1.
      611    1    1    2    0    0  0.52984231014E-01 -0.14773498558E-01  0.89066122339E+00  0.89235825825E+00  0.51109989000E-03 0. -1.
</event>
<event>
 6   3  0.2312675E+03  0.9118800E+02  0.7818608E-02  0.1180000E+00
       11   -1    0    0    0    0  0.00000000000E+00  0.00000000000E+00  0.54999999763E+01  0.55000000000E+01  0.51109989000E-03 0.  1.
     -623   -1    0    0    0    0  0.00000000000E+00  0.00000000000E+00  0.93234578044E-11  0.17124000000E+03  0.17124000000E+03 0. -1.
       11    1    1    2    0    0 -0.57505268323E-02  0.16530765156E-03  0.52856238009E+00  0.52859393371E+00  0.51109989000E-03 0.  1.
     -623    1    1    2    0    0  0.78325410016E-01  0.49935679681E-02  0.58882354288E-03  0.17124001799E+03  0.17124000000E+03 0. -1.
     -611    1    1    2    0    0 -0.42943874376E-01 -0.56356150851E-02  0.27380956787E+01  0.27384382673E+01  0.51109989000E-03 0.  1.
      611    1    1    2    0    0 -0.29631008905E-01  0.47673945929E-03  0.22327531007E+01  0.22329498189E+01  0.51109989000E-03 0. -1.
</event>
<event>
 6   3  0.2312675E+03  0.9118800E+02  0.7818608E-02  0.1180000E+00
       11   -1    0    0    0    0  0.00000000000E+00  0.00000000000E+00  0.54999999763E+01  0.55000000000E+01  0.51109989000E-03 0.  1.
     -623   -1    0    0    0    0  0.00000000000E+00  0.00000000000E+00  0.93234578044E-11  0.17124000000E+03  0.17124000000E+03 0. -1.
       11    1    1    2    0    0 -0.48629844082E-01 -0.54421730605E-01  0.44686487338E+00  0.45278589066E+00  0.51109989000E-03 0.  1.
     -623    1    1    2    0    0  0.10955564510E+00  0.96667611693E-01  0.65395757840E-02  0.17124006246E+03  0.17124000000E+03 0. -1.
     -611    1    1    2    0    0 -0.18238314484E-01 -0.75915504839E-02  0.11875015829E+01  0.11876660045E+01  0.51109989000E-03 0. -1.
      611    1    1    2    0    0 -0.42687486529E-01 -0.34654330604E-01  0.38590939442E+01  0.38594856491E+01  0.51109989000E-03 0.  1.
</event>
<event>
 6   3  0.2312675E+03  0.9118800E+02  0.7818608E-02  0.1180000E+00
       11   -1    0    0    0    0  0.00000000000E+00  0.00000000000E+00  0.54999999763E+01  0.55000000000E+01  0.51109989000E-03 0.  1.
     -623   -1    0    0    0    0  0.00000000000E+00  0.00000000000E+00  0.93234578044E-11  0.17124000000E+03  0.17124000000E+03 0.  1.
       11    1    1    2    0    0  0.26381142589E-01  0.75536840293E-03  0.39588370375E-01  0.47581882663E-01  0.51109989000E-03 0.  1.
     -623    1    1    2    0    0 -0.14924420178E-01 -0.14643923569E-01  0.13385465411E-01  0.17124000180E+03  0.17124000000E+03 0.  1.
     -611    1    1    2    0    0 -0.79462469969E-01 -0.62388464702E-01  0.41983604423E+01  0.41995758440E+01  0.51109989000E-03 0.  1.
      611    1    1    2    0    0  0.68005747558E-01  0.76277019868E-01  0.12486656982E+01  0.12528404737E+01  0.51109989000E-03 0. -1.
</event>
<event>
 6   3  0.2312675E+03  0.9118800E+02  0.7818608E-02  0.1180000E+00
       11   -1    0    0    0    0  0.00000000000E+00  0.00000000000E+00  0.54999999763E+01  0.55000000000E+01  0.51109989000E-03 0. -1.
     -623   -1    0    0    0    0  0.00000000000E+00  0.00000000000E+00  0.93234578044E-11  0.17124000000E+03  0.17124000000E+03 0.  1.
       11    1    1    2    0    0  0.19020462693E-02 -0.24980729366E-02  0.10883187698E-02  0.33621138068E-02  0.51109989000E-03 0.  1.
     -623    1    1    2    0    0  0.54197369711E-02 -0.54213192750E-02  0.62624221350E-02  0.17124000029E+03  0.17124000000E+03 0.  1.
     -611    1    1    2    0    0  0.61652021548E-01  0.60278413381E-01  0.11911381632E+01  0.11942549326E+01  0.51109989000E-03 0.  1.
      611    1    1    2    0    0 -0.68973804789E-01 -0.52359021169E-01  0.43015110721E+01  0.43023826675E+01  0.51109989000E-03 0. -1.
</event>
<event>
 6   3  0.2312675E+03  0.9118800E+02  0.7818608E-02  0.1180000E+00
       11   -1    0    0    0    0  0.00000000000E+00  0.00000000000E+00  0.54999999763E+01  0.55000000000E+01  0.51109989000E-03 0.  1.
     -623   -1    0    0    0    0  0.00000000000E+00  0.00000000000E+00  0.93234578044E-11  0.17124000000E+03  0.17124000000E+03 0. -1.
       11    1    1    2    0    0 -0.11421681444E-01 -0.43915011551E-02  0.52388651046E-01  0.53801227411E-01  0.51109989000E-03 0.  1.
     -623    1    1    2    0    0  0.65939740495E-02  0.81261082235E-02  0.36086574876E-02  0.17124000036E+03  0.17124000000E+03 0. -1.
     -611    1    1    2    0    0  0.70543461548E-01  0.34194224552E-01  0.29524451345E+01  0.29534857640E+01  0.51109989000E-03 0.  1.
      611    1    1    2    0    0 -0.65715754153E-01 -0.37928831621E-01  0.24915575332E+01  0.24927126507E+01  0.51109989000E-03 0. -1.
</event>
<event>
 6   3  0.2312675E+03  0.9118800E+02  0.7818608E-02  0.1180000E+00
       11   -1    0    0    0    0  0.00000000000E+00  0.00000000000E+00  0.54999999763E+01  0.55000000000E+01  0.51109989000E-03 0.  1.
     -623   -1    0    0    0    0  0.00000000000E+00  0.00000000000E+00  0.93234578044E-11  0.17124000000E+03  0.17124000000E+03 0.  1.
       11    1    1    2    0    0 -0.10486034036E-02  0.79027364102E-03  0.78341173957E+00  0.78341300667E+00  0.51109989000E-03 0.  1.
     -623    1    1    2    0    0  0.15161337355E-02 -0.26664091060E-02  0.35956305659E-03  0.17124000003E+03  0.17124000000E+03 0.  1.
     -611    1    1    2    0    0 -0.29156928699E-01  0.36022941961E-02  0.24187036245E+01  0.24188820946E+01  0.51109989000E-03 0.  1.
      611    1    1    2    0    0  0.28689398367E-01 -0.17261587311E-02  0.22975250494E+01  0.22977048712E+01  0.51109989000E-03 0. -1.
</event>
<event>
 6   3  0.2312675E+03  0.9118800E+02  0.7818608E-02  0.1180000E+00
       11   -1    0    0    0    0  0.00000000000E+00  0.00000000000E+00  0.54999999763E+01  0.55000000000E+01  0.51109989000E-03 0.  1.
     -623   -1    0    0    0    0  0.00000000000E+00  0.00000000000E+00  0.93234578044E-11  0.17124000000E+03  0.17124000000E+03 0.  1.
       11    1    1    2    0    0 -0.83936530370E-01 -0.33171540543E-01  0.89332432169E+00  0.89787209399E+00  0.51109989000E-03 0.  1.
     -623    1    1    2    0    0 -0.56680206120E-02 -0.37159060027E-02  0.55882705764E-02  0.17124000023E+03  0.17124000000E+03 0.  1.
     -611    1    1    2    0    0  0.17617175751E-01  0.13322733201E-01  0.10601875433E+01  0.10604177235E+01  0.51109989000E-03 0. -1.
      611    1    1    2    0    0  0.71987375231E-01  0.23564713345E-01  0.35408998407E+01  0.35417099572E+01  0.51109989000E-03 0.  1.
</event>
<event>
 6   3  0.2312675E+03  0.9118800E+02  0.7818608E-02  0.1180000E+00
       11   -1    0    0    0    0  0.00000000000E+00  0.00000000000E+00  0.54999999763E+01  0.55000000000E+01  0.51109989000E-03 0. -1.
     -623   -1    0    0    0    0  0.00000000000E+00  0.00000000000E+00  0.93234578044E-11  0.17124000000E+03  0.17124000000E+03 0. -1.
       11    1    1    2    0    0 -0.46049288592E-01  0.36516470679E-01  0.21670732278E+00  0.22453577573E+00  0.51109989000E-03 0. -1.
     -623    1    1    2    0    0 -0.19674196184E-01  0.62894948827E-02  0.84132034613E-02  0.17124000145E+03  0.17124000000E+03 0. -1.
     -611    1    1    2    0    0  0.52001866457E-01 -0.33950468298E-01  0.41530703443E+01  0.41535346844E+01  0.51109989000E-03 0. -1.
      611    1    1    2    0    0  0.13721618361E-01 -0.88554972904E-02  0.11218091091E+01  0.11219280909E+01  0.51109989000E-03 0. -1.
</event>
<event>
 6   3  0.2312675E+03  0.9118800E+02  0.7818608E-02  0.1180000E+00
       11   -1    0    0    0    0  0.00000000000E+00  0.00000000000E+00  0.54999999763E+01  0.55000000000E+01  0.51109989000E-03 0. -1.
     -623   -1    0    0    0    0  0.00000000000E+00  0.00000000000E+00  0.93234578044E-11  0.17124000000E+03  0.17124000000E+03 0. -1.
       11    1    1    2    0    0 -0.48905037099E-01 -0.74799295479E-02  0.53505940030E+00  0.53734204662E+00  0.51109989000E-03 0. -1.
     -623    1    1    2    0    0 -0.34231803683E-02  0.42432668491E-02  0.25600093825E-02  0.17124000011E+03  0.17124000000E+03 0. -1.
     -611    1    1    2    0    0  0.24369689865E-01  0.86276560402E-03  0.23437429166E+01  0.23438698228E+01  0.51109989000E-03 0.  1.
      611    1    1    2    0    0  0.27958527545E-01  0.23738970913E-02  0.26186376446E+01  0.26187880192E+01  0.51109989000E-03 0. -1.
</event>
<event>
 6   3  0.2312675E+03  0.9118800E+02  0.7818608E-02  0.1180000E+00
       11   -1    0    0    0    0  0.00000000000E+00  0.00000000000E+00  0.54999999763E+01  0.55000000000E+01  0.51109989000E-03 0. -1.
     -623   -1    0    0    0    0  0.00000000000E+00  0.00000000000E+00  0.93234578044E-11  0.17124000000E+03  0.17124000000E+03 0.  1.
       11    1    1    2    0    0  0.17515860691E-02 -0.29939959977E-02  0.24747523165E+00  0.24750006782E+00  0.51109989000E-03 0. -1.
     -623    1    1    2    0    0 -0.57532345431E-01 -0.27298976821E-01  0.42075632964E-03  0.17124001184E+03  0.17124000000E+03 0.  1.
     -611    1    1    2    0    0  0.46011444128E-01  0.25130740864E-01  0.43963282269E+01  0.43966408481E+01  0.51109989000E-03 0. -1.
      611    1    1    2    0    0  0.97693152229E-02  0.51622319503E-02  0.85577576029E+00  0.85584724179E+00  0.51109989000E-03 0. -1.
</event>
<event>
 6   3  0.2312675E+03  0.9118800E+02  0.7818608E-02  0.1180000E+00
       11   -1    0    0    0    0  0.00000000000E+00  0.00000000000E+00  0.54999999763E+01  0.55000000000E+01  0.51109989000E-03 0.  1.
     -623   -1    0    0    0    0  0.00000000000E+00  0.00000000000E+00  0.93234578044E-11  0.17124000000E+03  0.17124000000E+03 0. -1.
       11    1    1    2    0    0  0.20329847680E-01  0.78989444361E-02  0.63782197975E+00  0.63819498205E+00  0.51109989000E-03 0.  1.
     -623    1    1    2    0    0 -0.78376548089E-01 -0.76162777428E-01  0.12338412826E-02  0.17124003488E+03  0.17124000000E+03 0. -1.
     -611    1    1    2    0    0  0.17461749390E-01  0.20722808879E-01  0.14611965646E+01  0.14614479153E+01  0.51109989000E-03 0.  1.
      611    1    1    2    0    0  0.40584950907E-01  0.47541023977E-01  0.33997475809E+01  0.34003222145E+01  0.51109989000E-03 0.  1.
</event>
<event>
 6   3  0.2312675E+03  0.9118800E+02  0.7818608E-02  0.1180000E+00
       11   -1    0    0    0    0  0.00000000000E+00  0.00000000000E+00  0.54999999763E+01  0.55000000000E+01  0.51109989000E-03 0. -1.
     -623   -1    0    0    0    0  0.00000000000E+00  0.00000000000E+00  0.93234578044E-11  0.17124000000E+03  0.17124000000E+03 0. -1.
       11    1    1    2    0    0  0.12529641068E+00 -0.12689428794E+00  0.64775055123E+00  0.67184997483E+00  0.51109989000E-03 0. -1.
     -623    1    1    2    0    0 -0.56260554042E-03  0.61233617417E-01  0.26173937215E-01  0.17124001295E+03  0.17124000000E+03 0. -1.
     -611    1    1    2    0    0 -0.35610806671E-01  0.17811337168E-01  0.12824015955E+01  0.12830196751E+01  0.51109989000E-03 0.  1.
      611    1    1    2    0    0 -0.89122998470E-01  0.47849333358E-01  0.35436738922E+01  0.35451174005E+01  0.51109989000E-03 0. -1.
</event>
<event>
 6   3  0.2312675E+03  0.9118800E+02  0.7818608E-02  0.1180000E+00
       11   -1    0    0    0    0  0.00000000000E+00  0.00000000000E+00  0.54999999763E+01  0.55000000000E+01  0.51109989000E-03 0. -1.
     -623   -1    0    0    0    0  0.00000000000E+00  0.00000000000E+00  0.93234578044E-11  0.17124000000E+03  0.17124000000E+03 0. -1.
       11    1    1    2    0    0 -0.11673321091E-02  0.17424045095E-02  0.20638558905E-02  0.29865300872E-02  0.51109989000E-03 0. -1.
     -623    1    1    2    0    0  0.24177203254E-02  0.19236163991E-02  0.26233460123E-02  0.17124000005E+03  0.17124000000E+03 0. -1.
     -611    1    1    2    0    0  0.48485799307E-01  0.30874618455E-01  0.13076881847E+01  0.13089510168E+01  0.51109989000E-03 0.  1.
      611    1    1    2    0    0 -0.49736187524E-01 -0.34540639364E-01  0.41876245896E+01  0.41880624051E+01  0.51109989000E-03 0. -1.
</event>
<event>
 6   3  0.2312675E+03  0.9118800E+02  0.7818608E-02  0.1180000E+00
       11   -1    0    0    0    0  0.00000000000E+00  0.00000000000E+00  0.54999999763E+01  0.55000000000E+01  0.51109989000E-03 0.  1.
     -623   -1    0    0    0    0  0.00000000000E+00  0.00000000000E+00  0.93234578044E-11  0.17124000000E+03  0.17124000000E+03 0. -1.
       11    1    1    2    0    0  0.24024292834E-02 -0.54972907937E-03  0.56887459526E-01  0.56943113217E-01  0.51109989000E-03 0.  1.
     -623    1    1    2    0    0  0.30544938155E-02  0.39832002914E-03  0.95961923610E-03  0.17124000003E+03  0.17124000000E+03 0. -1.
     -611    1    1    2    0    0 -0.44447884610E-01 -0.26682030383E-01  0.27947909750E+01  0.27952717936E+01  0.51109989000E-03 0. -1.
      611    1    1    2    0    0  0.38990961511E-01  0.26833439433E-01  0.26473619225E+01  0.26477850627E+01  0.51109989000E-03 0.  1.
</event>
<event>
 6   3  0.2312675E+03  0.9118800E+02  0.7818608E-02  0.1180000E+00
       11   -1    0    0    0    0  0.00000000000E+00  0.00000000000E+00  0.54999999763E+01  0.55000000000E+01  0.51109989000E-03 0. -1.
     -623   -1    0    0    0    0  0.00000000000E+00  0.00000000000E+00  0.93234578044E-11  0.17124000000E+03  0.17124000000E+03 0. -1.
       11    1    1    2    0    0 -0.39795666399E-01  0.28770982918E-01  0.69731326366E+00  0.69904042331E+00  0.51109989000E-03 0. -1.
     -623    1    1    2    0    0 -0.38829589298E-01 -0.31326485530E-02  0.24538572098E-02  0.17124000445E+03  0.17124000000E+03 0. -1.
     -611    1    1    2    0    0  0.92846253267E-02 -0.60565329117E-02  0.55690835983E+00  0.55701891200E+00  0.51109989000E-03 0.  1.
      611    1    1    2    0    0  0.69340630369E-01 -0.19581801453E-01  0.42433244955E+01  0.42439362160E+01  0.51109989000E-03 0. -1.
</event>
<event>
 6   3  0.2312675E+03  0.9118800E+02  0.7818608E-02  0.1180000E+00
       11   -1    0    0    0    0  0.00000000000E+00  0.00000000000E+00  0.54999999763E+01  0.55000000000E+01  0.51109989000E-03 0.  1.
     -623   -1    0    0    0    0  0.00000000000E+00  0.00000000000E+00  0.93234578044E-11  0.17124000000E+03  0.17124000000E+03 0.  1.
       11    1    1    2    0    0 -0.19941039609E+00 -0.92717390635E-01  0.10637786948E+01  0.10862717861E+01  0.51109989000E-03 0.  1.
     -623    1    1    2    0    0  0.67140018959E-02  0.51571539601E-01  0.26951403422E-01  0.17124001002E+03  0.17124000000E+03 0.  1.
     -611    1    1    2    0    0  0.69374091597E-01  0.15357035752E-01  0.13771781733E+01  0.13790100019E+01  0.51109989000E-03 0. -1.
      611    1    1    2    0    0  0.12332230260E+00  0.25788815281E-01  0.30320917048E+01  0.30347081936E+01  0.51109989000E-03 0.  1.
</event>
<event>
 6   3  0.3101487E+03  0.9118800E+02  0.7818608E-02  0.1180000E+00
       11   -1    0    0    0    0  0.00000000000E+00  0.00000000000E+00  0.54999999763E+01  0.55000000000E+01  0.51109989000E-03 0.  1.
     -623   -1    0    0    0    0  0.00000000000E+00  0.00000000000E+00  0.93234578044E-11  0.17124000000E+03  0.17124000000E+03 0.  1.
       11    1    1    2    0    0 -0.16152985433E-02 -0.14223796432E-02 -0.27282792456E-03  0.22289036335E-02  0.51109989000E-03 0.  1.
     -623    1    1    2    0    0  0.25679883284E-02 -0.34503176881E-03  0.45543402004E-02  0.17124000008E+03  0.17124000000E+03 0.  1.
     -611    1    1    2    0    0  0.61183666351E-01  0.25820055585E-01  0.14679547544E+01  0.14694562050E+01  0.51109989000E-03 0. -1.
      611    1    1    2    0    0 -0.62136356136E-01 -0.24052644173E-01  0.40277637096E+01  0.40283148112E+01  0.51109989000E-03 0.  1.
</event>
<event>
 6   3  0.2312675E+03  0.9118800E+02  0.7818608E-02  0.1180000E+00
       11   -1    0    0    0    0  0.00000000000E+00  0.00000000000E+00  0.54999999763E+01  0.55000000000E+01  0.51109989000E-03 0. -1.
     -623   -1    0    0    0    0  0.00000000000E+00  0.00000000000E+00  0.93234578044E-11  0.17124000000E+03  0.17124000000E+03 0. -1.
       11    1    1    2    0    0 -0.14681958107E-02 -0.33551592583E-02  0.92558372140E-02  0.99671680139E-02  0.51109989000E-03 0. -1.
     -623    1    1    2    0    0  0.20476423329E-02  0.48129163176E-02  0.13897153569E-02  0.17124000009E+03  0.17124000000E+03 0. -1.
     -611    1    1    2    0    0 -0.40455949558E-01 -0.13602540777E-01  0.33524215862E+01  0.33526933152E+01  0.51109989000E-03 0. -1.
      611    1    1    2    0    0  0.39876503036E-01  0.12144783718E-01  0.21369328376E+01  0.21373394314E+01  0.51109989000E-03 0.  1.
</event>
<event>
 6   3  0.2312675E+03  0.9118800E+02  0.7818608E-02  0.1180000E+00
       11   -1    0    0    0    0  0.00000000000E+00  0.00000000000E+00  0.54999999763E+01  0.55000000000E+01  0.51109989000E-03 0.  1.
     -623   -1    0    0    0    0  0.00000000000E+00  0.00000000000E+00  0.93234578044E-11  0.17124000000E+03  0.17124000000E+03 0. -1.
       11    1    1    2    0    0 -0.22564501669E-01 -0.15292175168E-01  0.10323300314E+01  0.10326899642E+01  0.51109989000E-03 0.  1.
     -623    1    1    2    0    0 -0.29524759872E-01  0.20216616796E-01  0.22329057902E-02  0.17124000375E+03  0.17124000000E+03 0. -1.
     -611    1    1    2    0    0  0.87922360435E-01 -0.14444922647E-01  0.26698401430E+01  0.26713265707E+01  0.51109989000E-03 0. -1.
      611    1    1    2    0    0 -0.35833098894E-01  0.95204810193E-02  0.17955968961E+01  0.17959797118E+01  0.51109989000E-03 0.  1.
</event>
<event>
 6   3  0.2312675E+03  0.9118800E+02  0.7818608E-02  0.1180000E+00
       11   -1    0    0    0    0  0.00000000000E+00  0.00000000000E+00  0.54999999763E+01  0.55000000000E+01  0.51109989000E-03 0.  1.
     -623   -1    0    0    0    0  0.00000000000E+00  0.00000000000E+00  0.93234578044E-11  0.17124000000E+03  0.17124000000E+03 0. -1.
       11    1    1    2    0    0  0.50095612015E-02  0.46871123099E-02  0.78415499957E+00  0.78418517539E+00  0.51109989000E-03 0.  1.
     -623    1    1    2    0    0 -0.50541278702E-02 -0.84601622523E-02  0.44497149927E-03  0.17124000028E+03  0.17124000000E+03 0. -1.
     -611    1    1    2    0    0  0.28776090046E-01  0.13468757718E-01  0.21383498755E+01  0.21385859632E+01  0.51109989000E-03 0. -1.
      611    1    1    2    0    0 -0.28731523377E-01 -0.96957077756E-02  0.25770501298E+01  0.25772285773E+01  0.51109989000E-03 0.  1.
</event>
<event>
 6   3  0.2312675E+03  0.9118800E+02  0.7818608E-02  0.1180000E+00
       11   -1    0    0    0    0  0.00000000000E+00  0.00000000000E+00  0.54999999763E+01  0.55000000000E+01  0.51109989000E-03 0.  1.
     -623   -1    0    0    0    0  0.00000000000E+00  0.00000000000E+00  0.93234578044E-11  0.17124000000E+03  0.17124000000E+03 0.  1.
       11    1    1    2    0    0 -0.13024167325E-01 -0.81780961745E-03  0.73575183612E+00  0.73586773494E+00  0.51109989000E-03 0.  1.
     -623    1    1    2    0    0 -0.39505840769E-02 -0.19694681012E-02  0.69334916657E-03  0.17124000006E+03  0.17124000000E+03 0.  1.
     -611    1    1    2    0    0  0.39054801807E-01 -0.18702122807E-01  0.28700589927E+01  0.28703856761E+01  0.51109989000E-03 0. -1.
      611    1    1    2    0    0 -0.22080050405E-01  0.21489400526E-01  0.18934957983E+01  0.18937465306E+01  0.51109989000E-03 0.  1.
</event>
<event>
 6   3  0.2312675E+03  0.9118800E+02  0.7818608E-02  0.1180000E+00
       11   -1    0    0    0    0  0.00000000000E+00  0.00000000000E+00  0.54999999763E+01  0.55000000000E+01  0.51109989000E-03 0. -1.
     -623   -1    0    0    0    0  0.00000000000E+00  0.00000000000E+00  0.93234578044E-11  0.17124000000E+03  0.17124000000E+03 0. -1.
       11    1    1    2    0    0  0.27066447754E-01 -0.53083209711E-02  0.90548955500E+00  0.90590968992E+00  0.51109989000E-03 0. -1.
     -623    1    1    2    0    0  0.24867104561E-01  0.43604322751E-02  0.71613932346E-03  0.17124000186E+03  0.17124000000E+03 0. -1.
     -611    1    1    2    0    0 -0.75644409841E-02 -0.14858148270E-03  0.62729822554E+00  0.62734405858E+00  0.51109989000E-03 0. -1.
      611    1    1    2    0    0 -0.44369111315E-01  0.10964701784E-02  0.39664960550E+01  0.39667443875E+01  0.51109989000E-03 0. -1.
</event>
<event>
 6   3  0.2312675E+03  0.9118800E+02  0.7818608E-02  0.1180000E+00
       11   -1    0    0    0    0  0.00000000000E+00  0.00000000000E+00  0.54999999763E+01  0.55000000000E+01  0.51109989000E-03 0. -1.
     -623   -1    0    0    0    0  0.00000000000E+00  0.00000000000E+00  0.93234578044E-11  0.17124000000E+03  0.17124000000E+03 0. -1.
       11    1    1    2    0    0 -0.11874449636E+00  0.22773136689E-01  0.31460449017E+00  0.33703874797E+00  0.51109989000E-03 0. -1.
     -623    1    1    2    0    0  0.11136637214E-01  0.21186227683E-01  0.23783165725E-01  0.17124000332E+03  0.17124000000E+03 0. -1.
     -611    1    1    2    0    0  0.66962578325E-01 -0.17249071831E-01  0.31223963902E+01  0.31231620188E+01  0.51109989000E-03 0.  1.
      611    1    1    2    0    0  0.40645280825E-01 -0.26710292540E-01  0.20392159302E+01  0.20397959088E+01  0.51109989000E-03 0. -1.
</event>
<event>
 6   3  0.2312675E+03  0.9118800E+02  0.7818608E-02  0.1180000E+00
       11   -1    0    0    0    0  0.00000000000E+00  0.00000000000E+00  0.54999999763E+01  0.55000000000E+01  0.51109989000E-03 0.  1.
     -623   -1    0    0    0    0  0.00000000000E+00  0.00000000000E+00  0.93234578044E-11  0.17124000000E+03  0.17124000000E+03 0.  1.
       11    1    1    2    0    0  0.14598898992E-01  0.56728536914E-02  0.78393898626E+00  0.78409559655E+00  0.51109989000E-03 0.  1.
     -623    1    1    2    0    0 -0.74845974505E-01 -0.23949219842E-01  0.59506018906E-03  0.17124001803E+03  0.17124000000E+03 0.  1.
     -611    1    1    2    0    0  0.20062827712E-01  0.60641402242E-02  0.15928049910E+01  0.15929429656E+01  0.51109989000E-03 0.  1.
      611    1    1    2    0    0  0.40184247793E-01  0.12212225926E-01  0.31226609377E+01  0.31229434041E+01  0.51109989000E-03 0.  1.
</event>
<event>
 6   3  0.2312675E+03  0.9118800E+02  0.7818608E-02  0.1180000E+00
       11   -1    0    0    0    0  0.00000000000E+00  0.00000000000E+00  0.54999999763E+01  0.55000000000E+01  0.51109989000E-03 0. -1.
     -623   -1    0    0    0    0  0.00000000000E+00  0.00000000000E+00  0.93234578044E-11  0.17124000000E+03  0.17124000000E+03 0. -1.
       11    1    1    2    0    0 -0.60151490804E-01  0.43628981026E-02  0.10821777832E+01  0.10838571181E+01  0.51109989000E-03 0. -1.
     -623    1    1    2    0    0  0.25879688410E-02  0.18150839942E-01  0.21169250906E-02  0.17124000099E+03  0.17124000000E+03 0. -1.
     -611    1    1    2    0    0  0.94658159739E-02 -0.59709858492E-02  0.74648071364E+00  0.74656478044E+00  0.51109989000E-03 0.  1.
      611    1    1    2    0    0  0.48097705987E-01 -0.16542752194E-01  0.36692245542E+01  0.36695771068E+01  0.51109989000E-03 0. -1.
</event>
<event>
 6   3  0.2312675E+03  0.9118800E+02  0.7818608E-02  0.1180000E+00
       11   -1    0    0    0    0  0.00000000000E+00  0.00000000000E+00  0.54999999763E+01  0.55000000000E+01  0.51109989000E-03 0.  1.
     -623   -1    0    0    0    0  0.00000000000E+00  0.00000000000E+00  0.93234578044E-11  0.17124000000E+03  0.17124000000E+03 0. -1.
       11    1    1    2    0    0 -0.27475584126E-02  0.17015719932E-02  0.48587205188E-01  0.48697249979E-01  0.51109989000E-03 0.  1.
     -623    1    1    2    0    0  0.21126064083E-02 -0.95316623547E-02  0.81355308174E-03  0.17124000028E+03  0.17124000000E+03 0. -1.
     -611    1    1    2    0    0  0.33319452146E-01 -0.24655708276E-01  0.25204828569E+01  0.25208237112E+01  0.51109989000E-03 0. -1.
      611    1    1    2    0    0 -0.32684500142E-01  0.32485798638E-01  0.29301163610E+01  0.29304787585E+01  0.51109989000E-03 0.  1.
</event>
<event>
 6   3  0.2312675E+03  0.9118800E+02  0.7818608E-02  0.1180000E+00
       11   -1    0    0    0    0  0.00000000000E+00  0.00000000000E+00  0.54999999763E+01  0.55000000000E+01  0.51109989000E-03 0. -1.
     -623   -1    0    0    0    0  0.00000000000E+00  0.00000000000E+00  0.93234578044E-11  0.17124000000E+03  0.17124000000E+03 0.  1.
       11    1    1    2    0    0  0.12192749050E-01  0.25617099504E-01  0.10880504593E+01  0.10884203977E+01  0.51109989000E-03 0. -1.
     -623    1    1    2    0    0  0.47651375450E-01 -0.42962888399E-01  0.82226465910E-03  0.17124001202E+03  0.17124000000E+03 0.  1.
     -611    1    1    2    0    0 -0.39335917853E-01  0.12008385837E-01  0.29142643937E+01  0.29145546372E+01  0.51109989000E-03 0. -1.
      611    1    1    2    0    0 -0.20508206713E-01  0.53374030776E-02  0.14968628635E+01  0.14970129484E+01  0.51109989000E-03 0. -1.
</event>
<event>
 6   3  0.2312675E+03  0.9118800E+02  0.7818608E-02  0.1180000E+00
       11   -1    0    0    0    0  0.00000000000E+00  0.00000000000E+00  0.54999999763E+01  0.55000000000E+01  0.51109989000E-03 0.  1.
     -623   -1    0    0    0    0  0.00000000000E+00  0.00000000000E+00  0.93234578044E-11  0.17124000000E+03  0.17124000000E+03 0. -1.
       11    1    1    2    0    0 -0.47025201022E-01  0.15094093782E-01  0.40399149709E+00  0.40699949894E+00  0.51109989000E-03 0.  1.
     -623    1    1    2    0    0  0.41992347345E-01  0.15719019507E-01  0.36946849723E-02  0.17124000591E+03  0.17124000000E+03 0. -1.
     -611    1    1    2    0    0  0.37852611978E-01 -0.11664378391E-01  0.35145633088E+01  0.35147865356E+01  0.51109989000E-03 0. -1.
      611    1    1    2    0    0 -0.32819758300E-01 -0.19148734898E-01  0.15777504854E+01  0.15782080553E+01  0.51109989000E-03 0.  1.
</event>
<event>
 6   3  0.2312675E+03  0.9118800E+02  0.7818608E-02  0.1180000E+00
       11   -1    0    0    0    0  0.00000000000E+00  0.00000000000E+00  0.54999999763E+01  0.55000000000E+01  0.51109989000E-03 0. -1.
     -623   -1    0    0    0    0  0.00000000000E+00  0.00000000000E+00  0.93234578044E-11  0.17124000000E+03  0.17124000000E+03 0.  1.
       11    1    1    2    0    0  0.21840261539E-01  0.40746715614E-02  0.27224839956E+00  0.27315389848E+00  0.51109989000E-03 0. -1.
     -623    1    1    2    0    0 -0.15813430506E-01  0.16870141155E-01  0.16410745446E-02  0.17124000157E+03  0.17124000000E+03 0.  1.
     -611    1    1    2    0    0  0.35340285130E-01 -0.28667964617E-01  0.27253812634E+01  0.27257611928E+01  0.51109989000E-03 0.  1.
      611    1    1    2    0    0 -0.41367116164E-01  0.77231519003E-02  0.25007292388E+01  0.25010833397E+01  0.51109989000E-03 0. -1.
</event>
<event>
 6   3  0.2312675E+03  0.9118800E+02  0.7818608E-02  0.1180000E+00
       11   -1    0    0    0    0  0.00000000000E+00  0.00000000000E+00  0.54999999763E+01  0.55000000000E+01  0.51109989000E-03 0. -1.
     -623   -1    0    0    0    0  0.00000000000E+00  0.00000000000E+00  0.93234578044E-11  0.17124000000E+03  0.17124000000E+03 0. -1.
       11    1    1    2    0    0  0.53793639144E-01 -0.49748595613E-02  0.53134885777E+00  0.53408835853E+00  0.51109989000E-03 0. -1.
     -623    1    1    2    0    0  0.55733024175E-02  0.35953345122E-02  0.30955832159E-02  0.17124000016E+03  0.17124000000E+03 0. -1.
     -611    1    1    2    0    0 -0.40718312805E-01  0.22006907271E-02  0.33865285034E+01  0.33867740387E+01  0.51109989000E-03 0. -1.
      611    1    1    2    0    0 -0.18648628766E-01 -0.82116567769E-03  0.15790270327E+01  0.15791374471E+01  0.51109989000E-03 0.  1.
</event>
<event>
 6   3  0.2312675E+03  0.9118800E+02  0.7818608E-02  0.1180000E+00
       11   -1    0    0    0    0  0.00000000000E+00  0.00000000000E+00  0.54999999763E+01  0.55000000000E+01  0.51109989000E-03 0. -1.
     -623   -1    0    0    0    0  0.00000000000E+00  0.00000000000E+00  0.93234578044E-11  0.17124000000E+03  0.17124000000E+03 0. -1.
       11    1    1    2    0    0 -0.13154742615E-02 -0.33044766031E-02  0.32531967520E-02  0.48471177372E-02  0.51109989000E-03 0. -1.
     -623    1    1    2    0    0 -0.86326133220E-02  0.37214309647E-02  0.37376516276E-02  0.17124000030E+03  0.17124000000E+03 0. -1.
     -611    1    1    2    0    0 -0.67592329233E-01  0.20700511342E-01  0.30601079394E+01  0.30609243859E+01  0.51109989000E-03 0.  1.
      611    1    1    2    0    0  0.77540416817E-01 -0.21117465703E-01  0.24329011885E+01  0.24342281976E+01  0.51109989000E-03 0. -1.
</event>
<event>
 6   3  0.2312675E+03  0.9118800E+02  0.7818608E-02  0.1180000E+00
       11   -1    0    0    0    0  0.00000000000E+00  0.00000000000E+00  0.54999999763E+01  0.55000000000E+01  0.51109989000E-03 0. -1.
     -623   -1    0    0    0    0  0.00000000000E+00  0.00000000000E+00  0.93234578044E-11  0.17124000000E+03  0.17124000000E+03 0.  1.
       11    1    1    2    0    0 -0.35192645786E-01 -0.73198090186E-01  0.95665305530E+00  0.96009468916E+00  0.51109989000E-03 0. -1.
     -623    1    1    2    0    0 -0.50907545893E-01  0.41399933545E-01  0.43826644276E-02  0.17124001263E+03  0.17124000000E+03 0.  1.
     -611    1    1    2    0    0  0.72135871137E-01  0.26908453377E-01  0.38340502755E+01  0.38348232586E+01  0.51109989000E-03 0. -1.
      611    1    1    2    0    0  0.13964320591E-01  0.48897032810E-02  0.70491398363E+00  0.70506942706E+00  0.51109989000E-03 0.  1.
</event>
<event>
 6   3  0.2312675E+03  0.9118800E+02  0.7818608E-02  0.1180000E+00
       11   -1    0    0    0    0  0.00000000000E+00  0.00000000000E+00  0.54999999763E+01  0.55000000000E+01  0.51109989000E-03 0. -1.
     -623   -1    0    0    0    0  0.00000000000E+00  0.00000000000E+00  0.93234578044E-11  0.17124000000E+03  0.17124000000E+03 0.  1.
       11    1    1    2    0    0 -0.31848461271E-01 -0.72754120401E-01  0.69291183376E+00  0.69744860535E+00  0.51109989000E-03 0. -1.
     -623    1    1    2    0    0 -0.18064773358E-01 -0.16048531198E-02  0.53740364662E-02  0.17124000104E+03  0.17124000000E+03 0.  1.
     -611    1    1    2    0    0  0.32870038133E-01  0.49926030759E-01  0.32771097873E+01  0.32776549341E+01  0.51109989000E-03 0. -1.
      611    1    1    2    0    0  0.17043196490E-01  0.24432942753E-01  0.15246043183E+01  0.15248954153E+01  0.51109989000E-03 0.  1.
</event>
<event>
 6   3  0.2312675E+03  0.9118800E+02  0.7818608E-02  0.1180000E+00
       11   -1    0    0    0    0  0.00000000000E+00  0.00000000000E+00  0.54999999763E+01  0.55000000000E+01  0.51109989000E-03 0.  1.
     -623   -1    0    0    0    0  0.00000000000E+00  0.00000000000E+00  0.93234578044E-11  0.17124000000E+03  0.17124000000E+03 0. -1.
       11    1    1    2    0    0 -0.50752556771E-02  0.77084585648E-02  0.11860902168E+00  0.11896865050E+00  0.51109989000E-03 0.  1.
     -623    1    1    2    0    0  0.10445240219E-01 -0.12716341571E-02  0.14688012062E-02  0.17124000033E+03  0.17124000000E+03 0. -1.
     -611    1    1    2    0    0 -0.43498493353E-01  0.12391571208E-01  0.43450552187E+01  0.43452906444E+01  0.51109989000E-03 0.  1.
      611    1    1    2    0    0  0.38128508812E-01 -0.18828395616E-01  0.10348669347E+01  0.10357403755E+01  0.51109989000E-03 0. -1.
</event>
<event>
 6   3  0.2312675E+03  0.9118800E+02  0.7818608E-02  0.1180000E+00
       11   -1    0    0    0    0  0.00000000000E+00  0.00000000000E+00  0.54999999763E+01  0.55000000000E+01  0.51109989000E-03 0.  1.
     -623   -1    0    0    0    0  0.00000000000E+00  0.00000000000E+00  0.93234578044E-11  0.17124000000E+03  0.17124000000E+03 0.  1.
       11    1    1    2    0    0  0.59137550279E-01  0.99859757321E-01  0.41205041055E+00  0.42808296281E+00  0.51109989000E-03 0.  1.
     -623    1    1    2    0    0  0.96126858671E-02 -0.20696114100E-01  0.17210358657E-01  0.17124000239E+03  0.17124000000E+03 0.  1.
     -611    1    1    2    0    0 -0.28815678635E-01 -0.12377688152E-01  0.14321478213E+01  0.14324912543E+01  0.51109989000E-03 0.  1.
      611    1    1    2    0    0 -0.39934557512E-01 -0.66785955068E-01  0.36385913858E+01  0.36394233975E+01  0.51109989000E-03 0. -1.
</event>
<event>
 6   3  0.2312675E+03  0.9118800E+02  0.7818608E-02  0.1180000E+00
       11   -1    0    0    0    0  0.00000000000E+00  0.00000000000E+00  0.54999999763E+01  0.55000000000E+01  0.51109989000E-03 0.  1.
     -623   -1    0    0    0    0  0.00000000000E+00  0.00000000000E+00  0.93234578044E-11  0.17124000000E+03  0.17124000000E+03 0. -1.
       11    1    1    2    0    0  0.35152258861E-03 -0.22883232234E-02  0.23595202420E+00  0.23596393568E+00  0.51109989000E-03 0.  1.
     -623    1    1    2    0    0  0.48853195711E-03  0.29801121227E-03  0.51619964997E-03  0.17124000000E+03  0.17124000000E+03 0. -1.
     -611    1    1    2    0    0  0.35008861127E-01 -0.71146695960E-02  0.27523162524E+01  0.27525481383E+01  0.51109989000E-03 0.  1.
      611    1    1    2    0    0 -0.35848915673E-01  0.91049816072E-02  0.25112155000E+01  0.25114879243E+01  0.51109989000E-03 0. -1.
</event>
<event>
 6   3  0.2312675E+03  0.9118800E+02  0.7818608E-02  0.1180000E+00
       11   -1    0    0    0    0  0.00000000000E+00  0.00000000000E+00  0.54999999763E+01  0.55000000000E+01  0.51109989000E-03 0.  1.
     -623   -1    0    0    0    0  0.00000000000E+00  0.00000000000E+00  0.93234578044E-11  0.17124000000E+03  0.17124000000E+03 0.  1.
       11    1    1    2    0    0 -0.16872238626E-02 -0.23697185810E-02  0.42314183247E+00  0.42315214037E+00  0.51109989000E-03 0.  1.
     -623    1    1    2    0    0  0.53350822392E-01 -0.75086454829E-01  0.88903708321E-03  0.17124002478E+03  0.17124000000E+03 0.  1.
     -611    1    1    2    0    0 -0.29045696635E-01  0.44118885129E-01  0.28915763182E+01  0.28920587812E+01  0.51109989000E-03 0.  1.
      611    1    1    2    0    0 -0.22617901992E-01  0.33337288427E-01  0.21843927981E+01  0.21847643126E+01  0.51109989000E-03 0.  1.
</event>
<event>
 6   3  0.2312675E+03  0.9118800E+02  0.7818608E-02  0.1180000E+00
       11   -1    0    0    0    0  0.00000000000E+00  0.00000000000E+00  0.54999999763E+01  0.55000000000E+01  0.51109989000E-03 0.  1.
     -623   -1    0    0    0    0  0.00000000000E+00  0.00000000000E+00  0.93234578044E-11  0.17124000000E+03  0.17124000000E+03 0.  1.
       11    1    1    2    0    0  0.42637925980E-03  0.43380690291E-02  0.55359736366E-02  0.70646209649E-02  0.51109989000E-03 0.  1.
     -623    1    1    2    0    0  0.61973106250E-02  0.32537121517E-02  0.29665308897E-02  0.17124000017E+03  0.17124000000E+03 0.  1.
     -611    1    1    2    0    0 -0.52799188859E-01  0.23836991031E-01  0.39521590537E+01  0.39525836365E+01  0.51109989000E-03 0. -1.
      611    1    1    2    0    0  0.46175498974E-01 -0.31428772212E-01  0.15393384181E+01  0.15403515738E+01  0.51109989000E-03 0.  1.
</event>
<event>
 6   3  0.2312675E+03  0.9118800E+02  0.7818608E-02  0.1180000E+00
       11   -1    0    0    0    0  0.00000000000E+00  0.00000000000E+00  0.54999999763E+01  0.55000000000E+01  0.51109989000E-03 0. -1.
     -623   -1    0    0    0    0  0.00000000000E+00  0.00000000000E+00  0.93234578044E-11  0.17124000000E+03  0.17124000000E+03 0. -1.
       11    1    1    2    0    0  0.39064998554E-01  0.33368766212E-01  0.35939214995E+00  0.36304617797E+00  0.51109989000E-03 0. -1.
     -623    1    1    2    0    0  0.13375513505E-01  0.27319605294E-03  0.40326458573E-02  0.17124000057E+03  0.17124000000E+03 0. -1.
     -611    1    1    2    0    0 -0.40202101271E-01 -0.26241305688E-01  0.39493686506E+01  0.39496604683E+01  0.51109989000E-03 0. -1.
      611    1    1    2    0    0 -0.12238410692E-01 -0.74006565155E-02  0.11872065204E+01  0.11872927742E+01  0.51109989000E-03 0. -1.
</event>
<event>
 6   3  0.2312675E+03  0.9118800E+02  0.7818608E-02  0.1180000E+00
       11   -1    0    0    0    0  0.00000000000E+00  0.00000000000E+00  0.54999999763E+01  0.55000000000E+01  0.51109989000E-03 0.  1.
     -623   -1    0    0    0    0  0.00000000000E+00  0.00000000000E+00  0.93234578044E-11  0.17124000000E+03  0.17124000000E+03 0. -1.
       11    1    1    2    0    0 -0.29151047640E-02 -0.26645291624E-02  0.20966895294E+00  0.20970676813E+00  0.51109989000E-03 0.  1.
     -623    1    1    2    0    0  0.17008926299E-02 -0.34544107443E-02  0.49972197831E-03  0.17124000004E+03  0.17124000000E+03 0. -1.
     -611    1    1    2    0    0  0.32844268706E-01 -0.10030367309E-01  0.25085591304E+01  0.25087942375E+01  0.51109989000E-03 0. -1.
      611    1    1    2    0    0 -0.31630056572E-01  0.16149307215E-01  0.27812721710E+01  0.27814989504E+01  0.51109989000E-03 0.  1.
</event>
<event>
 6   3  0.2312675E+03  0.9118800E+02  0.7818608E-02  0.1180000E+00
       11   -1    0    0    0    0  0.00000000000E+00  0.00000000000E+00  0.54999999763E+01  0.55000000000E+01  0.51109989000E-03 0. -1.
     -623   -1    0    0    0    0  0.00000000000E+00  0.00000000000E+00  0.93234578044E-11  0.17124000000E+03  0.17124000000E+03 0.  1.
       11    1    1    2    0    0  0.51007195125E-01  0.71693338214E-02  0.10047916270E+01  0.10061111311E+01  0.51109989000E-03 0. -1.
     -623    1    1    2    0    0  0.21793044428E-02  0.23995038241E-02  0.16446107264E-02  0.17124000004E+03  0.17124000000E+03 0.  1.
     -611    1    1    2    0    0 -0.35650330012E-01 -0.65326444477E-02  0.29989766709E+01  0.29991957181E+01  0.51109989000E-03 0. -1.
      611    1    1    2    0    0 -0.17536169537E-01 -0.30361931944E-02  0.14945870660E+01  0.14946931106E+01  0.51109989000E-03 0.  1.
</event>
<event>
 6   3  0.2312675E+03  0.9118800E+02  0.7818608E-02  0.1180000E+00
       11   -1    0    0    0    0  0.00000000000E+00  0.00000000000E+00  0.54999999763E+01  0.55000000000E+01  0.51109989000E-03 0.  1.
     -623   -1    0    0    0    0  0.00000000000E+00  0.00000000000E+00  0.93234578044E-11  0.17124000000E+03  0.17124000000E+03 0.  1.
       11    1    1    2    0    0  0.51685857846E-01  0.15595443909E+00  0.90031935035E+00  0.91518763585E+00  0.51109989000E-03 0.  1.
     -623    1    1    2    0    0  0.22107786323E-01 -0.10225892550E-01  0.18434899664E-01  0.17124000272E+03  0.17124000000E+03 0.  1.
     -611    1    1    2    0    0 -0.25639603495E-01 -0.21016242278E-01  0.18470665675E+01  0.18473641325E+01  0.51109989000E-03 0. -1.
      611    1    1    2    0    0 -0.48154040674E-01 -0.12471230426E+00  0.27341791587E+01  0.27374455070E+01  0.51109989000E-03 0.  1.
</event>
<event>
 6   3  0.2312675E+03  0.9118800E+02  0.7818608E-02  0.1180000E+00
       11   -1    0    0    0    0  0.00000000000E+00  0.00000000000E+00  0.54999999763E+01  0.55000000000E+01  0.51109989000E-03 0.  1.
     -623   -1    0    0    0    0  0.00000000000E+00  0.00000000000E+00  0.93234578044E-11  0.17124000000E+03  0.17124000000E+03 0.  1.
       11    1    1    2    0    0  0.75352802471E-02 -0.92991016152E-02  0.10824422672E-01  0.16145683279E-01  0.51109989000E-03 0.  1.
     -623    1    1    2    0    0 -0.27003116798E-02 -0.46496919835E-06  0.65984453888E-02  0.17124000015E+03  0.17124000000E+03 0.  1.
     -611    1    1    2    0    0 -0.52205697236E-01 -0.25654470816E-01  0.23202220136E+01  0.23209511069E+01  0.51109989000E-03 0. -1.
      611    1    1    2    0    0  0.47370728668E-01  0.34954037400E-01  0.31623550946E+01  0.31629030614E+01  0.51109989000E-03 0.  1.
</event>
<event>
 6   3  0.2312675E+03  0.9118800E+02  0.7818608E-02  0.1180000E+00
       11   -1    0    0    0    0  0.00000000000E+00  0.00000000000E+00  0.54999999763E+01  0.55000000000E+01  0.51109989000E-03 0. -1.
     -623   -1    0    0    0    0  0.00000000000E+00  0.00000000000E+00  0.93234578044E-11  0.17124000000E+03  0.17124000000E+03 0.  1.
       11    1    1    2    0    0  0.41215977971E-02 -0.11427552520E-02  0.16264543725E-02  0.46043495622E-02  0.51109989000E-03 0. -1.
     -623    1    1    2    0    0 -0.10617404157E-01  0.86037627796E-02  0.40069522729E-02  0.17124000059E+03  0.17124000000E+03 0.  1.
     -611    1    1    2    0    0 -0.41230123390E-01 -0.31771865622E-01  0.23943037105E+01  0.23948694941E+01  0.51109989000E-03 0. -1.
      611    1    1    2    0    0  0.47725929749E-01  0.24310858094E-01  0.31000628592E+01  0.31005255642E+01  0.51109989000E-03 0.  1.
</event>
<event>
 6   3  0.2312675E+03  0.9118800E+02  0.7818608E-02  0.1180000E+00
       11   -1    0    0    0    0  0.00000000000E+00  0.00000000000E+00  0.54999999763E+01  0.55000000000E+01  0.51109989000E-03 0. -1.
     -623   -1    0    0    0    0  0.00000000000E+00  0.00000000000E+00  0.93234578044E-11  0.17124000000E+03  0.17124000000E+03 0.  1.
       11    1    1    2    0    0  0.43120262495E-01  0.27389389811E-01  0.30626632694E+00  0.31049776159E+00  0.51109989000E-03 0. -1.
     -623    1    1    2    0    0  0.15109963100E-01  0.13908408713E-01  0.47240163492E-02  0.17124000130E+03  0.17124000000E+03 0.  1.
     -611    1    1    2    0    0 -0.23670262148E-01 -0.17480340668E-01  0.21163774698E+01  0.21165820796E+01  0.51109989000E-03 0. -1.
      611    1    1    2    0    0 -0.34559963433E-01 -0.23817457847E-01  0.30726321619E+01  0.30729188609E+01  0.51109989000E-03 0. -1.
</event>
<event>
 6   3  0.2312675E+03  0.9118800E+02  0.7818608E-02  0.1180000E+00
       11   -1    0    0    0    0  0.00000000000E+00  0.00000000000E+00  0.54999999763E+01  0.55000000000E+01  0.51109989000E-03 0.  1.
     -623   -1    0    0    0    0  0.00000000000E+00  0.00000000000E+00  0.93234578044E-11  0.17124000000E+03  0.17124000000E+03 0. -1.
       11    1    1    2    0    0 -0.12941448189E-01 -0.43528824922E-02  0.91003885599E+00  0.91014142270E+00  0.51109989000E-03 0.  1.
     -623    1    1    2    0    0 -0.24107629967E-01 -0.90788652252E-03  0.60076072829E-03  0.17124000170E+03  0.17124000000E+03 0. -1.
     -611    1    1    2    0    0  0.48005217309E-01  0.16415225532E-01  0.38247336705E+01  0.38250701787E+01  0.51109989000E-03 0.  1.
      611    1    1    2    0    0 -0.10956139154E-01 -0.11154456518E-01  0.76462668894E+00  0.76478669807E+00  0.51109989000E-03 0. -1.
</event>
<event>
 6   3  0.2312675E+03  0.9118800E+02  0.7818608E-02  0.1180000E+00
       11   -1    0    0    0    0  0.00000000000E+00  0.00000000000E+00  0.54999999763E+01  0.55000000000E+01  0.51109989000E-03 0.  1.
     -623   -1    0    0    0    0  0.00000000000E+00  0.00000000000E+00  0.93234578044E-11  0.17124000000E+03  0.17124000000E+03 0. -1.
       11    1    1    2    0    0 -0.47656570280E-01  0.17836133480E-01  0.68170805155E+00  0.68360471408E+00  0.51109989000E-03 0.  1.
     -623    1    1    2    0    0 -0.32969267129E-01 -0.25538439904E-01  0.26024069091E-02  0.17124000510E+03  0.17124000000E+03 0. -1.
     -611    1    1    2    0    0  0.71578293004E-01  0.11122500739E-01  0.42068775417E+01  0.42075011674E+01  0.51109989000E-03 0.  1.
      611    1    1    2    0    0  0.90475444054E-02 -0.34201943156E-02  0.60881197606E+00  0.60888902043E+00  0.51109989000E-03 0. -1.
</event>
<event>
 6   3  0.2312675E+03  0.9118800E+02  0.7818608E-02  0.1180000E+00
       11   -1    0    0    0    0  0.00000000000E+00  0.00000000000E+00  0.54999999763E+01  0.55000000000E+01  0.51109989000E-03 0.  1.
     -623   -1    0    0    0    0  0.00000000000E+00  0.00000000000E+00  0.93234578044E-11  0.17124000000E+03  0.17124000000E+03 0. -1.
       11    1    1    2    0    0  0.29405245385E-02  0.20569837528E-02  0.15590760217E+00  0.15594973390E+00  0.51109989000E-03 0.  1.
     -623    1    1    2    0    0  0.31150297519E-03 -0.79950221556E-03  0.53253680747E-03  0.17124000000E+03  0.17124000000E+03 0. -1.
     -611    1    1    2    0    0  0.33120503924E-01 -0.99210453885E-02  0.28577926259E+01  0.28580018105E+01  0.51109989000E-03 0. -1.
      611    1    1    2    0    0 -0.36372531438E-01  0.86635638512E-02  0.24857672113E+01  0.24860484525E+01  0.51109989000E-03 0.  1.
</event>
<event>
 6   3  0.2312675E+03  0.9118800E+02  0.7818608E-02  0.1180000E+00
       11   -1    0    0    0    0  0.00000000000E+00  0.00000000000E+00  0.54999999763E+01  0.55000000000E+01  0.51109989000E-03 0.  1.
     -623   -1    0    0    0    0  0.00000000000E+00  0.00000000000E+00  0.93234578044E-11  0.17124000000E+03  0.17124000000E+03 0. -1.
       11    1    1    2    0    0 -0.67087124186E-01  0.26884326675E-01  0.59972202197E+00  0.60406143240E+00  0.51109989000E-03 0.  1.
     -623    1    1    2    0    0  0.13638320399E-01 -0.30808758092E-03  0.54558661147E-02  0.17124000063E+03  0.17124000000E+03 0. -1.
     -611    1    1    2    0    0  0.67842756092E-01 -0.42388030212E-01  0.42714027192E+01  0.42721517805E+01  0.51109989000E-03 0.  1.
      611    1    1    2    0    0 -0.14393952305E-01  0.15811791118E-01  0.62341936898E+00  0.62378615682E+00  0.51109989000E-03 0. -1.
</event>
<event>
 6   3  0.2312675E+03  0.9118800E+02  0.7818608E-02  0.1180000E+00
       11   -1    0    0    0    0  0.00000000000E+00  0.00000000000E+00  0.54999999763E+01  0.55000000000E+01  0.51109989000E-03 0.  1.
     -623   -1    0    0    0    0  0.00000000000E+00  0.00000000000E+00  0.93234578044E-11  0.17124000000E+03  0.17124000000E+03 0. -1.
       11    1    1    2    0    0  0.37340012410E-02 -0.12048413621E-02  0.66797208706E+00  0.66798380573E+00  0.51109989000E-03 0.  1.
     -623    1    1    2    0    0 -0.64710669151E-01 -0.29076847445E-01  0.50626256599E-03  0.17124001470E+03  0.17124000000E+03 0. -1.
     -611    1    1    2    0    0  0.25036825278E-01  0.11988361199E-01  0.19486675592E+01  0.19488653317E+01  0.51109989000E-03 0.  1.
      611    1    1    2    0    0  0.35939842723E-01  0.18293327652E-01  0.28828540748E+01  0.28831361737E+01  0.51109989000E-03 0.  1.
</event>
<event>
 6   3  0.2312675E+03  0.9118800E+02  0.7818608E-02  0.1180000E+00
       11   -1    0    0    0    0  0.00000000000E+00  0.00000000000E+00  0.54999999763E+01  0.55000000000E+01  0.51109989000E-03 0.  1.
     -623   -1    0    0    0    0  0.00000000000E+00  0.00000000000E+00  0.93234578044E-11  0.17124000000E+03  0.17124000000E+03 0. -1.
       11    1    1    2    0    0  0.61644793609E-01 -0.23688499162E-01  0.80885223772E+00  0.81154385541E+00  0.51109989000E-03 0.  1.
     -623    1    1    2    0    0 -0.10588517918E-01 -0.56021007880E-03  0.30514895829E-02  0.17124000036E+03  0.17124000000E+03 0. -1.
     -611    1    1    2    0    0 -0.97074105199E-02  0.57588557661E-03  0.56123098488E+00  0.56131545951E+00  0.51109989000E-03 0. -1.
      611    1    1    2    0    0 -0.41348865169E-01  0.23672823664E-01  0.41268652640E+01  0.41271403295E+01  0.51109989000E-03 0.  1.
</event>
<event>
 6   3  0.2312675E+03  0.9118800E+02  0.7818608E-02  0.1180000E+00
       11   -1    0    0    0    0  0.00000000000E+00  0.00000000000E+00  0.54999999763E+01  0.55000000000E+01  0.51109989000E-03 0. -1.
     -623   -1    0    0    0    0  0.00000000000E+00  0.00000000000E+00  0.93234578044E-11  0.17124000000E+03  0.17124000000E+03 0.  1.
       11    1    1    2    0    0  0.23121590407E-01 -0.13234770642E-01  0.37869015062E-01  0.46304326167E-01  0.51109989000E-03 0. -1.
     -623    1    1    2    0    0 -0.18167468221E-01  0.17238080619E-01  0.93364356101E-02  0.17124000209E+03  0.17124000000E+03 0.  1.
     -611    1    1    2    0    0 -0.44443270277E-01 -0.21606030697E-01  0.38457116361E+01  0.38460291567E+01  0.51109989000E-03 0. -1.
      611    1    1    2    0    0  0.39489148091E-01  0.17602720720E-01  0.16070828895E+01  0.16076644313E+01  0.51109989000E-03 0.  1.
</event>
<event>
 6   3  0.2312675E+03  0.9118800E+02  0.7818608E-02  0.1180000E+00
       11   -1    0    0    0    0  0.00000000000E+00  0.00000000000E+00  0.54999999763E+01  0.55000000000E+01  0.51109989000E-03 0. -1.
     -623   -1    0    0    0    0  0.00000000000E+00  0.00000000000E+00  0.93234578044E-11  0.17124000000E+03  0.17124000000E+03 0. -1.
       11    1    1    2    0    0  0.14538840018E+00  0.34432909087E-01  0.69741598193E+00  0.71324100079E+00  0.51109989000E-03 0. -1.
     -623    1    1    2    0    0 -0.43226440038E-01 -0.84322366491E-01  0.17202639845E-01  0.17124002708E+03  0.17124000000E+03 0. -1.
     -611    1    1    2    0    0 -0.32528819335E-01  0.15587052042E-01  0.15098154483E+01  0.15102463473E+01  0.51109989000E-03 0. -1.
      611    1    1    2    0    0 -0.69633140830E-01  0.34302405375E-01  0.32755659074E+01  0.32764855721E+01  0.51109989000E-03 0. -1.
</event>
<event>
 6   3  0.2312675E+03  0.9118800E+02  0.7818608E-02  0.1180000E+00
       11   -1    0    0    0    0  0.00000000000E+00  0.00000000000E+00  0.54999999763E+01  0.55000000000E+01  0.51109989000E-03 0. -1.
     -623   -1    0    0    0    0  0.00000000000E+00  0.00000000000E+00  0.93234578044E-11  0.17124000000E+03  0.17124000000E+03 0.  1.
       11    1    1    2    0    0  0.70378344248E-01  0.37375675078E-01  0.58974976194E+00  0.59510931379E+00  0.51109989000E-03 0. -1.
     -623    1    1    2    0    0 -0.16052125360E-01  0.13924936082E-02  0.58212493809E-02  0.17124000086E+03  0.17124000000E+03 0.  1.
     -611    1    1    2    0    0 -0.12129781246E-01 -0.55555183534E-02  0.83972743434E+00  0.83983356719E+00  0.51109989000E-03 0.  1.
      611    1    1    2    0    0 -0.42196437643E-01 -0.33212650333E-01  0.40647015307E+01  0.40650562622E+01  0.51109989000E-03 0. -1.
</event>
<event>
 6   3  0.2312675E+03  0.9118800E+02  0.7818608E-02  0.1180000E+00
       11   -1    0    0    0    0  0.00000000000E+00  0.00000000000E+00  0.54999999763E+01  0.55000000000E+01  0.51109989000E-03 0. -1.
     -623   -1    0    0    0    0  0.00000000000E+00  0.00000000000E+00  0.93234578044E-11  0.17124000000E+03  0.17124000000E+03 0. -1.
       11    1    1    2    0    0 -0.61981340332E-02  0.69674751956E-02  0.47807610163E+00  0.47816731669E+00  0.51109989000E-03 0. -1.
     -623    1    1    2    0    0  0.81806899577E-01 -0.34233360558E-01  0.75796484274E-03  0.17124002296E+03  0.17124000000E+03 0. -1.
     -611    1    1    2    0    0 -0.10549010354E-01  0.38131591958E-02  0.74266725408E+00  0.74275213450E+00  0.51109989000E-03 0. -1.
      611    1    1    2    0    0 -0.65059755263E-01  0.23452726196E-01  0.42784986606E+01  0.42790575893E+01  0.51109989000E-03 0. -1.
</event>
<event>
 6   3  0.2312675E+03  0.9118800E+02  0.7818608E-02  0.1180000E+00
       11   -1    0    0    0    0  0.00000000000E+00  0.00000000000E+00  0.54999999763E+01  0.55000000000E+01  0.51109989000E-03 0. -1.
     -623   -1    0    0    0    0  0.00000000000E+00  0.00000000000E+00  0.93234578044E-11  0.17124000000E+03  0.17124000000E+03 0. -1.
       11    1    1    2    0    0  0.12979909426E-02  0.54599091300E-02  0.14609594319E+00  0.14620458689E+00  0.51109989000E-03 0. -1.
     -623    1    1    2    0    0  0.24732510301E-02 -0.78193426912E-03  0.10537353727E-02  0.17124000002E+03  0.17124000000E+03 0. -1.
     -611    1    1    2    0    0  0.47928790233E-01 -0.38543909989E-04  0.22452734143E+01  0.22457849712E+01  0.51109989000E-03 0. -1.
      611    1    1    2    0    0 -0.51700032205E-01 -0.46394309509E-02  0.31075768834E+01  0.31080104191E+01  0.51109989000E-03 0.  1.
</event>
<event>
 6   3  0.2312675E+03  0.9118800E+02  0.7818608E-02  0.1180000E+00
       11   -1    0    0    0    0  0.00000000000E+00  0.00000000000E+00  0.54999999763E+01  0.55000000000E+01  0.51109989000E-03 0. -1.
     -623   -1    0    0    0    0  0.00000000000E+00  0.00000000000E+00  0.93234578044E-11  0.17124000000E+03  0.17124000000E+03 0.  1.
       11    1    1    2    0    0 -0.68065549262E-02  0.15244530126E-01  0.51082056646E-01  0.53743489122E-01  0.51109989000E-03 0. -1.
     -623    1    1    2    0    0 -0.97830922244E-03 -0.64804705819E-02  0.51811454082E-02  0.17124000020E+03  0.17124000000E+03 0.  1.
     -611    1    1    2    0    0 -0.40648308304E-01 -0.37840920260E-01  0.70546186479E+00  0.70764463123E+00  0.51109989000E-03 0.  1.
      611    1    1    2    0    0  0.48433172453E-01  0.29076860716E-01  0.47382749094E+01  0.47386116759E+01  0.51109989000E-03 0. -1.
</event>
<event>
 6   3  0.2312675E+03  0.9118800E+02  0.7818608E-02  0.1180000E+00
       11   -1    0    0    0    0  0.00000000000E+00  0.00000000000E+00  0.54999999763E+01  0.55000000000E+01  0.51109989000E-03 0. -1.
     -623   -1    0    0    0    0  0.00000000000E+00  0.00000000000E+00  0.93234578044E-11  0.17124000000E+03  0.17124000000E+03 0. -1.
       11    1    1    2    0    0  0.16068069970E-02  0.70148872063E-03 -0.46141706682E-03  0.18836252169E-02  0.51109989000E-03 0. -1.
     -623    1    1    2    0    0 -0.18423500260E-02  0.76882277221E-02  0.29573500533E-02  0.17124000021E+03  0.17124000000E+03 0. -1.
     -611    1    1    2    0    0 -0.32625973130E-01  0.20024950160E-01  0.28148841148E+01  0.28151444534E+01  0.51109989000E-03 0. -1.
      611    1    1    2    0    0  0.32861516159E-01 -0.28414666602E-01  0.26826199285E+01  0.26829717133E+01  0.51109989000E-03 0.  1.
</event>
<event>
 6   3  0.2312675E+03  0.9118800E+02  0.7818608E-02  0.1180000E+00
       11   -1    0    0    0    0  0.00000000000E+00  0.00000000000E+00  0.54999999763E+01  0.55000000000E+01  0.51109989000E-03 0. -1.
     -623   -1    0    0    0    0  0.00000000000E+00  0.00000000000E+00  0.93234578044E-11  0.17124000000E+03  0.17124000000E+03 0. -1.
       11    1    1    2    0    0 -0.40881463827E-01  0.31296808758E-01  0.75231537628E+00  0.75407524222E+00  0.51109989000E-03 0. -1.
     -623    1    1    2    0    0  0.65702489277E-02 -0.41852702180E-02  0.29431531921E-02  0.17124000020E+03  0.17124000000E+03 0. -1.
     -611    1    1    2    0    0 -0.32700548862E-01 -0.20196740601E-01  0.18497606113E+01  0.18501599429E+01  0.51109989000E-03 0.  1.
      611    1    1    2    0    0  0.67011763761E-01 -0.69147979394E-02  0.28949808355E+01  0.28957646124E+01  0.51109989000E-03 0. -1.
</event>
<event>
 6   3  0.2312675E+03  0.9118800E+02  0.7818608E-02  0.1180000E+00
       11   -1    0    0    0    0  0.00000000000E+00  0.00000000000E+00  0.54999999763E+01  0.55000000000E+01  0.51109989000E-03 0. -1.
     -623   -1    0    0    0    0  0.00000000000E+00  0.00000000000E+00  0.93234578044E-11  0.17124000000E+03  0.17124000000E+03 0. -1.
       11    1    1    2    0    0 -0.50165962162E-01 -0.22867339227E-01  0.63001145728E+00  0.63241935177E+00  0.51109989000E-03 0. -1.
     -623    1    1    2    0    0 -0.52177966800E-03  0.16057868069E-01  0.26777145352E-02  0.17124000077E+03  0.17124000000E+03 0. -1.
     -611    1    1    2    0    0  0.18692153485E-01  0.17285458312E-02  0.17935919488E+01  0.17936902532E+01  0.51109989000E-03 0.  1.
      611    1    1    2    0    0  0.31995588367E-01  0.50809253293E-02  0.30737188577E+01  0.30738896225E+01  0.51109989000E-03 0. -1.
</event>
<event>
 6   3  0.2312675E+03  0.9118800E+02  0.7818608E-02  0.1180000E+00
       11   -1    0    0    0    0  0.00000000000E+00  0.00000000000E+00  0.54999999763E+01  0.55000000000E+01  0.51109989000E-03 0.  1.
     -623   -1    0    0    0    0  0.00000000000E+00  0.00000000000E+00  0.93234578044E-11  0.17124000000E+03  0.17124000000E+03 0. -1.
       11    1    1    2    0    0  0.88029245037E-01  0.55609897496E-02  0.36238745576E+00  0.37296782958E+00  0.51109989000E-03 0.  1.
     -623    1    1    2    0    0  0.69677665526E-02  0.85521294527E-02  0.11480872390E-01  0.17124000074E+03  0.17124000000E+03 0. -1.
     -611    1    1    2    0    0 -0.47739121945E-01 -0.75396978423E-02  0.25906283067E+01  0.25910791489E+01  0.51109989000E-03 0.  1.
      611    1    1    2    0    0 -0.47257889545E-01 -0.65734213452E-02  0.25355033360E+01  0.25359522760E+01  0.51109989000E-03 0.  1.
</event>
<event>
 6   3  0.2312675E+03  0.9118800E+02  0.7818608E-02  0.1180000E+00
       11   -1    0    0    0    0  0.00000000000E+00  0.00000000000E+00  0.54999999763E+01  0.55000000000E+01  0.51109989000E-03 0.  1.
     -623   -1    0    0    0    0  0.00000000000E+00  0.00000000000E+00  0.93234578044E-11  0.17124000000E+03  0.17124000000E+03 0.  1.
       11    1    1    2    0    0 -0.19921902590E-01 -0.38684517416E-02  0.65355072394E+00  0.65386593206E+00  0.51109989000E-03 0.  1.
     -623    1    1    2    0    0  0.12121024418E+00 -0.15307779949E-02  0.14284946253E-02  0.17124004291E+03  0.17124000000E+03 0.  1.
     -611    1    1    2    0    0 -0.40968319353E-01  0.66445592776E-02  0.19451948066E+01  0.19456375948E+01  0.51109989000E-03 0. -1.
      611    1    1    2    0    0 -0.60320022272E-01 -0.12453295405E-02  0.28998259528E+01  0.29004535634E+01  0.51109989000E-03 0.  1.
</event>
<event>
 6   3  0.2312675E+03  0.9118800E+02  0.7818608E-02  0.1180000E+00
       11   -1    0    0    0    0  0.00000000000E+00  0.00000000000E+00  0.54999999763E+01  0.55000000000E+01  0.51109989000E-03 0.  1.
     -623   -1    0    0    0    0  0.00000000000E+00  0.00000000000E+00  0.93234578044E-11  0.17124000000E+03  0.17124000000E+03 0.  1.
       11    1    1    2    0    0 -0.51601662777E-01  0.52749600493E-02  0.97349299239E+00  0.97487405559E+00  0.51109989000E-03 0.  1.
     -623    1    1    2    0    0  0.30788232669E-02  0.24620550786E-02  0.16491554930E-02  0.17124000005E+03  0.17124000000E+03 0.  1.
     -611    1    1    2    0    0  0.70112764803E-02 -0.16414594100E-02  0.58045297865E+00  0.58049786738E+00  0.51109989000E-03 0. -1.
      611    1    1    2    0    0  0.41511563026E-01 -0.60955557173E-02  0.39444048493E+01  0.39446280233E+01  0.51109989000E-03 0.  1.
</event>
<event>
 6   3  0.2312675E+03  0.9118800E+02  0.7818608E-02  0.1180000E+00
       11   -1    0    0    0    0  0.00000000000E+00  0.00000000000E+00  0.54999999763E+01  0.55000000000E+01  0.51109989000E-03 0.  1.
     -623   -1    0    0    0    0  0.00000000000E+00  0.00000000000E+00  0.93234578044E-11  0.17124000000E+03  0.17124000000E+03 0.  1.
       11    1    1    2    0    0  0.90500254991E-02 -0.60484234582E-02  0.87597586534E+00  0.87604364290E+00  0.51109989000E-03 0.  1.
     -623    1    1    2    0    0  0.41008381098E-01 -0.18009573486E-01  0.44397915999E-03  0.17124000586E+03  0.17124000000E+03 0.  1.
     -611    1    1    2    0    0 -0.32898685668E-01  0.24301975746E-01  0.29806439342E+01  0.29809245937E+01  0.51109989000E-03 0.  1.
      611    1    1    2    0    0 -0.17159720930E-01 -0.24397880127E-03  0.16429361976E+01  0.16430259055E+01  0.51109989000E-03 0. -1.
</event>
<event>
 6   3  0.2312675E+03  0.9118800E+02  0.7818608E-02  0.1180000E+00
       11   -1    0    0    0    0  0.00000000000E+00  0.00000000000E+00  0.54999999763E+01  0.55000000000E+01  0.51109989000E-03 0.  1.
     -623   -1    0    0    0    0  0.00000000000E+00  0.00000000000E+00  0.93234578044E-11  0.17124000000E+03  0.17124000000E+03 0.  1.
       11    1    1    2    0    0 -0.62771515598E-01 -0.46387867991E-03  0.83250154894E+00  0.83486500020E+00  0.51109989000E-03 0.  1.
     -623    1    1    2    0    0  0.40167344465E-02 -0.13766614183E-01  0.27559281097E-02  0.17124000062E+03  0.17124000000E+03 0.  1.
     -611    1    1    2    0    0  0.32160750652E-01  0.77935877543E-02  0.25801376044E+01  0.25803498548E+01  0.51109989000E-03 0. -1.
      611    1    1    2    0    0  0.26594030451E-01  0.64369050967E-02  0.20846048909E+01  0.20847845185E+01  0.51109989000E-03 0.  1.
</event>
<event>
 6   3  0.2312675E+03  0.9118800E+02  0.7818608E-02  0.1180000E+00
       11   -1    0    0    0    0  0.00000000000E+00  0.00000000000E+00  0.54999999763E+01  0.55000000000E+01  0.51109989000E-03 0.  1.
     -623   -1    0    0    0    0  0.00000000000E+00  0.00000000000E+00  0.93234578044E-11  0.17124000000E+03  0.17124000000E+03 0.  1.
       11    1    1    2    0    0  0.27774697772E-03  0.23954044674E-02  0.82747006160E-02  0.86340604195E-02  0.51109989000E-03 0.  1.
     -623    1    1    2    0    0 -0.21217996177E-02  0.58013733352E-03  0.97982027681E-03  0.17124000002E+03  0.17124000000E+03 0.  1.
     -611    1    1    2    0    0 -0.39025177007E-01 -0.11671882099E-01  0.27758199264E+01  0.27761188235E+01  0.51109989000E-03 0.  1.
      611    1    1    2    0    0  0.40869229647E-01  0.86963402978E-02  0.27149255290E+01  0.27152470992E+01  0.51109989000E-03 0. -1.
</event>
<event>
 6   3  0.2312675E+03  0.9118800E+02  0.7818608E-02  0.1180000E+00
       11   -1    0    0    0    0  0.00000000000E+00  0.00000000000E+00  0.54999999763E+01  0.55000000000E+01  0.51109989000E-03 0.  1.
     -623   -1    0    0    0    0  0.00000000000E+00  0.00000000000E+00  0.93234578044E-11  0.17124000000E+03  0.17124000000E+03 0. -1.
       11    1    1    2    0    0 -0.17945805013E-02 -0.11401861150E-01  0.95201375927E-01  0.95899875696E-01  0.51109989000E-03 0.  1.
     -623    1    1    2    0    0  0.31884233658E-02  0.27261486497E-02  0.13864007434E-02  0.17124000006E+03  0.17124000000E+03 0. -1.
     -611    1    1    2    0    0 -0.42955392555E-01 -0.19930987308E-02  0.24776263837E+01  0.24779995755E+01  0.51109989000E-03 0.  1.
      611    1    1    2    0    0  0.41561549691E-01  0.10668811231E-01  0.29257858160E+01  0.29261004918E+01  0.51109989000E-03 0. -1.
</event>
<event>
 6   3  0.2312675E+03  0.9118800E+02  0.7818608E-02  0.1180000E+00
       11   -1    0    0    0    0  0.00000000000E+00  0.00000000000E+00  0.54999999763E+01  0.55000000000E+01  0.51109989000E-03 0. -1.
     -623   -1    0    0    0    0  0.00000000000E+00  0.00000000000E+00  0.93234578044E-11  0.17124000000E+03  0.17124000000E+03 0.  1.
       11    1    1    2    0    0  0.50999416474E-03  0.60950008879E-02  0.10398502467E-01  0.12074734222E-01  0.51109989000E-03 0. -1.
     -623    1    1    2    0    0  0.46768383550E-02 -0.96120751766E-02  0.22377813015E-02  0.17124000035E+03  0.17124000000E+03 0.  1.
     -611    1    1    2    0    0 -0.40931194225E-01  0.97993362712E-02  0.30815754720E+01  0.30818629173E+01  0.51109989000E-03 0.  1.
      611    1    1    2    0    0  0.35744361705E-01 -0.62822619825E-02  0.24057882204E+01  0.24060620002E+01  0.51109989000E-03 0. -1.
</event>
<event>
 6   3  0.2312675E+03  0.9118800E+02  0.7818608E-02  0.1180000E+00
       11   -1    0    0    0    0  0.00000000000E+00  0.00000000000E+00  0.54999999763E+01  0.55000000000E+01  0.51109989000E-03 0.  1.
     -623   -1    0    0    0    0  0.00000000000E+00  0.00000000000E+00  0.93234578044E-11  0.17124000000E+03  0.17124000000E+03 0. -1.
       11    1    1    2    0    0  0.41715906390E-01 -0.35851312761E-01  0.91864599913E+00  0.92029140298E+00  0.51109989000E-03 0.  1.
     -623    1    1    2    0    0  0.16464191354E-01  0.83080331923E-01  0.23036941003E-02  0.17124002096E+03  0.17124000000E+03 0. -1.
     -611    1    1    2    0    0 -0.25542876318E-01 -0.23138572539E-01  0.25395938823E+01  0.25398277856E+01  0.51109989000E-03 0.  1.
      611    1    1    2    0    0 -0.32637221426E-01 -0.24090446622E-01  0.20394564007E+01  0.20398598504E+01  0.51109989000E-03 0. -1.
</event>
<event>
 6   3  0.2312675E+03  0.9118800E+02  0.7818608E-02  0.1180000E+00
       11   -1    0    0    0    0  0.00000000000E+00  0.00000000000E+00  0.54999999763E+01  0.55000000000E+01  0.51109989000E-03 0. -1.
     -623   -1    0    0    0    0  0.00000000000E+00  0.00000000000E+00  0.93234578044E-11  0.17124000000E+03  0.17124000000E+03 0.  1.
       11    1    1    2    0    0 -0.86042189718E-01  0.43666574232E-01  0.76983381411E+00  0.77585719736E+00  0.51109989000E-03 0. -1.
     -623    1    1    2    0    0 -0.45422381048E-02  0.26237778932E-01  0.74118852922E-02  0.17124000223E+03  0.17124000000E+03 0.  1.
     -611    1    1    2    0    0  0.25036467484E-01 -0.20258366427E-01  0.13311119474E+01  0.13315015974E+01  0.51109989000E-03 0.  1.
      611    1    1    2    0    0  0.65547960318E-01 -0.49645986721E-01  0.33916423284E+01  0.33926389734E+01  0.51109989000E-03 0. -1.
</event>
<event>
 6   3  0.2312675E+03  0.9118800E+02  0.7818608E-02  0.1180000E+00
       11   -1    0    0    0    0  0.00000000000E+00  0.00000000000E+00  0.54999999763E+01  0.55000000000E+01  0.51109989000E-03 0. -1.
     -623   -1    0    0    0    0  0.00000000000E+00  0.00000000000E+00  0.93234578044E-11  0.17124000000E+03  0.17124000000E+03 0.  1.
       11    1    1    2    0    0 -0.32357308625E-02  0.89985849463E-02  0.83898641366E+00  0.83904106456E+00  0.51109989000E-03 0. -1.
     -623    1    1    2    0    0 -0.32801381557E-02 -0.36431471775E-02  0.57103927502E-03  0.17124000007E+03  0.17124000000E+03 0.  1.
     -611    1    1    2    0    0 -0.29216351832E-01  0.17360642137E-02  0.13584073798E+01  0.13587227384E+01  0.51109989000E-03 0.  1.
      611    1    1    2    0    0  0.35732220850E-01 -0.70915019825E-02  0.33020351435E+01  0.33022361259E+01  0.51109989000E-03 0. -1.
</event>
<event>
 6   3  0.2312675E+03  0.9118800E+02  0.7818608E-02  0.1180000E+00
       11   -1    0    0    0    0  0.00000000000E+00  0.00000000000E+00  0.54999999763E+01  0.55000000000E+01  0.51109989000E-03 0. -1.
     -623   -1    0    0    0    0  0.00000000000E+00  0.00000000000E+00  0.93234578044E-11  0.17124000000E+03  0.17124000000E+03 0.  1.
       11    1    1    2    0    0 -0.60005701538E-01 -0.32278184911E-02  0.33821170797E+00  0.34350913185E+00  0.51109989000E-03 0. -1.
     -623    1    1    2    0    0 -0.47123798249E-01  0.40108657459E-01  0.78128413755E-02  0.17124001136E+03  0.17124000000E+03 0.  1.
     -611    1    1    2    0    0  0.59311074870E-01  0.33588285801E-01  0.30835640337E+01  0.30843173293E+01  0.51109989000E-03 0. -1.
      611    1    1    2    0    0  0.47818424917E-01 -0.70469124769E-01  0.20704113932E+01  0.20721621794E+01  0.51109989000E-03 0.  1.
</event>
<event>
 6   3  0.2312675E+03  0.9118800E+02  0.7818608E-02  0.1180000E+00
       11   -1    0    0    0    0  0.00000000000E+00  0.00000000000E+00  0.54999999763E+01  0.55000000000E+01  0.51109989000E-03 0. -1.
     -623   -1    0    0    0    0  0.00000000000E+00  0.00000000000E+00  0.93234578044E-11  0.17124000000E+03  0.17124000000E+03 0.  1.
       11    1    1    2    0    0 -0.23177155438E-02  0.26179408765E-01  0.17768809195E+00  0.17962197108E+00  0.51109989000E-03 0. -1.
     -623    1    1    2    0    0 -0.13177234066E-01 -0.19185256564E-01  0.38831768505E-02  0.17124000163E+03  0.17124000000E+03 0.  1.
     -611    1    1    2    0    0 -0.56113559477E-01 -0.30709539479E-01  0.17930778524E+01  0.17942185634E+01  0.51109989000E-03 0.  1.
      611    1    1    2    0    0  0.71608509087E-01  0.23715387279E-01  0.35253508551E+01  0.35261578398E+01  0.51109989000E-03 0. -1.
</event>
<event>
 6   3  0.2312675E+03  0.9118800E+02  0.7818608E-02  0.1180000E+00
       11   -1    0    0    0    0  0.00000000000E+00  0.00000000000E+00  0.54999999763E+01  0.55000000000E+01  0.51109989000E-03 0.  1.
     -623   -1    0    0    0    0  0.00000000000E+00  0.00000000000E+00  0.93234578044E-11  0.17124000000E+03  0.17124000000E+03 0.  1.
       11    1    1    2    0    0 -0.34432085626E-01  0.81587618078E-02  0.15967865461E+00  0.16355325700E+00  0.51109989000E-03 0.  1.
     -623    1    1    2    0    0  0.35922847941E-02  0.32142450689E-02  0.44229922731E-02  0.17124000012E+03  0.17124000000E+03 0.  1.
     -611    1    1    2    0    0  0.44967392550E-01  0.69610761682E-02  0.44928926925E+01  0.44931231377E+01  0.51109989000E-03 0.  1.
      611    1    1    2    0    0 -0.14127591718E-01 -0.18334083045E-01  0.84300563695E+00  0.84332348040E+00  0.51109989000E-03 0. -1.
</event>
<event>
 6   3  0.2312675E+03  0.9118800E+02  0.7818608E-02  0.1180000E+00
       11   -1    0    0    0    0  0.00000000000E+00  0.00000000000E+00  0.54999999763E+01  0.55000000000E+01  0.51109989000E-03 0. -1.
     -623   -1    0    0    0    0  0.00000000000E+00  0.00000000000E+00  0.93234578044E-11  0.17124000000E+03  0.17124000000E+03 0.  1.
       11    1    1    2    0    0  0.12067547152E-01 -0.27680011248E-02  0.78724976403E+00  0.78734728025E+00  0.51109989000E-03 0. -1.
     -623    1    1    2    0    0 -0.67481591809E-01 -0.13770726816E-01  0.46644549152E-03  0.17124001385E+03  0.17124000000E+03 0.  1.
     -611    1    1    2    0    0  0.41271170279E-01  0.12536403291E-01  0.35484919721E+01  0.35487541487E+01  0.51109989000E-03 0. -1.
      611    1    1    2    0    0  0.14142874491E-01  0.40023246768E-02  0.11637918040E+01  0.11638847296E+01  0.51109989000E-03 0. -1.
</event>
<event>
 6   3  0.2312675E+03  0.9118800E+02  0.7818608E-02  0.1180000E+00
       11   -1    0    0    0    0  0.00000000000E+00  0.00000000000E+00  0.54999999763E+01  0.55000000000E+01  0.51109989000E-03 0. -1.
     -623   -1    0    0    0    0  0.00000000000E+00  0.00000000000E+00  0.93234578044E-11  0.17124000000E+03  0.17124000000E+03 0.  1.
       11    1    1    2    0    0  0.15512005253E-01 -0.24024097868E-01  0.17227974086E+00  0.17463776773E+00  0.51109989000E-03 0. -1.
     -623    1    1    2    0    0  0.62225925371E-01 -0.36646258430E-01  0.32908025464E-02  0.17124001526E+03  0.17124000000E+03 0.  1.
     -611    1    1    2    0    0 -0.30655265591E-01  0.24515797841E-01  0.22998642077E+01  0.23001992098E+01  0.51109989000E-03 0. -1.
      611    1    1    2    0    0 -0.47082665034E-01  0.36154558458E-01  0.30245652252E+01  0.30251477637E+01  0.51109989000E-03 0.  1.
</event>
<event>
 6   3  0.2312675E+03  0.9118800E+02  0.7818608E-02  0.1180000E+00
       11   -1    0    0    0    0  0.00000000000E+00  0.00000000000E+00  0.54999999763E+01  0.55000000000E+01  0.51109989000E-03 0. -1.
     -623   -1    0    0    0    0  0.00000000000E+00  0.00000000000E+00  0.93234578044E-11  0.17124000000E+03  0.17124000000E+03 0. -1.
       11    1    1    2    0    0  0.60079438059E-02  0.66160745674E-02  0.40197334293E-01  0.41181971041E-01  0.51109989000E-03 0. -1.
     -623    1    1    2    0    0  0.68161582667E-03 -0.34817551308E-02  0.27265661368E-02  0.17124000006E+03  0.17124000000E+03 0. -1.
     -611    1    1    2    0    0  0.38271349142E-01 -0.52660375543E-01  0.34843644251E+01  0.34849725278E+01  0.51109989000E-03 0. -1.
      611    1    1    2    0    0 -0.44960908775E-01  0.49526056107E-01  0.19727116507E+01  0.19738454427E+01  0.51109989000E-03 0.  1.
</event>
<event>
 6   3  0.2312675E+03  0.9118800E+02  0.7818608E-02  0.1180000E+00
       11   -1    0    0    0    0  0.00000000000E+00  0.00000000000E+00  0.54999999763E+01  0.55000000000E+01  0.51109989000E-03 0.  1.
     -623   -1    0    0    0    0  0.00000000000E+00  0.00000000000E+00  0.93234578044E-11  0.17124000000E+03  0.17124000000E+03 0. -1.
       11    1    1    2    0    0 -0.43370104107E-01  0.86157820633E-02  0.89436037727E+00  0.89545292633E+00  0.51109989000E-03 0.  1.
     -623    1    1    2    0    0 -0.97537164426E-02  0.31158289052E-02  0.14252329126E-02  0.17124000031E+03  0.17124000000E+03 0. -1.
     -611    1    1    2    0    0  0.32982924940E-01 -0.94265480290E-02  0.32409812035E+01  0.32411627783E+01  0.51109989000E-03 0. -1.
      611    1    1    2    0    0  0.20140895609E-01 -0.23050629395E-02  0.13632331626E+01  0.13633839832E+01  0.51109989000E-03 0.  1.
</event>
<event>
 6   3  0.2312675E+03  0.9118800E+02  0.7818608E-02  0.1180000E+00
       11   -1    0    0    0    0  0.00000000000E+00  0.00000000000E+00  0.54999999763E+01  0.55000000000E+01  0.51109989000E-03 0.  1.
     -623   -1    0    0    0    0  0.00000000000E+00  0.00000000000E+00  0.93234578044E-11  0.17124000000E+03  0.17124000000E+03 0.  1.
       11    1    1    2    0    0 -0.41680809569E-01  0.93375352601E-02  0.64566263387E+00  0.64707416688E+00  0.51109989000E-03 0.  1.
     -623    1    1    2    0    0 -0.20164734741E-01 -0.99139652041E-02  0.18093231774E-02  0.17124000148E+03  0.17124000000E+03 0.  1.
     -611    1    1    2    0    0  0.52595347415E-01 -0.22635560158E-03  0.40072750919E+01  0.40076202721E+01  0.51109989000E-03 0.  1.
      611    1    1    2    0    0  0.92501968920E-02  0.80278554546E-03  0.84525292711E+00  0.84530407701E+00  0.51109989000E-03 0. -1.
</event>
<event>
 6   3  0.2312675E+03  0.9118800E+02  0.7818608E-02  0.1180000E+00
       11   -1    0    0    0    0  0.00000000000E+00  0.00000000000E+00  0.54999999763E+01  0.55000000000E+01  0.51109989000E-03 0.  1.
     -623   -1    0    0    0    0  0.00000000000E+00  0.00000000000E+00  0.93234578044E-11  0.17124000000E+03  0.17124000000E+03 0.  1.
       11    1    1    2    0    0  0.66797345613E-01 -0.63655636452E-01  0.70365138705E+00  0.70967560276E+00  0.51109989000E-03 0.  1.
     -623    1    1    2    0    0  0.20595760493E-02 -0.46381178383E-02  0.70064220489E-02  0.17124000022E+03  0.17124000000E+03 0.  1.
     -611    1    1    2    0    0 -0.50565865246E-01  0.49980388541E-01  0.35280803575E+01  0.35287967094E+01  0.51109989000E-03 0.  1.
      611    1    1    2    0    0 -0.18291056432E-01  0.18313365764E-01  0.12612618107E+01  0.12615274704E+01  0.51109989000E-03 0.  1.
</event>
<event>
 6   3  0.2312675E+03  0.9118800E+02  0.7818608E-02  0.1180000E+00
       11   -1    0    0    0    0  0.00000000000E+00  0.00000000000E+00  0.54999999763E+01  0.55000000000E+01  0.51109989000E-03 0. -1.
     -623   -1    0    0    0    0  0.00000000000E+00  0.00000000000E+00  0.93234578044E-11  0.17124000000E+03  0.17124000000E+03 0.  1.
       11    1    1    2    0    0 -0.49118915246E-01 -0.16180686004E-01  0.82909757169E+00  0.83070905077E+00  0.51109989000E-03 0. -1.
     -623    1    1    2    0    0 -0.75301100710E-02 -0.34910640349E-02  0.19986934249E-02  0.17124000021E+03  0.17124000000E+03 0.  1.
     -611    1    1    2    0    0  0.10432666179E-01  0.22898616221E-02  0.76441111815E+00  0.76448590749E+00  0.51109989000E-03 0.  1.
      611    1    1    2    0    0  0.46216359129E-01  0.17381888413E-01  0.39044925923E+01  0.39048048282E+01  0.51109989000E-03 0. -1.
</event>
<event>
 6   3  0.2312675E+03  0.9118800E+02  0.7818608E-02  0.1180000E+00
       11   -1    0    0    0    0  0.00000000000E+00  0.00000000000E+00  0.54999999763E+01  0.55000000000E+01  0.51109989000E-03 0.  1.
     -623   -1    0    0    0    0  0.00000000000E+00  0.00000000000E+00  0.93234578044E-11  0.17124000000E+03  0.17124000000E+03 0.  1.
       11    1    1    2    0    0 -0.37643742848E-02 -0.72194751129E-02  0.57319184929E+00  0.57324990070E+00  0.51109989000E-03 0.  1.
     -623    1    1    2    0    0  0.73060556217E-01 -0.40726324393E-01  0.80044119954E-03  0.17124002043E+03  0.17124000000E+03 0.  1.
     -611    1    1    2    0    0 -0.17362157626E-01  0.11397919717E-01  0.12954780786E+01  0.12956446543E+01  0.51109989000E-03 0.  1.
      611    1    1    2    0    0 -0.51934024291E-01  0.36547879781E-01  0.36305296062E+01  0.36310850132E+01  0.51109989000E-03 0.  1.
</event>
<event>
 6   3  0.2312675E+03  0.9118800E+02  0.7818608E-02  0.1180000E+00
       11   -1    0    0    0    0  0.00000000000E+00  0.00000000000E+00  0.54999999763E+01  0.55000000000E+01  0.51109989000E-03 0.  1.
     -623   -1    0    0    0    0  0.00000000000E+00  0.00000000000E+00  0.93234578044E-11  0.17124000000E+03  0.17124000000E+03 0. -1.
       11    1    1    2    0    0 -0.19684060844E-01 -0.29060696746E-01  0.67707089544E-01  0.76265965832E-01  0.51109989000E-03 0.  1.
     -623    1    1    2    0    0  0.28029701565E-01  0.26008122796E-01  0.10627543898E-01  0.17124000460E+03  0.17124000000E+03 0. -1.
     -611    1    1    2    0    0  0.64991169642E-01  0.21694651535E-01  0.33090711985E+01  0.33097805015E+01  0.51109989000E-03 0.  1.
      611    1    1    2    0    0 -0.73336810364E-01 -0.18642077585E-01  0.21125941443E+01  0.21139489337E+01  0.51109989000E-03 0. -1.
</event>
<event>
 6   3  0.2312675E+03  0.9118800E+02  0.7818608E-02  0.1180000E+00
       11   -1    0    0    0    0  0.00000000000E+00  0.00000000000E+00  0.54999999763E+01  0.55000000000E+01  0.51109989000E-03 0.  1.
     -623   -1    0    0    0    0  0.00000000000E+00  0.00000000000E+00  0.93234578044E-11  0.17124000000E+03  0.17124000000E+03 0.  1.
       11    1    1    2    0    0 -0.40268966605E-01  0.27513310867E-03  0.76267949550E+00  0.76374206343E+00  0.51109989000E-03 0.  1.
     -623    1    1    2    0    0 -0.19016930926E-01 -0.68548267369E-02  0.14397549276E-02  0.17124000120E+03  0.17124000000E+03 0.  1.
     -611    1    1    2    0    0  0.13399596290E-01  0.12152740788E-02  0.10271984774E+01  0.10272867171E+01  0.51109989000E-03 0. -1.
      611    1    1    2    0    0  0.45886301258E-01  0.53644195514E-02  0.37086822499E+01  0.37089700216E+01  0.51109989000E-03 0.  1.
</event>
<event>
 6   3  0.2312675E+03  0.9118800E+02  0.7818608E-02  0.1180000E+00
       11   -1    0    0    0    0  0.00000000000E+00  0.00000000000E+00  0.54999999763E+01  0.55000000000E+01  0.51109989000E-03 0.  1.
     -623   -1    0    0    0    0  0.00000000000E+00  0.00000000000E+00  0.93234578044E-11  0.17124000000E+03  0.17124000000E+03 0. -1.
       11    1    1    2    0    0 -0.40884258609E-01  0.11579153881E-01  0.30059210309E+00  0.30358108154E+00  0.51109989000E-03 0.  1.
     -623    1    1    2    0    0 -0.54580833016E-01  0.86554801766E-02  0.39154706737E-02  0.17124000896E+03  0.17124000000E+03 0. -1.
     -611    1    1    2    0    0  0.40663415835E-01 -0.10116978110E-01  0.22697495919E+01  0.22701364140E+01  0.51109989000E-03 0. -1.
      611    1    1    2    0    0  0.54801675784E-01 -0.10117655947E-01  0.29257428103E+01  0.29262735422E+01  0.51109989000E-03 0.  1.
</event>
<event>
 6   3  0.2312675E+03  0.9118800E+02  0.7818608E-02  0.1180000E+00
       11   -1    0    0    0    0  0.00000000000E+00  0.00000000000E+00  0.54999999763E+01  0.55000000000E+01  0.51109989000E-03 0.  1.
     -623   -1    0    0    0    0  0.00000000000E+00  0.00000000000E+00  0.93234578044E-11  0.17124000000E+03  0.17124000000E+03 0.  1.
       11    1    1    2    0    0 -0.10365983014E+00 -0.54775486013E-01  0.50325474310E+00  0.51673137308E+00  0.51109989000E-03 0.  1.
     -623    1    1    2    0    0 -0.14639002157E-01 -0.95056030886E-02  0.15297908290E-01  0.17124000157E+03  0.17124000000E+03 0.  1.
     -611    1    1    2    0    0  0.64290767068E-01  0.33730462941E-01  0.27029442110E+01  0.27039191400E+01  0.51109989000E-03 0.  1.
      611    1    1    2    0    0  0.54008065168E-01  0.30550626128E-01  0.22785031114E+01  0.22793479115E+01  0.51109989000E-03 0. -1.
</event>
<event>
 6   3  0.2312675E+03  0.9118800E+02  0.7818608E-02  0.1180000E+00
       11   -1    0    0    0    0  0.00000000000E+00  0.00000000000E+00  0.54999999763E+01  0.55000000000E+01  0.51109989000E-03 0.  1.
     -623   -1    0    0    0    0  0.00000000000E+00  0.00000000000E+00  0.93234578044E-11  0.17124000000E+03  0.17124000000E+03 0.  1.
       11    1    1    2    0    0 -0.27751619538E-02  0.37637537661E-01  0.90544927629E+00  0.90623558688E+00  0.51109989000E-03 0.  1.
     -623    1    1    2    0    0  0.12951250376E-02 -0.74368170947E-02  0.22912772341E-02  0.17124000018E+03  0.17124000000E+03 0.  1.
     -611    1    1    2    0    0 -0.47600344726E-01 -0.34644179855E-01  0.33659807160E+01  0.33664955746E+01  0.51109989000E-03 0. -1.
      611    1    1    2    0    0  0.49080381642E-01  0.44434592886E-02  0.12262787068E+01  0.12272686569E+01  0.51109989000E-03 0.  1.
</event>
<event>
 6   3  0.2312675E+03  0.9118800E+02  0.7818608E-02  0.1180000E+00
       11   -1    0    0    0    0  0.00000000000E+00  0.00000000000E+00  0.54999999763E+01  0.55000000000E+01  0.51109989000E-03 0.  1.
     -623   -1    0    0    0    0  0.00000000000E+00  0.00000000000E+00  0.93234578044E-11  0.17124000000E+03  0.17124000000E+03 0.  1.
       11    1    1    2    0    0  0.13871687105E-02  0.27321576864E-02  0.68199285444E-01  0.68269998395E-01  0.51109989000E-03 0.  1.
     -623    1    1    2    0    0 -0.10870259705E-02  0.10677413801E-02  0.45046556047E-03  0.17124000001E+03  0.17124000000E+03 0.  1.
     -611    1    1    2    0    0 -0.31101229223E-01  0.64307487744E-02  0.26467252921E+01  0.26469158797E+01  0.51109989000E-03 0. -1.
      611    1    1    2    0    0  0.30801086483E-01 -0.10230647841E-01  0.27846249329E+01  0.27848141143E+01  0.51109989000E-03 0.  1.
</event>
<event>
 6   3  0.2312675E+03  0.9118800E+02  0.7818608E-02  0.1180000E+00
       11   -1    0    0    0    0  0.00000000000E+00  0.00000000000E+00  0.54999999763E+01  0.55000000000E+01  0.51109989000E-03 0.  1.
     -623   -1    0    0    0    0  0.00000000000E+00  0.00000000000E+00  0.93234578044E-11  0.17124000000E+03  0.17124000000E+03 0. -1.
       11    1    1    2    0    0  0.36719242465E-01 -0.51954451540E-01  0.49870830197E+00  0.50275023568E+00  0.51109989000E-03 0.  1.
     -623    1    1    2    0    0  0.11577750695E-01  0.36258851164E-01  0.45144233399E-02  0.17124000429E+03  0.17124000000E+03 0. -1.
     -611    1    1    2    0    0  0.78479578111E-02  0.86856561703E-02  0.75731021875E+00  0.75740085801E+00  0.51109989000E-03 0. -1.
      611    1    1    2    0    0 -0.56144950972E-01  0.70099442062E-02  0.42394670322E+01  0.42398446166E+01  0.51109989000E-03 0.  1.
</event>
<event>
 6   3  0.2312675E+03  0.9118800E+02  0.7818608E-02  0.1180000E+00
       11   -1    0    0    0    0  0.00000000000E+00  0.00000000000E+00  0.54999999763E+01  0.55000000000E+01  0.51109989000E-03 0. -1.
     -623   -1    0    0    0    0  0.00000000000E+00  0.00000000000E+00  0.93234578044E-11  0.17124000000E+03  0.17124000000E+03 0. -1.
       11    1    1    2    0    0  0.52407344142E-01  0.31696794733E-01  0.42862551061E+00  0.43297956775E+00  0.51109989000E-03 0. -1.
     -623    1    1    2    0    0  0.83901094712E-02  0.12652056330E-02  0.48264541194E-02  0.17124000028E+03  0.17124000000E+03 0. -1.
     -611    1    1    2    0    0 -0.15088005581E-01 -0.84072557037E-02  0.12581260618E+01  0.12582447212E+01  0.51109989000E-03 0. -1.
      611    1    1    2    0    0 -0.45709448048E-01 -0.24554744670E-01  0.38084219510E+01  0.38087754340E+01  0.51109989000E-03 0. -1.
</event>
<event>
 6   3  0.2312675E+03  0.9118800E+02  0.7818608E-02  0.1180000E+00
       11   -1    0    0    0    0  0.00000000000E+00  0.00000000000E+00  0.54999999763E+01  0.55000000000E+01  0.51109989000E-03 0. -1.
     -623   -1    0    0    0    0  0.00000000000E+00  0.00000000000E+00  0.93234578044E-11  0.17124000000E+03  0.17124000000E+03 0.  1.
       11    1    1    2    0    0  0.46066022953E-02 -0.21794747269E-02  0.63540834753E+00  0.63542898913E+00  0.51109989000E-03 0. -1.
     -623    1    1    2    0    0  0.52862591373E-01  0.13544772976E-01  0.38505588618E-03  0.17124000870E+03  0.17124000000E+03 0.  1.
     -611    1    1    2    0    0 -0.41334281538E-01 -0.67472659297E-02  0.33073685781E+01  0.33076337797E+01  0.51109989000E-03 0. -1.
      611    1    1    2    0    0 -0.16134912130E-01 -0.46180323192E-02  0.15568379948E+01  0.15569285356E+01  0.51109989000E-03 0. -1.
</event>
<event>
 6   3  0.2312675E+03  0.9118800E+02  0.7818608E-02  0.1180000E+00
       11   -1    0    0    0    0  0.00000000000E+00  0.00000000000E+00  0.54999999763E+01  0.55000000000E+01  0.51109989000E-03 0. -1.
     -623   -1    0    0    0    0  0.00000000000E+00  0.00000000000E+00  0.93234578044E-11  0.17124000000E+03  0.17124000000E+03 0.  1.
       11    1    1    2    0    0 -0.47389528107E-01  0.14959672136E-01  0.31727194405E+00  0.32114063410E+00  0.51109989000E-03 0. -1.
     -623    1    1    2    0    0 -0.71451092212E-02 -0.19080984685E-01  0.41595294521E-02  0.17124000126E+03  0.17124000000E+03 0.  1.
     -611    1    1    2    0    0  0.17323799104E-01  0.25026421269E-02  0.16954014669E+01  0.16954918969E+01  0.51109989000E-03 0. -1.
      611    1    1    2    0    0  0.37210838221E-01  0.16186704211E-02  0.34831670354E+01  0.34833662059E+01  0.51109989000E-03 0.  1.
</event>
<event>
 6   3  0.2312675E+03  0.9118800E+02  0.7818608E-02  0.1180000E+00
       11   -1    0    0    0    0  0.00000000000E+00  0.00000000000E+00  0.54999999763E+01  0.55000000000E+01  0.51109989000E-03 0.  1.
     -623   -1    0    0    0    0  0.00000000000E+00  0.00000000000E+00  0.93234578044E-11  0.17124000000E+03  0.17124000000E+03 0.  1.
       11    1    1    2    0    0  0.75431256718E-02 -0.89162694901E-03  0.33821674458E+00  0.33830241099E+00  0.51109989000E-03 0. -1.
     -623    1    1    2    0    0 -0.12165972849E+00  0.13308139185E-01  0.14061108148E-02  0.17124004374E+03  0.17124000000E+03 0.  1.
     -611    1    1    2    0    0  0.55878692758E-01 -0.57167351323E-02  0.25317821138E+01  0.25324051892E+01  0.51109989000E-03 0.  1.
      611    1    1    2    0    0  0.58237912649E-01 -0.66997773869E-02  0.26285951239E+01  0.26292487764E+01  0.51109989000E-03 0. -1.
</event>
<event>
 6   3  0.2312675E+03  0.9118800E+02  0.7818608E-02  0.1180000E+00
       11   -1    0    0    0    0  0.00000000000E+00  0.00000000000E+00  0.54999999763E+01  0.55000000000E+01  0.51109989000E-03 0.  1.
     -623   -1    0    0    0    0  0.00000000000E+00  0.00000000000E+00  0.93234578044E-11  0.17124000000E+03  0.17124000000E+03 0.  1.
       11    1    1    2    0    0 -0.43555175661E-01  0.89484446144E-02  0.42734892588E+00  0.42965625058E+00  0.51109989000E-03 0.  1.
     -623    1    1    2    0    0 -0.87726692330E-02  0.60612372318E-03  0.25867042119E-02  0.17124000025E+03  0.17124000000E+03 0.  1.
     -611    1    1    2    0    0  0.20632860253E-01 -0.39818891572E-02  0.20054661431E+01  0.20055762969E+01  0.51109989000E-03 0.  1.
      611    1    1    2    0    0  0.31694984705E-01 -0.55726791921E-02  0.30645982093E+01  0.30647672134E+01  0.51109989000E-03 0.  1.
</event>
<event>
 6   3  0.2312675E+03  0.9118800E+02  0.7818608E-02  0.1180000E+00
       11   -1    0    0    0    0  0.00000000000E+00  0.00000000000E+00  0.54999999763E+01  0.55000000000E+01  0.51109989000E-03 0. -1.
     -623   -1    0    0    0    0  0.00000000000E+00  0.00000000000E+00  0.93234578044E-11  0.17124000000E+03  0.17124000000E+03 0. -1.
       11    1    1    2    0    0 -0.48855766154E-01 -0.54272245206E-01  0.76484392811E+00  0.76832210568E+00  0.51109989000E-03 0. -1.
     -623    1    1    2    0    0 -0.11510668670E-02  0.49885976155E-02  0.39994321712E-02  0.17124000012E+03  0.17124000000E+03 0. -1.
     -611    1    1    2    0    0  0.40448556667E-01  0.40007968612E-01  0.38469310332E+01  0.38473517332E+01  0.51109989000E-03 0. -1.
      611    1    1    2    0    0  0.95582763408E-02  0.92756789660E-02  0.88422558161E+00  0.88432603675E+00  0.51109989000E-03 0.  1.
</event>
<event>
 6   3  0.2312675E+03  0.9118800E+02  0.7818608E-02  0.1180000E+00
       11   -1    0    0    0    0  0.00000000000E+00  0.00000000000E+00  0.54999999763E+01  0.55000000000E+01  0.51109989000E-03 0.  1.
     -623   -1    0    0    0    0  0.00000000000E+00  0.00000000000E+00  0.93234578044E-11  0.17124000000E+03  0.17124000000E+03 0.  1.
       11    1    1    2    0    0 -0.46000538472E-01  0.37090180709E-02  0.28535266679E+00  0.28906091404E+00  0.51109989000E-03 0.  1.
     -623    1    1    2    0    0 -0.50854674309E-01 -0.28031473572E-01  0.48157486774E-02  0.17124000991E+03  0.17124000000E+03 0.  1.
     -611    1    1    2    0    0  0.18852172298E-01  0.20716477826E-01  0.11060412466E+01  0.11063959858E+01  0.51109989000E-03 0. -1.
      611    1    1    2    0    0  0.78003040484E-01  0.36059776751E-02  0.41037903142E+01  0.41045331868E+01  0.51109989000E-03 0.  1.
</event>
<event>
 6   3  0.2312675E+03  0.9118800E+02  0.7818608E-02  0.1180000E+00
       11   -1    0    0    0    0  0.00000000000E+00  0.00000000000E+00  0.54999999763E+01  0.55000000000E+01  0.51109989000E-03 0. -1.
     -623   -1    0    0    0    0  0.00000000000E+00  0.00000000000E+00  0.93234578044E-11  0.17124000000E+03  0.17124000000E+03 0. -1.
       11    1    1    2    0    0  0.93365582582E-02  0.18242238787E-02  0.13474421060E-01  0.16502131949E-01  0.51109989000E-03 0. -1.
     -623    1    1    2    0    0 -0.13588283683E-02 -0.79091344297E-02  0.42071931353E-02  0.17124000024E+03  0.17124000000E+03 0. -1.
     -611    1    1    2    0    0  0.46687908536E-01  0.38152698140E-02  0.13413419793E+01  0.13421597832E+01  0.51109989000E-03 0.  1.
      611    1    1    2    0    0 -0.54665638426E-01  0.22696407370E-02  0.41409763828E+01  0.41413378451E+01  0.51109989000E-03 0. -1.
</event>
<event>
 6   3  0.2312675E+03  0.9118800E+02  0.7818608E-02  0.1180000E+00
       11   -1    0    0    0    0  0.00000000000E+00  0.00000000000E+00  0.54999999763E+01  0.55000000000E+01  0.51109989000E-03 0. -1.
     -623   -1    0    0    0    0  0.00000000000E+00  0.00000000000E+00  0.93234578044E-11  0.17124000000E+03  0.17124000000E+03 0.  1.
       11    1    1    2    0    0 -0.29682641352E-01 -0.15754848978E-01  0.47279759006E+00  0.47399060840E+00  0.51109989000E-03 0. -1.
     -623    1    1    2    0    0  0.11881213649E-01 -0.11446508076E-01  0.44291807058E-02  0.17124000085E+03  0.17124000000E+03 0.  1.
     -611    1    1    2    0    0  0.67509668484E-01  0.49569552737E-01  0.44153327458E+01  0.44161270604E+01  0.51109989000E-03 0. -1.
      611    1    1    2    0    0 -0.49708240782E-01 -0.22368195683E-01  0.60744045968E+00  0.60988147919E+00  0.51109989000E-03 0.  1.
</event>
<event>
 6   3  0.2312675E+03  0.9118800E+02  0.7818608E-02  0.1180000E+00
       11   -1    0    0    0    0  0.00000000000E+00  0.00000000000E+00  0.54999999763E+01  0.55000000000E+01  0.51109989000E-03 0.  1.
     -623   -1    0    0    0    0  0.00000000000E+00  0.00000000000E+00  0.93234578044E-11  0.17124000000E+03  0.17124000000E+03 0.  1.
       11    1    1    2    0    0 -0.20197653230E-01 -0.10920429208E-01  0.79851850006E+00  0.79884870729E+00  0.51109989000E-03 0.  1.
     -623    1    1    2    0    0  0.24274772873E-02  0.53237783284E-02  0.84003109101E-03  0.17124000010E+03  0.17124000000E+03 0.  1.
     -611    1    1    2    0    0 -0.22886812225E-01  0.14838248607E-01  0.20578655628E+01  0.20580463833E+01  0.51109989000E-03 0.  1.
      611    1    1    2    0    0  0.40656988167E-01 -0.92415977277E-02  0.26427758824E+01  0.26431048075E+01  0.51109989000E-03 0. -1.
</event>
<event>
 6   3  0.2312675E+03  0.9118800E+02  0.7818608E-02  0.1180000E+00
       11   -1    0    0    0    0  0.00000000000E+00  0.00000000000E+00  0.54999999763E+01  0.55000000000E+01  0.51109989000E-03 0. -1.
     -623   -1    0    0    0    0  0.00000000000E+00  0.00000000000E+00  0.93234578044E-11  0.17124000000E+03  0.17124000000E+03 0. -1.
       11    1    1    2    0    0 -0.53739451801E-02  0.41406909721E-01  0.28174163329E+00  0.28481927710E+00  0.51109989000E-03 0. -1.
     -623    1    1    2    0    0  0.84595959637E-02 -0.70652672877E-02  0.39384546167E-02  0.17124000040E+03  0.17124000000E+03 0. -1.
     -611    1    1    2    0    0  0.39319610181E-01 -0.16579729095E-01  0.34405035130E+01  0.34407681705E+01  0.51109989000E-03 0.  1.
      611    1    1    2    0    0 -0.42405260964E-01 -0.17761913339E-01  0.17738163754E+01  0.17744121524E+01  0.51109989000E-03 0. -1.
</event>
<event>
 6   3  0.2312675E+03  0.9118800E+02  0.7818608E-02  0.1180000E+00
       11   -1    0    0    0    0  0.00000000000E+00  0.00000000000E+00  0.54999999763E+01  0.55000000000E+01  0.51109989000E-03 0.  1.
     -623   -1    0    0    0    0  0.00000000000E+00  0.00000000000E+00  0.93234578044E-11  0.17124000000E+03  0.17124000000E+03 0. -1.
       11    1    1    2    0    0  0.37781173674E-02  0.28513767141E-02  0.81395799998E-01  0.81534912770E-01  0.51109989000E-03 0.  1.
     -623    1    1    2    0    0 -0.13368224664E-02 -0.17397034108E-02  0.51395953777E-03  0.17124000001E+03  0.17124000000E+03 0. -1.
     -611    1    1    2    0    0 -0.32858620207E-01  0.29053414079E-02  0.26909632014E+01  0.26911654246E+01  0.51109989000E-03 0.  1.
      611    1    1    2    0    0  0.30417325306E-01 -0.40170147113E-02  0.27271270151E+01  0.27272996476E+01  0.51109989000E-03 0. -1.
</event>
<event>
 6   3  0.2312675E+03  0.9118800E+02  0.7818608E-02  0.1180000E+00
       11   -1    0    0    0    0  0.00000000000E+00  0.00000000000E+00  0.54999999763E+01  0.55000000000E+01  0.51109989000E-03 0.  1.
     -623   -1    0    0    0    0  0.00000000000E+00  0.00000000000E+00  0.93234578044E-11  0.17124000000E+03  0.17124000000E+03 0. -1.
       11    1    1    2    0    0 -0.55583970933E-02  0.59861542908E-02  0.29725603227E+00  0.29736869332E+00  0.51109989000E-03 0.  1.
     -623    1    1    2    0    0 -0.12341520849E-02  0.59563923785E-02  0.64273575091E-03  0.17124000011E+03  0.17124000000E+03 0. -1.
     -611    1    1    2    0    0  0.37838744160E-01 -0.16917344755E-01  0.34363155451E+01  0.34365655463E+01  0.51109989000E-03 0.  1.
      611    1    1    2    0    0 -0.31046194981E-01  0.49747980859E-02  0.17657856632E+01  0.17660656512E+01  0.51109989000E-03 0. -1.
</event>
<event>
 6   3  0.3198881E+03  0.9118800E+02  0.7818608E-02  0.1180000E+00
       11   -1    0    0    0    0  0.00000000000E+00  0.00000000000E+00  0.54999999763E+01  0.55000000000E+01  0.51109989000E-03 0. -1.
     -623   -1    0    0    0    0  0.00000000000E+00  0.00000000000E+00  0.93234578044E-11  0.17124000000E+03  0.17124000000E+03 0.  1.
       11    1    1    2    0    0  0.18147107469E-02 -0.10799367424E-01  0.42034232185E-01  0.43440274059E-01  0.51109989000E-03 0. -1.
     -623    1    1    2    0    0 -0.34323430169E-02  0.10418848374E-01  0.26081730984E-02  0.17124000037E+03  0.17124000000E+03 0.  1.
     -611    1    1    2    0    0  0.45429814914E-01  0.88635130623E-02  0.44176973886E+01  0.44179398942E+01  0.51109989000E-03 0. -1.
      611    1    1    2    0    0 -0.43812182644E-01 -0.84829940121E-02  0.10376601823E+01  0.10386194605E+01  0.51109989000E-03 0.  1.
</event>
<event>
 6   3  0.2312675E+03  0.9118800E+02  0.7818608E-02  0.1180000E+00
       11   -1    0    0    0    0  0.00000000000E+00  0.00000000000E+00  0.54999999763E+01  0.55000000000E+01  0.51109989000E-03 0. -1.
     -623   -1    0    0    0    0  0.00000000000E+00  0.00000000000E+00  0.93234578044E-11  0.17124000000E+03  0.17124000000E+03 0. -1.
       11    1    1    2    0    0  0.83632935825E-03 -0.17751178910E-01  0.11614092291E+00  0.11749374025E+00  0.51109989000E-03 0. -1.
     -623    1    1    2    0    0 -0.58673466352E-02  0.16121177765E-01  0.21103808949E-02  0.17124000087E+03  0.17124000000E+03 0. -1.
     -611    1    1    2    0    0 -0.34356373609E-01 -0.23554667144E-01  0.30818716933E+01  0.30821532372E+01  0.51109989000E-03 0. -1.
      611    1    1    2    0    0  0.39387390886E-01  0.25184668290E-01  0.22998769791E+01  0.23003521501E+01  0.51109989000E-03 0.  1.
</event>
<event>
 6   3  0.2312675E+03  0.9118800E+02  0.7818608E-02  0.1180000E+00
       11   -1    0    0    0    0  0.00000000000E+00  0.00000000000E+00  0.54999999763E+01  0.55000000000E+01  0.51109989000E-03 0.  1.
     -623   -1    0    0    0    0  0.00000000000E+00  0.00000000000E+00  0.93234578044E-11  0.17124000000E+03  0.17124000000E+03 0.  1.
       11    1    1    2    0    0 -0.69288916223E-03 -0.14315038794E-02  0.14554686090E-02  0.22156061738E-02  0.51109989000E-03 0. -1.
     -623    1    1    2    0    0  0.41230896071E-03 -0.25334337450E-02  0.30687322639E-02  0.17124000005E+03  0.17124000000E+03 0.  1.
     -611    1    1    2    0    0 -0.42926989577E-01 -0.59293923487E-01  0.17578869828E+01  0.17594105266E+01  0.51109989000E-03 0. -1.
      611    1    1    2    0    0  0.43207569779E-01  0.63258861112E-01  0.37375887926E+01  0.37383738205E+01  0.51109989000E-03 0.  1.
</event>
<event>
 6   3  0.2312675E+03  0.9118800E+02  0.7818608E-02  0.1180000E+00
       11   -1    0    0    0    0  0.00000000000E+00  0.00000000000E+00  0.54999999763E+01  0.55000000000E+01  0.51109989000E-03 0. -1.
     -623   -1    0    0    0    0  0.00000000000E+00  0.00000000000E+00  0.93234578044E-11  0.17124000000E+03  0.17124000000E+03 0. -1.
       11    1    1    2    0    0 -0.78962001108E-01 -0.14460636347E-01  0.70167038743E+00  0.70624762048E+00  0.51109989000E-03 0. -1.
     -623    1    1    2    0    0  0.10693330326E-01 -0.18650242219E-01  0.51794873806E-02  0.17124000143E+03  0.17124000000E+03 0. -1.
     -611    1    1    2    0    0  0.14537676007E-01  0.68142149025E-02  0.10467044160E+01  0.10468276712E+01  0.51109989000E-03 0. -1.
      611    1    1    2    0    0  0.53730994703E-01  0.26296663629E-01  0.37464456805E+01  0.37469232755E+01  0.51109989000E-03 0. -1.
</event>
<event>
 6   3  0.2312675E+03  0.9118800E+02  0.7818608E-02  0.1180000E+00
       11   -1    0    0    0    0  0.00000000000E+00  0.00000000000E+00  0.54999999763E+01  0.55000000000E+01  0.51109989000E-03 0.  1.
     -623   -1    0    0    0    0  0.00000000000E+00  0.00000000000E+00  0.93234578044E-11  0.17124000000E+03  0.17124000000E+03 0. -1.
       11    1    1    2    0    0 -0.12049349041E-01  0.13685813156E-01  0.10617934758E+00  0.10773487537E+00  0.51109989000E-03 0.  1.
     -623    1    1    2    0    0  0.20778320361E-01 -0.43584981650E-02  0.35133959728E-02  0.17124000135E+03  0.17124000000E+03 0. -1.
     -611    1    1    2    0    0  0.38306956032E-01  0.54089868857E-01  0.24836460243E+01  0.24845303323E+01  0.51109989000E-03 0. -1.
      611    1    1    2    0    0 -0.47035927351E-01 -0.63417183848E-01  0.29066612084E+01  0.29077334402E+01  0.51109989000E-03 0.  1.
</event>
<event>
 6   3  0.2312675E+03  0.9118800E+02  0.7818608E-02  0.1180000E+00
       11   -1    0    0    0    0  0.00000000000E+00  0.00000000000E+00  0.54999999763E+01  0.55000000000E+01  0.51109989000E-03 0. -1.
     -623   -1    0    0    0    0  0.00000000000E+00  0.00000000000E+00  0.93234578044E-11  0.17124000000E+03  0.17124000000E+03 0. -1.
       11    1    1    2    0    0 -0.10396892068E+00 -0.31745172172E-01  0.30302051794E+00  0.32193009791E+00  0.51109989000E-03 0. -1.
     -623    1    1    2    0    0 -0.13057969335E-01  0.82386433673E-01  0.20502953544E-01  0.17124002154E+03  0.17124000000E+03 0. -1.
     -611    1    1    2    0    0  0.11173202741E-01 -0.43289803501E-02  0.52628921415E+00  0.52642585298E+00  0.51109989000E-03 0.  1.
      611    1    1    2    0    0  0.10585368727E+00 -0.46312281150E-01  0.46501872905E+01  0.46516225050E+01  0.51109989000E-03 0. -1.
</event>
<event>
 6   3  0.2312675E+03  0.9118800E+02  0.7818608E-02  0.1180000E+00
       11   -1    0    0    0    0  0.00000000000E+00  0.00000000000E+00  0.54999999763E+01  0.55000000000E+01  0.51109989000E-03 0. -1.
     -623   -1    0    0    0    0  0.00000000000E+00  0.00000000000E+00  0.93234578044E-11  0.17124000000E+03  0.17124000000E+03 0. -1.
       11    1    1    2    0    0  0.68403865080E-01 -0.15149212910E-01  0.97234401393E+00  0.97486498042E+00  0.51109989000E-03 0. -1.
     -623    1    1    2    0    0 -0.53141729510E-02 -0.19227866914E-03  0.29875766537E-02  0.17124000011E+03  0.17124000000E+03 0. -1.
     -611    1    1    2    0    0 -0.55266308156E-01  0.14020902255E-01  0.39492850880E+01  0.39496966869E+01  0.51109989000E-03 0. -1.
      611    1    1    2    0    0 -0.78233839740E-02  0.13205893249E-02  0.57538329779E+00  0.57543822421E+00  0.51109989000E-03 0.  1.
</event>
<event>
 6   3  0.2312675E+03  0.9118800E+02  0.7818608E-02  0.1180000E+00
       11   -1    0    0    0    0  0.00000000000E+00  0.00000000000E+00  0.54999999763E+01  0.55000000000E+01  0.51109989000E-03 0.  1.
     -623   -1    0    0    0    0  0.00000000000E+00  0.00000000000E+00  0.93234578044E-11  0.17124000000E+03  0.17124000000E+03 0. -1.
       11    1    1    2    0    0 -0.66440907672E-02 -0.74916454576E-03  0.81469756543E+00  0.81472516196E+00  0.51109989000E-03 0.  1.
     -623    1    1    2    0    0  0.53903262705E-01  0.30155121423E-02  0.27516246540E-03  0.17124000851E+03  0.17124000000E+03 0. -1.
     -611    1    1    2    0    0 -0.21470257744E-01 -0.13912985637E-02  0.21455145089E+01  0.21456224451E+01  0.51109989000E-03 0. -1.
      611    1    1    2    0    0 -0.25788913790E-01 -0.87504901046E-03  0.25395126983E+01  0.25396438411E+01  0.51109989000E-03 0. -1.
</event>
<event>
 6   3  0.2312675E+03  0.9118800E+02  0.7818608E-02  0.1180000E+00
       11   -1    0    0    0    0  0.00000000000E+00  0.00000000000E+00  0.54999999763E+01  0.55000000000E+01  0.51109989000E-03 0.  1.
     -623   -1    0    0    0    0  0.00000000000E+00  0.00000000000E+00  0.93234578044E-11  0.17124000000E+03  0.17124000000E+03 0.  1.
       11    1    1    2    0    0  0.61027148081E-02 -0.35656259683E-03  0.18320502765E+00  0.18330770209E+00  0.51109989000E-03 0.  1.
     -623    1    1    2    0    0 -0.72393864542E-02  0.46470514691E-02  0.23163376278E-02  0.17124000023E+03  0.17124000000E+03 0.  1.
     -611    1    1    2    0    0  0.61159931164E-01  0.38085162854E-01  0.34744958036E+01  0.34752427782E+01  0.51109989000E-03 0.  1.
      611    1    1    2    0    0 -0.60023259517E-01 -0.42375651726E-01  0.18399828074E+01  0.18414492880E+01  0.51109989000E-03 0. -1.
</event>
<event>
 6   3  0.2312675E+03  0.9118800E+02  0.7818608E-02  0.1180000E+00
       11   -1    0    0    0    0  0.00000000000E+00  0.00000000000E+00  0.54999999763E+01  0.55000000000E+01  0.51109989000E-03 0.  1.
     -623   -1    0    0    0    0  0.00000000000E+00  0.00000000000E+00  0.93234578044E-11  0.17124000000E+03  0.17124000000E+03 0.  1.
       11    1    1    2    0    0  0.38525550500E-02 -0.20779242419E-02  0.68458785408E-01  0.68600484490E-01  0.51109989000E-03 0.  1.
     -623    1    1    2    0    0 -0.12135479864E-01  0.34539029721E-02  0.95943190758E-03  0.17124000047E+03  0.17124000000E+03 0.  1.
     -611    1    1    2    0    0 -0.40953761181E-01  0.21707807952E-02  0.32486189868E+01  0.32488778841E+01  0.51109989000E-03 0.  1.
      611    1    1    2    0    0  0.49236685995E-01 -0.35467595255E-02  0.21819627723E+01  0.21825211641E+01  0.51109989000E-03 0. -1.
</event>
<event>
 6   3  0.2312675E+03  0.9118800E+02  0.7818608E-02  0.1180000E+00
       11   -1    0    0    0    0  0.00000000000E+00  0.00000000000E+00  0.54999999763E+01  0.55000000000E+01  0.51109989000E-03 0.  1.
     -623   -1    0    0    0    0  0.00000000000E+00  0.00000000000E+00  0.93234578044E-11  0.17124000000E+03  0.17124000000E+03 0.  1.
       11    1    1    2    0    0 -0.43579262562E-01 -0.99669661449E-02  0.76438623041E+00  0.76569253817E+00  0.51109989000E-03 0.  1.
     -623    1    1    2    0    0 -0.20834367696E-01  0.14691931881E-01  0.17674275380E-02  0.17124000191E+03  0.17124000000E+03 0.  1.
     -611    1    1    2    0    0  0.19776719189E-01  0.38134853065E-02  0.12405658210E+01  0.12407294140E+01  0.51109989000E-03 0. -1.
      611    1    1    2    0    0  0.44636911070E-01 -0.85384510429E-02  0.34932804974E+01  0.34935761411E+01  0.51109989000E-03 0.  1.
</event>
<event>
 6   3  0.2312675E+03  0.9118800E+02  0.7818608E-02  0.1180000E+00
       11   -1    0    0    0    0  0.00000000000E+00  0.00000000000E+00  0.54999999763E+01  0.55000000000E+01  0.51109989000E-03 0. -1.
     -623   -1    0    0    0    0  0.00000000000E+00  0.00000000000E+00  0.93234578044E-11  0.17124000000E+03  0.17124000000E+03 0. -1.
       11    1    1    2    0    0  0.83310716095E-02 -0.16360952820E-01  0.33592390011E+00  0.33642564620E+00  0.51109989000E-03 0. -1.
     -623    1    1    2    0    0 -0.76594468937E-01  0.32216970775E-02  0.98790362968E-03  0.17124001716E+03  0.17124000000E+03 0. -1.
     -611    1    1    2    0    0  0.90285035289E-02  0.14578638392E-02  0.61258698167E+00  0.61265545830E+00  0.51109989000E-03 0.  1.
      611    1    1    2    0    0  0.59234893812E-01  0.11681391905E-01  0.45505011919E+01  0.45509017333E+01  0.51109989000E-03 0. -1.
</event>
<event>
 6   3  0.2312675E+03  0.9118800E+02  0.7818608E-02  0.1180000E+00
       11   -1    0    0    0    0  0.00000000000E+00  0.00000000000E+00  0.54999999763E+01  0.55000000000E+01  0.51109989000E-03 0. -1.
     -623   -1    0    0    0    0  0.00000000000E+00  0.00000000000E+00  0.93234578044E-11  0.17124000000E+03  0.17124000000E+03 0.  1.
       11    1    1    2    0    0 -0.12008240287E+00  0.69890284844E-01  0.79183804966E+00  0.80393544113E+00  0.51109989000E-03 0. -1.
     -623    1    1    2    0    0  0.16414110471E-01 -0.30954112238E-01  0.13806047046E-01  0.17124000414E+03  0.17124000000E+03 0.  1.
     -611    1    1    2    0    0  0.39991739601E-01 -0.47540851277E-01  0.24149158599E+01  0.24157148721E+01  0.51109989000E-03 0.  1.
      611    1    1    2    0    0  0.63676552798E-01  0.86046786716E-02  0.22794400197E+01  0.22803455458E+01  0.51109989000E-03 0. -1.
</event>
<event>
 6   3  0.2312675E+03  0.9118800E+02  0.7818608E-02  0.1180000E+00
       11   -1    0    0    0    0  0.00000000000E+00  0.00000000000E+00  0.54999999763E+01  0.55000000000E+01  0.51109989000E-03 0. -1.
     -623   -1    0    0    0    0  0.00000000000E+00  0.00000000000E+00  0.93234578044E-11  0.17124000000E+03  0.17124000000E+03 0. -1.
       11    1    1    2    0    0 -0.61346939636E-01 -0.42694282232E-01  0.55579597272E+00  0.56079913806E+00  0.51109989000E-03 0. -1.
     -623    1    1    2    0    0  0.10733124237E-01 -0.36709135899E-02  0.57807711367E-02  0.17124000047E+03  0.17124000000E+03 0. -1.
     -611    1    1    2    0    0 -0.85469585045E-02 -0.42897228212E-02  0.63881788792E+00  0.63888966761E+00  0.51109989000E-03 0.  1.
      611    1    1    2    0    0  0.59160773903E-01  0.50654918643E-01  0.42996053445E+01  0.43003107210E+01  0.51109989000E-03 0. -1.
</event>
<event>
 6   3  0.2312675E+03  0.9118800E+02  0.7818608E-02  0.1180000E+00
       11   -1    0    0    0    0  0.00000000000E+00  0.00000000000E+00  0.54999999763E+01  0.55000000000E+01  0.51109989000E-03 0.  1.
     -623   -1    0    0    0    0  0.00000000000E+00  0.00000000000E+00  0.93234578044E-11  0.17124000000E+03  0.17124000000E+03 0. -1.
       11    1    1    2    0    0  0.14623050178E-02  0.33822478914E-01  0.53339453908E+00  0.53446804765E+00  0.51109989000E-03 0.  1.
     -623    1    1    2    0    0  0.18602736336E-02  0.18462142406E-02  0.41273375569E-02  0.17124000007E+03  0.17124000000E+03 0. -1.
     -611    1    1    2    0    0  0.50064796679E-01  0.48326569129E-01  0.26491720527E+01  0.26500858037E+01  0.51109989000E-03 0.  1.
      611    1    1    2    0    0 -0.53387375330E-01 -0.83995262284E-01  0.23133060470E+01  0.23154460788E+01  0.51109989000E-03 0. -1.
</event>
<event>
 6   3  0.2312675E+03  0.9118800E+02  0.7818608E-02  0.1180000E+00
       11   -1    0    0    0    0  0.00000000000E+00  0.00000000000E+00  0.54999999763E+01  0.55000000000E+01  0.51109989000E-03 0.  1.
     -623   -1    0    0    0    0  0.00000000000E+00  0.00000000000E+00  0.93234578044E-11  0.17124000000E+03  0.17124000000E+03 0. -1.
       11    1    1    2    0    0  0.50626053694E-02  0.33361887072E-03  0.36595402108E+00  0.36598954636E+00  0.51109989000E-03 0.  1.
     -623    1    1    2    0    0 -0.20956393166E-03  0.70707021451E-03  0.55501466849E-03  0.17124000000E+03  0.17124000000E+03 0. -1.
     -611    1    1    2    0    0 -0.37864042702E-01 -0.63699787124E-02  0.31991139659E+01  0.31993444158E+01  0.51109989000E-03 0.  1.
      611    1    1    2    0    0  0.33011001264E-01  0.53292896272E-02  0.19343769745E+01  0.19346660353E+01  0.51109989000E-03 0. -1.
</event>
<event>
 6   3  0.2312675E+03  0.9118800E+02  0.7818608E-02  0.1180000E+00
       11   -1    0    0    0    0  0.00000000000E+00  0.00000000000E+00  0.54999999763E+01  0.55000000000E+01  0.51109989000E-03 0.  1.
     -623   -1    0    0    0    0  0.00000000000E+00  0.00000000000E+00  0.93234578044E-11  0.17124000000E+03  0.17124000000E+03 0. -1.
       11    1    1    2    0    0 -0.76495847692E-03  0.26913819104E-02  0.95245605463E+00  0.95246030149E+00  0.51109989000E-03 0.  1.
     -623    1    1    2    0    0 -0.33307969484E-02  0.22652381653E-02  0.73251195677E-03  0.17124000005E+03  0.17124000000E+03 0. -1.
     -611    1    1    2    0    0 -0.22197801046E-01 -0.34706881718E-01  0.20704430436E+01  0.20708529566E+01  0.51109989000E-03 0. -1.
      611    1    1    2    0    0  0.26293556472E-01  0.29750261642E-01  0.24763683661E+01  0.24766866930E+01  0.51109989000E-03 0.  1.
</event>
<event>
 6   3  0.2312675E+03  0.9118800E+02  0.7818608E-02  0.1180000E+00
       11   -1    0    0    0    0  0.00000000000E+00  0.00000000000E+00  0.54999999763E+01  0.55000000000E+01  0.51109989000E-03 0. -1.
     -623   -1    0    0    0    0  0.00000000000E+00  0.00000000000E+00  0.93234578044E-11  0.17124000000E+03  0.17124000000E+03 0. -1.
       11    1    1    2    0    0 -0.28795910990E-02  0.20187098327E-02  0.47437218802E-01  0.47570139637E-01  0.51109989000E-03 0. -1.
     -623    1    1    2    0    0 -0.54954950752E-01  0.34760534729E-01  0.57672299230E-03  0.17124001235E+03  0.17124000000E+03 0. -1.
     -611    1    1    2    0    0  0.26120388494E-01 -0.17905278307E-01  0.25683576155E+01  0.25685528953E+01  0.51109989000E-03 0. -1.
      611    1    1    2    0    0  0.31714153390E-01 -0.18873966275E-01  0.28836284222E+01  0.28838646210E+01  0.51109989000E-03 0.  1.
</event>
<event>
 6   3  0.2312675E+03  0.9118800E+02  0.7818608E-02  0.1180000E+00
       11   -1    0    0    0    0  0.00000000000E+00  0.00000000000E+00  0.54999999763E+01  0.55000000000E+01  0.51109989000E-03 0. -1.
     -623   -1    0    0    0    0  0.00000000000E+00  0.00000000000E+00  0.93234578044E-11  0.17124000000E+03  0.17124000000E+03 0.  1.
       11    1    1    2    0    0  0.23631718322E-01 -0.14454827948E-01  0.53428353375E+00  0.53500145404E+00  0.51109989000E-03 0. -1.
     -623    1    1    2    0    0  0.35310302114E-01 -0.16361247632E-01  0.11688883126E-02  0.17124000443E+03  0.17124000000E+03 0.  1.
     -611    1    1    2    0    0 -0.47614912931E-01  0.24538144838E-01  0.39105426818E+01  0.39109095653E+01  0.51109989000E-03 0. -1.
      611    1    1    2    0    0 -0.11327107503E-01  0.62779307419E-02  0.10540048723E+01  0.10540845544E+01  0.51109989000E-03 0.  1.
</event>
<event>
 6   3  0.2312675E+03  0.9118800E+02  0.7818608E-02  0.1180000E+00
       11   -1    0    0    0    0  0.00000000000E+00  0.00000000000E+00  0.54999999763E+01  0.55000000000E+01  0.51109989000E-03 0. -1.
     -623   -1    0    0    0    0  0.00000000000E+00  0.00000000000E+00  0.93234578044E-11  0.17124000000E+03  0.17124000000E+03 0.  1.
       11    1    1    2    0    0 -0.14418425422E-01  0.48486021692E-02  0.31101176140E+00  0.31138397019E+00  0.51109989000E-03 0. -1.
     -623    1    1    2    0    0  0.98029480470E-02 -0.38747802882E-02  0.13529483239E-02  0.17124000033E+03  0.17124000000E+03 0.  1.
     -611    1    1    2    0    0 -0.43215184768E-01  0.19911815650E-01  0.20976968345E+01  0.20982364746E+01  0.51109989000E-03 0.  1.
      611    1    1    2    0    0  0.47830662143E-01 -0.20885637531E-01  0.30899384321E+01  0.30903792255E+01  0.51109989000E-03 0. -1.
</event>
<event>
 6   3  0.2312675E+03  0.9118800E+02  0.7818608E-02  0.1180000E+00
       11   -1    0    0    0    0  0.00000000000E+00  0.00000000000E+00  0.54999999763E+01  0.55000000000E+01  0.51109989000E-03 0. -1.
     -623   -1    0    0    0    0  0.00000000000E+00  0.00000000000E+00  0.93234578044E-11  0.17124000000E+03  0.17124000000E+03 0. -1.
       11    1    1    2    0    0 -0.65116399010E-02  0.32254427165E-02  0.13570326148E+00  0.13589864361E+00  0.51109989000E-03 0. -1.
     -623    1    1    2    0    0  0.22733219046E-02  0.21199439259E-02  0.10609064158E-02  0.17124000003E+03  0.17124000000E+03 0. -1.
     -611    1    1    2    0    0 -0.38282593883E-01 -0.88338886196E-02  0.11922206953E+01  0.11928679902E+01  0.51109989000E-03 0.  1.
      611    1    1    2    0    0  0.42520911879E-01  0.34885019771E-02  0.41710151132E+01  0.41712333348E+01  0.51109989000E-03 0. -1.
</event>
<event>
 6   3  0.2312675E+03  0.9118800E+02  0.7818608E-02  0.1180000E+00
       11   -1    0    0    0    0  0.00000000000E+00  0.00000000000E+00  0.54999999763E+01  0.55000000000E+01  0.51109989000E-03 0.  1.
     -623   -1    0    0    0    0  0.00000000000E+00  0.00000000000E+00  0.93234578044E-11  0.17124000000E+03  0.17124000000E+03 0. -1.
       11    1    1    2    0    0  0.18366389948E-02  0.69147390781E-03  0.95198779430E-02  0.97334823218E-02  0.51109989000E-03 0.  1.
     -623    1    1    2    0    0 -0.16003265722E-02 -0.86617203425E-03  0.82950312553E-03  0.17124000001E+03  0.17124000000E+03 0. -1.
     -611    1    1    2    0    0 -0.41134387568E-01  0.26247470181E-02  0.26679428513E+01  0.26682612777E+01  0.51109989000E-03 0. -1.
      611    1    1    2    0    0  0.40898075146E-01 -0.24500488916E-02  0.28217077440E+01  0.28220052284E+01  0.51109989000E-03 0.  1.
</event>
<event>
 6   3  0.2312675E+03  0.9118800E+02  0.7818608E-02  0.1180000E+00
       11   -1    0    0    0    0  0.00000000000E+00  0.00000000000E+00  0.54999999763E+01  0.55000000000E+01  0.51109989000E-03 0. -1.
     -623   -1    0    0    0    0  0.00000000000E+00  0.00000000000E+00  0.93234578044E-11  0.17124000000E+03  0.17124000000E+03 0.  1.
       11    1    1    2    0    0  0.18246700186E-02 -0.21995312389E-02  0.55361523170E+00  0.55362284395E+00  0.51109989000E-03 0. -1.
     -623    1    1    2    0    0 -0.61280823911E-01  0.34250507531E-02  0.37748032031E-03  0.17124001100E+03  0.17124000000E+03 0.  1.
     -611    1    1    2    0    0  0.48181201176E-01  0.34730169522E-03  0.39784984906E+01  0.39787902747E+01  0.51109989000E-03 0. -1.
      611    1    1    2    0    0  0.11274952805E-01 -0.15728212139E-02  0.96750878151E+00  0.96757588945E+00  0.51109989000E-03 0. -1.
</event>
<event>
 6   3  0.2312675E+03  0.9118800E+02  0.7818608E-02  0.1180000E+00
       11   -1    0    0    0    0  0.00000000000E+00  0.00000000000E+00  0.54999999763E+01  0.55000000000E+01  0.51109989000E-03 0. -1.
     -623   -1    0    0    0    0  0.00000000000E+00  0.00000000000E+00  0.93234578044E-11  0.17124000000E+03  0.17124000000E+03 0.  1.
       11    1    1    2    0    0 -0.80123698891E-02  0.13160421854E-01  0.52678917700E+00  0.52701469903E+00  0.51109989000E-03 0. -1.
     -623    1    1    2    0    0 -0.28768517219E-02 -0.16589906154E-01  0.75655634470E-03  0.17124000083E+03  0.17124000000E+03 0.  1.
     -611    1    1    2    0    0  0.38046634057E-01 -0.11814993383E-01  0.22574507203E+01  0.22578022846E+01  0.51109989000E-03 0. -1.
      611    1    1    2    0    0 -0.27157412446E-01  0.15244477683E-01  0.27150035225E+01  0.27151821868E+01  0.51109989000E-03 0.  1.
</event>
<event>
 6   3  0.2312675E+03  0.9118800E+02  0.7818608E-02  0.1180000E+00
       11   -1    0    0    0    0  0.00000000000E+00  0.00000000000E+00  0.54999999763E+01  0.55000000000E+01  0.51109989000E-03 0.  1.
     -623   -1    0    0    0    0  0.00000000000E+00  0.00000000000E+00  0.93234578044E-11  0.17124000000E+03  0.17124000000E+03 0.  1.
       11    1    1    2    0    0 -0.46794546352E-02 -0.19961188731E-01  0.73217487803E+00  0.73246205335E+00  0.51109989000E-03 0.  1.
     -623    1    1    2    0    0 -0.95178575557E-02  0.11311452125E-02  0.10254553768E-02  0.17124000027E+03  0.17124000000E+03 0.  1.
     -611    1    1    2    0    0  0.42597058772E-01  0.31087049596E-01  0.31647340248E+01  0.31651733954E+01  0.51109989000E-03 0.  1.
      611    1    1    2    0    0 -0.28399746581E-01 -0.12257006077E-01  0.16020656180E+01  0.16023642799E+01  0.51109989000E-03 0. -1.
</event>
<event>
 6   3  0.2312675E+03  0.9118800E+02  0.7818608E-02  0.1180000E+00
       11   -1    0    0    0    0  0.00000000000E+00  0.00000000000E+00  0.54999999763E+01  0.55000000000E+01  0.51109989000E-03 0. -1.
     -623   -1    0    0    0    0  0.00000000000E+00  0.00000000000E+00  0.93234578044E-11  0.17124000000E+03  0.17124000000E+03 0. -1.
       11    1    1    2    0    0 -0.58935753510E-01  0.58266969712E-02  0.10637952551E+01  0.10654426214E+01  0.51109989000E-03 0. -1.
     -623    1    1    2    0    0 -0.22858195066E-02  0.46667307080E-02  0.20838443579E-02  0.17124000009E+03  0.17124000000E+03 0. -1.
     -611    1    1    2    0    0  0.40841233976E-01 -0.69379174901E-02  0.28435128968E+01  0.28438146910E+01  0.51109989000E-03 0. -1.
      611    1    1    2    0    0  0.20380339029E-01 -0.35555101873E-02  0.15906079792E+01  0.15907425953E+01  0.51109989000E-03 0. -1.
</event>
<event>
 6   3  0.2312675E+03  0.9118800E+02  0.7818608E-02  0.1180000E+00
       11   -1    0    0    0    0  0.00000000000E+00  0.00000000000E+00  0.54999999763E+01  0.55000000000E+01  0.51109989000E-03 0. -1.
     -623   -1    0    0    0    0  0.00000000000E+00  0.00000000000E+00  0.93234578044E-11  0.17124000000E+03  0.17124000000E+03 0. -1.
       11    1    1    2    0    0  0.24988181982E-03  0.17863913421E-02  0.60959711334E-02  0.63777521203E-02  0.51109989000E-03 0. -1.
     -623    1    1    2    0    0 -0.14813924871E-02 -0.23902631877E-02  0.92207765087E-03  0.17124000003E+03  0.17124000000E+03 0. -1.
     -611    1    1    2    0    0  0.41136019762E-01  0.26770380670E-02  0.20971921574E+01  0.20975973267E+01  0.51109989000E-03 0.  1.
      611    1    1    2    0    0 -0.39904509095E-01 -0.20731662214E-02  0.33957897701E+01  0.33960248956E+01  0.51109989000E-03 0. -1.
</event>
<event>
 6   3  0.2312675E+03  0.9118800E+02  0.7818608E-02  0.1180000E+00
       11   -1    0    0    0    0  0.00000000000E+00  0.00000000000E+00  0.54999999763E+01  0.55000000000E+01  0.51109989000E-03 0. -1.
     -623   -1    0    0    0    0  0.00000000000E+00  0.00000000000E+00  0.93234578044E-11  0.17124000000E+03  0.17124000000E+03 0. -1.
       11    1    1    2    0    0 -0.83327849137E-02 -0.23005521730E-01  0.17859195347E+00  0.18026102296E+00  0.51109989000E-03 0. -1.
     -623    1    1    2    0    0 -0.13186763121E-01  0.22030415292E-01  0.48009643901E-02  0.17124000199E+03  0.17124000000E+03 0. -1.
     -611    1    1    2    0    0  0.71715459796E-01 -0.65901540049E-01  0.31899751905E+01  0.31914617493E+01  0.51109989000E-03 0. -1.
      611    1    1    2    0    0 -0.50195911761E-01  0.66876646487E-01  0.21266318679E+01  0.21282752356E+01  0.51109989000E-03 0.  1.
</event>
<event>
 6   3  0.2312675E+03  0.9118800E+02  0.7818608E-02  0.1180000E+00
       11   -1    0    0    0    0  0.00000000000E+00  0.00000000000E+00  0.54999999763E+01  0.55000000000E+01  0.51109989000E-03 0.  1.
     -623   -1    0    0    0    0  0.00000000000E+00  0.00000000000E+00  0.93234578044E-11  0.17124000000E+03  0.17124000000E+03 0. -1.
       11    1    1    2    0    0  0.93590099853E-02 -0.34353446979E-02  0.35827253193E-01  0.37192014674E-01  0.51109989000E-03 0.  1.
     -623    1    1    2    0    0 -0.16761997610E-02 -0.58026821611E-02  0.24226626369E-02  0.17124000012E+03  0.17124000000E+03 0. -1.
     -611    1    1    2    0    0 -0.55837780328E-01  0.97504443739E-02  0.35433150637E+01  0.35437684505E+01  0.51109989000E-03 0. -1.
      611    1    1    2    0    0  0.48154970104E-01 -0.51241751494E-03  0.19184349967E+01  0.19190394111E+01  0.51109989000E-03 0.  1.
</event>
<event>
 6   3  0.2312675E+03  0.9118800E+02  0.7818608E-02  0.1180000E+00
       11   -1    0    0    0    0  0.00000000000E+00  0.00000000000E+00  0.54999999763E+01  0.55000000000E+01  0.51109989000E-03 0. -1.
     -623   -1    0    0    0    0  0.00000000000E+00  0.00000000000E+00  0.93234578044E-11  0.17124000000E+03  0.17124000000E+03 0. -1.
       11    1    1    2    0    0 -0.22204299931E-02 -0.40134910634E-03 -0.42489700198E-02  0.48380119663E-02  0.51109989000E-03 0. -1.
     -623    1    1    2    0    0 -0.39984324823E-01 -0.10848443979E-01  0.97834481568E-02  0.17124000529E+03  0.17124000000E+03 0. -1.
     -611    1    1    2    0    0 -0.68818900969E-02 -0.19954872284E-01  0.65186900594E+00  0.65221087040E+00  0.51109989000E-03 0.  1.
      611    1    1    2    0    0  0.49086644913E-01  0.31204665369E-01  0.48425964922E+01  0.48429458264E+01  0.51109989000E-03 0. -1.
</event>
<event>
 6   3  0.2312675E+03  0.9118800E+02  0.7818608E-02  0.1180000E+00
       11   -1    0    0    0    0  0.00000000000E+00  0.00000000000E+00  0.54999999763E+01  0.55000000000E+01  0.51109989000E-03 0. -1.
     -623   -1    0    0    0    0  0.00000000000E+00  0.00000000000E+00  0.93234578044E-11  0.17124000000E+03  0.17124000000E+03 0.  1.
       11    1    1    2    0    0 -0.10195506071E+00 -0.12101914546E+00  0.10505991206E+01  0.10624496418E+01  0.51109989000E-03 0. -1.
     -623    1    1    2    0    0  0.37146534089E-01 -0.27848473288E-02  0.14060857545E-01  0.17124000463E+03  0.17124000000E+03 0.  1.
     -611    1    1    2    0    0  0.25876887628E-01  0.52062112359E-01  0.19400892225E+01  0.19409602080E+01  0.51109989000E-03 0.  1.
      611    1    1    2    0    0  0.38931638987E-01  0.71741880423E-01  0.24952507754E+01  0.24965855209E+01  0.51109989000E-03 0. -1.
</event>
<event>
 6   3  0.2312675E+03  0.9118800E+02  0.7818608E-02  0.1180000E+00
       11   -1    0    0    0    0  0.00000000000E+00  0.00000000000E+00  0.54999999763E+01  0.55000000000E+01  0.51109989000E-03 0. -1.
     -623   -1    0    0    0    0  0.00000000000E+00  0.00000000000E+00  0.93234578044E-11  0.17124000000E+03  0.17124000000E+03 0. -1.
       11    1    1    2    0    0  0.95533111689E-01 -0.36145723232E-01  0.10090960047E+01  0.10142524817E+01  0.51109989000E-03 0. -1.
     -623    1    1    2    0    0 -0.25878198161E-02  0.74145576639E-02  0.62119387252E-02  0.17124000029E+03  0.17124000000E+03 0. -1.
     -611    1    1    2    0    0 -0.47746543674E-01  0.14802917537E-01  0.22945595602E+01  0.22951040707E+01  0.51109989000E-03 0. -1.
      611    1    1    2    0    0 -0.45198748106E-01  0.13928248003E-01  0.21901324682E+01  0.21906431504E+01  0.51109989000E-03 0. -1.
</event>
<event>
 6   3  0.2312675E+03  0.9118800E+02  0.7818608E-02  0.1180000E+00
       11   -1    0    0    0    0  0.00000000000E+00  0.00000000000E+00  0.54999999763E+01  0.55000000000E+01  0.51109989000E-03 0. -1.
     -623   -1    0    0    0    0  0.00000000000E+00  0.00000000000E+00  0.93234578044E-11  0.17124000000E+03  0.17124000000E+03 0. -1.
       11    1    1    2    0    0  0.39430819323E-01 -0.12858497524E-01  0.84215151048E+00  0.84317231827E+00  0.51109989000E-03 0. -1.
     -623    1    1    2    0    0  0.10688652144E-01  0.15734613605E-01  0.12980206975E-02  0.17124000106E+03  0.17124000000E+03 0. -1.
     -611    1    1    2    0    0 -0.15170866196E-01  0.23984911673E-02  0.14173757037E+01  0.14174590134E+01  0.51109989000E-03 0.  1.
      611    1    1    2    0    0 -0.34948605269E-01 -0.52746072484E-02  0.32391747412E+01  0.32393676068E+01  0.51109989000E-03 0. -1.
</event>
<event>
 6   3  0.2312675E+03  0.9118800E+02  0.7818608E-02  0.1180000E+00
       11   -1    0    0    0    0  0.00000000000E+00  0.00000000000E+00  0.54999999763E+01  0.55000000000E+01  0.51109989000E-03 0.  1.
     -623   -1    0    0    0    0  0.00000000000E+00  0.00000000000E+00  0.93234578044E-11  0.17124000000E+03  0.17124000000E+03 0.  1.
       11    1    1    2    0    0  0.24897434954E-02  0.16370014671E-02  0.84719843573E-01  0.84773767845E-01  0.51109989000E-03 0.  1.
     -623    1    1    2    0    0 -0.94465295157E-03 -0.18240033313E-03  0.69503449500E-03  0.17124000000E+03  0.17124000000E+03 0.  1.
     -611    1    1    2    0    0  0.38261518626E-01 -0.90039211979E-02  0.34457502622E+01  0.34459744841E+01  0.51109989000E-03 0.  1.
      611    1    1    2    0    0 -0.39806609169E-01  0.75493200640E-02  0.19688348362E+01  0.19692517441E+01  0.51109989000E-03 0. -1.
</event>
<event>
 6   3  0.2312675E+03  0.9118800E+02  0.7818608E-02  0.1180000E+00
       11   -1    0    0    0    0  0.00000000000E+00  0.00000000000E+00  0.54999999763E+01  0.55000000000E+01  0.51109989000E-03 0. -1.
     -623   -1    0    0    0    0  0.00000000000E+00  0.00000000000E+00  0.93234578044E-11  0.17124000000E+03  0.17124000000E+03 0. -1.
       11    1    1    2    0    0  0.30680140345E-01  0.81754152592E-02  0.62242330924E+00  0.62323281809E+00  0.51109989000E-03 0. -1.
     -623    1    1    2    0    0 -0.22055986851E-02  0.44349065449E-02  0.50482043490E-02  0.17124000015E+03  0.17124000000E+03 0. -1.
     -611    1    1    2    0    0  0.61477503267E-01 -0.37628165273E-01  0.81966928942E+00  0.82283252699E+00  0.51109989000E-03 0.  1.
      611    1    1    2    0    0 -0.89952044927E-01  0.25017843469E-01  0.40528591732E+01  0.40539345089E+01  0.51109989000E-03 0. -1.
</event>
<event>
 6   3  0.2312675E+03  0.9118800E+02  0.7818608E-02  0.1180000E+00
       11   -1    0    0    0    0  0.00000000000E+00  0.00000000000E+00  0.54999999763E+01  0.55000000000E+01  0.51109989000E-03 0.  1.
     -623   -1    0    0    0    0  0.00000000000E+00  0.00000000000E+00  0.93234578044E-11  0.17124000000E+03  0.17124000000E+03 0.  1.
       11    1    1    2    0    0  0.55306747573E-01 -0.50305210295E-01  0.77706682949E+00  0.78065521789E+00  0.51109989000E-03 0.  1.
     -623    1    1    2    0    0 -0.35114458468E+00  0.38669603065E+00  0.25703373589E-01  0.17124079858E+03  0.17124000000E+03 0.  1.
     -611    1    1    2    0    0  0.13229047449E+00 -0.15009809232E+00  0.20689275746E+01  0.20785792689E+01  0.51109989000E-03 0.  1.
      611    1    1    2    0    0  0.16354736248E+00 -0.18629272788E+00  0.26283021965E+01  0.26399669350E+01  0.51109989000E-03 0. -1.
</event>
<event>
 6   3  0.2312675E+03  0.9118800E+02  0.7818608E-02  0.1180000E+00
       11   -1    0    0    0    0  0.00000000000E+00  0.00000000000E+00  0.54999999763E+01  0.55000000000E+01  0.51109989000E-03 0.  1.
     -623   -1    0    0    0    0  0.00000000000E+00  0.00000000000E+00  0.93234578044E-11  0.17124000000E+03  0.17124000000E+03 0. -1.
       11    1    1    2    0    0  0.17275063637E-03  0.10815653676E-01  0.74111571377E+00  0.74119482636E+00  0.51109989000E-03 0.  1.
     -623    1    1    2    0    0  0.61030041781E-01  0.13494898648E-01  0.54673491371E-03  0.17124001141E+03  0.17124000000E+03 0. -1.
     -611    1    1    2    0    0 -0.14627592257E-01 -0.57682773082E-02  0.10772522380E+01  0.10773671078E+01  0.51109989000E-03 0.  1.
      611    1    1    2    0    0 -0.46575200127E-01 -0.18542275003E-01  0.36810852869E+01  0.36814266550E+01  0.51109989000E-03 0.  1.
</event>
<event>
 6   3  0.2312675E+03  0.9118800E+02  0.7818608E-02  0.1180000E+00
       11   -1    0    0    0    0  0.00000000000E+00  0.00000000000E+00  0.54999999763E+01  0.55000000000E+01  0.51109989000E-03 0. -1.
     -623   -1    0    0    0    0  0.00000000000E+00  0.00000000000E+00  0.93234578044E-11  0.17124000000E+03  0.17124000000E+03 0.  1.
       11    1    1    2    0    0  0.12910446123E-01 -0.31728601842E-01  0.91756740923E+00  0.91820672808E+00  0.51109989000E-03 0. -1.
     -623    1    1    2    0    0  0.39475917929E-01  0.22736303028E-01  0.95401762174E-03  0.17124000606E+03  0.17124000000E+03 0.  1.
     -611    1    1    2    0    0 -0.23581776986E-01  0.36299097971E-02  0.20057949832E+01  0.20059369512E+01  0.51109989000E-03 0. -1.
      611    1    1    2    0    0 -0.28804587109E-01  0.53623890242E-02  0.25756835700E+01  0.25758502622E+01  0.51109989000E-03 0. -1.
</event>
<event>
 6   3  0.2312675E+03  0.9118800E+02  0.7818608E-02  0.1180000E+00
       11   -1    0    0    0    0  0.00000000000E+00  0.00000000000E+00  0.54999999763E+01  0.55000000000E+01  0.51109989000E-03 0. -1.
     -623   -1    0    0    0    0  0.00000000000E+00  0.00000000000E+00  0.93234578044E-11  0.17124000000E+03  0.17124000000E+03 0.  1.
       11    1    1    2    0    0  0.15959529911E-01  0.59129130295E-02  0.59036487515E-02  0.18021748726E-01  0.51109989000E-03 0. -1.
     -623    1    1    2    0    0 -0.24968941045E-01 -0.26286727453E-02  0.13599802749E-01  0.17124000238E+03  0.17124000000E+03 0.  1.
     -611    1    1    2    0    0 -0.45607081240E-01 -0.57881009577E-02  0.91700749374E+00  0.91815930686E+00  0.51109989000E-03 0.  1.
      611    1    1    2    0    0  0.54616492374E-01  0.25038606734E-02  0.45634890310E+01  0.45638165638E+01  0.51109989000E-03 0. -1.
</event>
<event>
 6   3  0.2312675E+03  0.9118800E+02  0.7818608E-02  0.1180000E+00
       11   -1    0    0    0    0  0.00000000000E+00  0.00000000000E+00  0.54999999763E+01  0.55000000000E+01  0.51109989000E-03 0.  1.
     -623   -1    0    0    0    0  0.00000000000E+00  0.00000000000E+00  0.93234578044E-11  0.17124000000E+03  0.17124000000E+03 0. -1.
       11    1    1    2    0    0 -0.16625417064E-01  0.91644890985E-02  0.88046180805E+00  0.88066659356E+00  0.51109989000E-03 0.  1.
     -623    1    1    2    0    0  0.84379418283E-01 -0.42068948940E-01  0.84522841628E-03  0.17124002596E+03  0.17124000000E+03 0. -1.
     -611    1    1    2    0    0 -0.38963214508E-01  0.19567086219E-01  0.27043317460E+01  0.27046832451E+01  0.51109989000E-03 0.  1.
      611    1    1    2    0    0 -0.28790786711E-01  0.13337373622E-01  0.19143611937E+01  0.19146242023E+01  0.51109989000E-03 0.  1.
</event>
<event>
 6   3  0.2312675E+03  0.9118800E+02  0.7818608E-02  0.1180000E+00
       11   -1    0    0    0    0  0.00000000000E+00  0.00000000000E+00  0.54999999763E+01  0.55000000000E+01  0.51109989000E-03 0. -1.
     -623   -1    0    0    0    0  0.00000000000E+00  0.00000000000E+00  0.93234578044E-11  0.17124000000E+03  0.17124000000E+03 0.  1.
       11    1    1    2    0    0 -0.20250925634E-01 -0.11552137432E+00  0.26652408818E+00  0.29118832174E+00  0.51109989000E-03 0. -1.
     -623    1    1    2    0    0  0.11212942118E+00  0.58670180071E-01  0.26487094527E-01  0.17124004881E+03  0.17124000000E+03 0.  1.
     -611    1    1    2    0    0  0.14085716879E-01  0.16218604385E-01  0.10811811970E+01  0.10813946979E+01  0.51109989000E-03 0.  1.
      611    1    1    2    0    0 -0.10596421242E+00  0.40632589863E-01  0.41258075965E+01  0.41273681695E+01  0.51109989000E-03 0. -1.
</event>
<event>
 6   3  0.2312675E+03  0.9118800E+02  0.7818608E-02  0.1180000E+00
       11   -1    0    0    0    0  0.00000000000E+00  0.00000000000E+00  0.54999999763E+01  0.55000000000E+01  0.51109989000E-03 0. -1.
     -623   -1    0    0    0    0  0.00000000000E+00  0.00000000000E+00  0.93234578044E-11  0.17124000000E+03  0.17124000000E+03 0.  1.
       11    1    1    2    0    0  0.52734373025E-01 -0.25835070624E-01  0.74895066001E+00  0.75124943749E+00  0.51109989000E-03 0. -1.
     -623    1    1    2    0    0 -0.43267037398E-02 -0.19955828155E-02  0.26273024002E-02  0.17124000009E+03  0.17124000000E+03 0.  1.
     -611    1    1    2    0    0 -0.20951491942E-01  0.12370715376E-01  0.20892915757E+01  0.20894333081E+01  0.51109989000E-03 0. -1.
      611    1    1    2    0    0 -0.27456177368E-01  0.15459938078E-01  0.26591304406E+01  0.26593171704E+01  0.51109989000E-03 0. -1.
</event>
<event>
 6   3  0.2312675E+03  0.9118800E+02  0.7818608E-02  0.1180000E+00
       11   -1    0    0    0    0  0.00000000000E+00  0.00000000000E+00  0.54999999763E+01  0.55000000000E+01  0.51109989000E-03 0. -1.
     -623   -1    0    0    0    0  0.00000000000E+00  0.00000000000E+00  0.93234578044E-11  0.17124000000E+03  0.17124000000E+03 0. -1.
       11    1    1    2    0    0 -0.33273589365E-01 -0.43451954521E-01  0.78839365660E+00  0.79029110023E+00  0.51109989000E-03 0. -1.
     -623    1    1    2    0    0 -0.28469804230E-01  0.60623472841E-02  0.31053158819E-02  0.17124000250E+03  0.17124000000E+03 0. -1.
     -611    1    1    2    0    0  0.40622611941E-01  0.59914180077E-01  0.37769601753E+01  0.37776538132E+01  0.51109989000E-03 0. -1.
      611    1    1    2    0    0  0.21120781653E-01 -0.22524572840E-01  0.93154082843E+00  0.93205258439E+00  0.51109989000E-03 0.  1.
</event>
<event>
 6   3  0.2312675E+03  0.9118800E+02  0.7818608E-02  0.1180000E+00
       11   -1    0    0    0    0  0.00000000000E+00  0.00000000000E+00  0.54999999763E+01  0.55000000000E+01  0.51109989000E-03 0.  1.
     -623   -1    0    0    0    0  0.00000000000E+00  0.00000000000E+00  0.93234578044E-11  0.17124000000E+03  0.17124000000E+03 0. -1.
       11    1    1    2    0    0 -0.95856233658E-02 -0.17212644158E-01  0.18581740988E+00  0.18685965410E+00  0.51109989000E-03 0.  1.
     -623    1    1    2    0    0  0.11480383053E-01 -0.69670378038E-02  0.21860392470E-02  0.17124000054E+03  0.17124000000E+03 0. -1.
     -611    1    1    2    0    0  0.44053320725E-01 -0.16080548167E-01  0.17943803106E+01  0.17949931029E+01  0.51109989000E-03 0. -1.
      611    1    1    2    0    0 -0.45948080411E-01  0.40260230129E-01  0.35176162165E+01  0.35181467025E+01  0.51109989000E-03 0.  1.
</event>
<event>
 6   3  0.2312675E+03  0.9118800E+02  0.7818608E-02  0.1180000E+00
       11   -1    0    0    0    0  0.00000000000E+00  0.00000000000E+00  0.54999999763E+01  0.55000000000E+01  0.51109989000E-03 0.  1.
     -623   -1    0    0    0    0  0.00000000000E+00  0.00000000000E+00  0.93234578044E-11  0.17124000000E+03  0.17124000000E+03 0.  1.
       11    1    1    2    0    0  0.64305183095E-02 -0.33471063837E-03  0.54284193122E-01  0.54667160553E-01  0.51109989000E-03 0.  1.
     -623    1    1    2    0    0  0.11766799780E-01  0.51822182219E-02  0.77298314397E-03  0.17124000048E+03  0.17124000000E+03 0.  1.
     -611    1    1    2    0    0  0.23015741245E-01  0.28283931857E-02  0.19938097062E+01  0.19939446156E+01  0.51109989000E-03 0. -1.
      611    1    1    2    0    0 -0.41213059334E-01 -0.76759007691E-02  0.34511330937E+01  0.34513877394E+01  0.51109989000E-03 0.  1.
</event>
<event>
 6   3  0.2312675E+03  0.9118800E+02  0.7818608E-02  0.1180000E+00
       11   -1    0    0    0    0  0.00000000000E+00  0.00000000000E+00  0.54999999763E+01  0.55000000000E+01  0.51109989000E-03 0.  1.
     -623   -1    0    0    0    0  0.00000000000E+00  0.00000000000E+00  0.93234578044E-11  0.17124000000E+03  0.17124000000E+03 0. -1.
       11    1    1    2    0    0  0.11749525917E-01  0.12460266253E-01  0.16222509430E+00  0.16312741044E+00  0.51109989000E-03 0.  1.
     -623    1    1    2    0    0 -0.24105693314E-02  0.14775346764E-02  0.12482408106E-02  0.17124000003E+03  0.17124000000E+03 0. -1.
     -611    1    1    2    0    0  0.24735663725E-01 -0.27765987141E-02  0.22271544141E+01  0.22272935612E+01  0.51109989000E-03 0. -1.
      611    1    1    2    0    0 -0.34074620310E-01 -0.11161202215E-01  0.31093722271E+01  0.31095790004E+01  0.51109989000E-03 0.  1.
</event>
<event>
 6   3  0.2312675E+03  0.9118800E+02  0.7818608E-02  0.1180000E+00
       11   -1    0    0    0    0  0.00000000000E+00  0.00000000000E+00  0.54999999763E+01  0.55000000000E+01  0.51109989000E-03 0. -1.
     -623   -1    0    0    0    0  0.00000000000E+00  0.00000000000E+00  0.93234578044E-11  0.17124000000E+03  0.17124000000E+03 0.  1.
       11    1    1    2    0    0  0.61343408824E-02 -0.67013740829E-02  0.74120325195E+00  0.74125910482E+00  0.51109989000E-03 0. -1.
     -623    1    1    2    0    0 -0.68509226713E-01  0.52746419525E-01  0.70954069833E-03  0.17124002183E+03  0.17124000000E+03 0.  1.
     -611    1    1    2    0    0  0.54942031921E-01 -0.40712338343E-01  0.41906824116E+01  0.41912403245E+01  0.51109989000E-03 0. -1.
      611    1    1    2    0    0  0.74328538341E-02 -0.53327070402E-02  0.56740476591E+00  0.56747873501E+00  0.51109989000E-03 0. -1.
</event>
<event>
 6   3  0.2312675E+03  0.9118800E+02  0.7818608E-02  0.1180000E+00
       11   -1    0    0    0    0  0.00000000000E+00  0.00000000000E+00  0.54999999763E+01  0.55000000000E+01  0.51109989000E-03 0.  1.
     -623   -1    0    0    0    0  0.00000000000E+00  0.00000000000E+00  0.93234578044E-11  0.17124000000E+03  0.17124000000E+03 0. -1.
       11    1    1    2    0    0  0.47774272974E-01  0.21559631798E-01  0.62402925205E+00  0.62622677004E+00  0.51109989000E-03 0.  1.
     -623    1    1    2    0    0  0.68580495381E-02 -0.38037279125E-01  0.25360901351E-02  0.17124000438E+03  0.17124000000E+03 0. -1.
     -611    1    1    2    0    0 -0.32129962983E-01  0.96008418583E-02  0.28388045829E+01  0.28390026826E+01  0.51109989000E-03 0.  1.
      611    1    1    2    0    0 -0.22502359667E-01  0.68768055095E-02  0.20346300634E+01  0.20347661789E+01  0.51109989000E-03 0.  1.
</event>
<event>
 6   3  0.2312675E+03  0.9118800E+02  0.7818608E-02  0.1180000E+00
       11   -1    0    0    0    0  0.00000000000E+00  0.00000000000E+00  0.54999999763E+01  0.55000000000E+01  0.51109989000E-03 0.  1.
     -623   -1    0    0    0    0  0.00000000000E+00  0.00000000000E+00  0.93234578044E-11  0.17124000000E+03  0.17124000000E+03 0. -1.
       11    1    1    2    0    0  0.37438772972E-01  0.34352567126E-02  0.45587646664E+00  0.45742439459E+00  0.51109989000E-03 0.  1.
     -623    1    1    2    0    0 -0.86996498339E-02 -0.30813027047E-01  0.35673310918E-02  0.17124000303E+03  0.17124000000E+03 0. -1.
     -611    1    1    2    0    0  0.37162881005E-01 -0.18974790300E-01  0.68422008655E+00  0.68549143718E+00  0.51109989000E-03 0. -1.
      611    1    1    2    0    0 -0.65902004142E-01  0.46352560634E-01  0.43563360920E+01  0.43570811378E+01  0.51109989000E-03 0.  1.
</event>
<event>
 6   3  0.2312675E+03  0.9118800E+02  0.7818608E-02  0.1180000E+00
       11   -1    0    0    0    0  0.00000000000E+00  0.00000000000E+00  0.54999999763E+01  0.55000000000E+01  0.51109989000E-03 0. -1.
     -623   -1    0    0    0    0  0.00000000000E+00  0.00000000000E+00  0.93234578044E-11  0.17124000000E+03  0.17124000000E+03 0. -1.
       11    1    1    2    0    0  0.27433849799E-01 -0.32927461662E-02  0.14058475069E+00  0.14327523038E+00  0.51109989000E-03 0. -1.
     -623    1    1    2    0    0  0.69474934116E-01 -0.99714039462E-01  0.46010800111E-02  0.17124004319E+03  0.17124000000E+03 0. -1.
     -611    1    1    2    0    0 -0.70659011342E-01  0.75077628711E-01  0.39047393637E+01  0.39061002427E+01  0.51109989000E-03 0. -1.
      611    1    1    2    0    0 -0.26249772636E-01  0.27929156983E-01  0.14500747853E+01  0.14505813430E+01  0.51109989000E-03 0. -1.
</event>
<event>
 6   3  0.2312675E+03  0.9118800E+02  0.7818608E-02  0.1180000E+00
       11   -1    0    0    0    0  0.00000000000E+00  0.00000000000E+00  0.54999999763E+01  0.55000000000E+01  0.51109989000E-03 0. -1.
     -623   -1    0    0    0    0  0.00000000000E+00  0.00000000000E+00  0.93234578044E-11  0.17124000000E+03  0.17124000000E+03 0. -1.
       11    1    1    2    0    0  0.24041010314E-01  0.19025646271E-01  0.40162039785E+00  0.40278921359E+00  0.51109989000E-03 0. -1.
     -623    1    1    2    0    0  0.56563295375E-01 -0.19228019056E-01  0.18188049429E-02  0.17124001043E+03  0.17124000000E+03 0. -1.
     -611    1    1    2    0    0 -0.70019232339E-01  0.16850475646E-02  0.44062241250E+01  0.44067807789E+01  0.51109989000E-03 0. -1.
      611    1    1    2    0    0 -0.10585073345E-01 -0.14826747798E-02  0.69033664813E+00  0.69041957611E+00  0.51109989000E-03 0.  1.
</event>
<event>
 6   3  0.2312675E+03  0.9118800E+02  0.7818608E-02  0.1180000E+00
       11   -1    0    0    0    0  0.00000000000E+00  0.00000000000E+00  0.54999999763E+01  0.55000000000E+01  0.51109989000E-03 0. -1.
     -623   -1    0    0    0    0  0.00000000000E+00  0.00000000000E+00  0.93234578044E-11  0.17124000000E+03  0.17124000000E+03 0. -1.
       11    1    1    2    0    0  0.60590050856E-01  0.13027930822E-01  0.85173279210E+00  0.85398471391E+00  0.51109989000E-03 0. -1.
     -623    1    1    2    0    0  0.14687428207E-01 -0.65065915134E-03  0.28790649178E-02  0.17124000066E+03  0.17124000000E+03 0. -1.
     -611    1    1    2    0    0 -0.36196383272E-01 -0.60755506443E-02  0.22224329639E+01  0.22227360686E+01  0.51109989000E-03 0. -1.
      611    1    1    2    0    0 -0.39081095579E-01 -0.63017209916E-02  0.24229551422E+01  0.24232785490E+01  0.51109989000E-03 0. -1.
</event>
<event>
 6   3  0.2312675E+03  0.9118800E+02  0.7818608E-02  0.1180000E+00
       11   -1    0    0    0    0  0.00000000000E+00  0.00000000000E+00  0.54999999763E+01  0.55000000000E+01  0.51109989000E-03 0.  1.
     -623   -1    0    0    0    0  0.00000000000E+00  0.00000000000E+00  0.93234578044E-11  0.17124000000E+03  0.17124000000E+03 0. -1.
       11    1    1    2    0    0  0.15110683788E-01  0.93279487806E-02  0.18491399143E+00  0.18576541348E+00  0.51109989000E-03 0.  1.
     -623    1    1    2    0    0  0.16628337570E-02 -0.39779492550E-02  0.15380199947E-02  0.17124000006E+03  0.17124000000E+03 0. -1.
     -611    1    1    2    0    0  0.32579599612E-01  0.65282437875E-02  0.25933988629E+01  0.25936117619E+01  0.51109989000E-03 0.  1.
      611    1    1    2    0    0 -0.49353117157E-01 -0.11878243313E-01  0.27201491019E+01  0.27206227634E+01  0.51109989000E-03 0. -1.
</event>
<event>
 6   3  0.2312675E+03  0.9118800E+02  0.7818608E-02  0.1180000E+00
       11   -1    0    0    0    0  0.00000000000E+00  0.00000000000E+00  0.54999999763E+01  0.55000000000E+01  0.51109989000E-03 0.  1.
     -623   -1    0    0    0    0  0.00000000000E+00  0.00000000000E+00  0.93234578044E-11  0.17124000000E+03  0.17124000000E+03 0.  1.
       11    1    1    2    0    0  0.22743620866E-03  0.43875816981E-02  0.99501530505E+00  0.99502513591E+00  0.51109989000E-03 0.  1.
     -623    1    1    2    0    0  0.47459377971E-01 -0.15226911236E-01  0.28460051868E-03  0.17124000725E+03  0.17124000000E+03 0.  1.
     -611    1    1    2    0    0 -0.25929125972E-01  0.80482889479E-02  0.24891976334E+01  0.24893457402E+01  0.51109989000E-03 0.  1.
      611    1    1    2    0    0 -0.21757688202E-01  0.27910405881E-02  0.20155024365E+01  0.20156218692E+01  0.51109989000E-03 0. -1.
</event>
<event>
 6   3  0.2312675E+03  0.9118800E+02  0.7818608E-02  0.1180000E+00
       11   -1    0    0    0    0  0.00000000000E+00  0.00000000000E+00  0.54999999763E+01  0.55000000000E+01  0.51109989000E-03 0.  1.
     -623   -1    0    0    0    0  0.00000000000E+00  0.00000000000E+00  0.93234578044E-11  0.17124000000E+03  0.17124000000E+03 0.  1.
       11    1    1    2    0    0  0.99471814409E-01  0.24597674366E-01  0.29585617026E+00  0.31309874185E+00  0.51109989000E-03 0.  1.
     -623    1    1    2    0    0 -0.24365665528E-01  0.85496188562E-04  0.18268149759E-01  0.17124000271E+03  0.17124000000E+03 0.  1.
     -611    1    1    2    0    0  0.12138758011E-01  0.66380368369E-04  0.71475806979E+00  0.71486132460E+00  0.51109989000E-03 0. -1.
      611    1    1    2    0    0 -0.87244906892E-01 -0.24749550922E-01  0.44711175865E+01  0.44720372256E+01  0.51109989000E-03 0.  1.
</event>
<event>
 6   3  0.2312675E+03  0.9118800E+02  0.7818608E-02  0.1180000E+00
       11   -1    0    0    0    0  0.00000000000E+00  0.00000000000E+00  0.54999999763E+01  0.55000000000E+01  0.51109989000E-03 0. -1.
     -623   -1    0    0    0    0  0.00000000000E+00  0.00000000000E+00  0.93234578044E-11  0.17124000000E+03  0.17124000000E+03 0. -1.
       11    1    1    2    0    0  0.14938797828E-01  0.12984009891E+00  0.56929087703E+00  0.58410100398E+00  0.51109989000E-03 0. -1.
     -623    1    1    2    0    0  0.60539201010E-01  0.49914846560E-01  0.18959597179E-01  0.17124001903E+03  0.17124000000E+03 0. -1.
     -611    1    1    2    0    0 -0.53468830931E-01 -0.14009574909E+00  0.42074363304E+01  0.42101076554E+01  0.51109989000E-03 0. -1.
      611    1    1    2    0    0 -0.22009167907E-01 -0.39659196383E-01  0.70431317170E+00  0.70577231483E+00  0.51109989000E-03 0.  1.
</event>
<event>
 6   3  0.2312675E+03  0.9118800E+02  0.7818608E-02  0.1180000E+00
       11   -1    0    0    0    0  0.00000000000E+00  0.00000000000E+00  0.54999999763E+01  0.55000000000E+01  0.51109989000E-03 0. -1.
     -623   -1    0    0    0    0  0.00000000000E+00  0.00000000000E+00  0.93234578044E-11  0.17124000000E+03  0.17124000000E+03 0. -1.
       11    1    1    2    0    0 -0.79936754468E-02 -0.40956067310E-02  0.16424595044E+00  0.16449214662E+00  0.51109989000E-03 0. -1.
     -623    1    1    2    0    0  0.88460289564E-02  0.32690768542E-02  0.10730758699E-02  0.17124000026E+03  0.17124000000E+03 0. -1.
     -611    1    1    2    0    0  0.37848595578E-01  0.19550777925E-01  0.37548436071E+01  0.37550852885E+01  0.51109989000E-03 0. -1.
      611    1    1    2    0    0 -0.38700949087E-01 -0.18724248048E-01  0.15798373430E+01  0.15804223019E+01  0.51109989000E-03 0.  1.
</event>
<event>
 6   3  0.2312675E+03  0.9118800E+02  0.7818608E-02  0.1180000E+00
       11   -1    0    0    0    0  0.00000000000E+00  0.00000000000E+00  0.54999999763E+01  0.55000000000E+01  0.51109989000E-03 0. -1.
     -623   -1    0    0    0    0  0.00000000000E+00  0.00000000000E+00  0.93234578044E-11  0.17124000000E+03  0.17124000000E+03 0.  1.
       11    1    1    2    0    0  0.77210962886E-02  0.17463990576E-02  0.21520148569E+00  0.21534763965E+00  0.51109989000E-03 0. -1.
     -623    1    1    2    0    0 -0.18978085356E-02  0.45468303002E-02  0.17019050014E-02  0.17124000008E+03  0.17124000000E+03 0.  1.
     -611    1    1    2    0    0  0.46804883797E-01  0.17198604615E-01  0.10699171948E+01  0.10710786872E+01  0.51109989000E-03 0.  1.
      611    1    1    2    0    0 -0.52628171550E-01 -0.23491833973E-01  0.42131793908E+01  0.42135735939E+01  0.51109989000E-03 0. -1.
</event>
<event>
 6   3  0.2312675E+03  0.9118800E+02  0.7818608E-02  0.1180000E+00
       11   -1    0    0    0    0  0.00000000000E+00  0.00000000000E+00  0.54999999763E+01  0.55000000000E+01  0.51109989000E-03 0.  1.
     -623   -1    0    0    0    0  0.00000000000E+00  0.00000000000E+00  0.93234578044E-11  0.17124000000E+03  0.17124000000E+03 0.  1.
       11    1    1    2    0    0  0.84127472759E-02  0.30067900311E-01  0.60576917372E-01  0.68151867819E-01  0.51109989000E-03 0.  1.
     -623    1    1    2    0    0 -0.13486750446E-01 -0.90704309050E-03  0.86241496291E-02  0.17124000075E+03  0.17124000000E+03 0.  1.
     -611    1    1    2    0    0  0.46662004408E-01  0.97333805818E-02  0.30191001766E+01  0.30194764810E+01  0.51109989000E-03 0. -1.
      611    1    1    2    0    0 -0.41588001238E-01 -0.38894237802E-01  0.24116987326E+01  0.24123709005E+01  0.51109989000E-03 0.  1.
</event>
<event>
 6   3  0.2312675E+03  0.9118800E+02  0.7818608E-02  0.1180000E+00
       11   -1    0    0    0    0  0.00000000000E+00  0.00000000000E+00  0.54999999763E+01  0.55000000000E+01  0.51109989000E-03 0. -1.
     -623   -1    0    0    0    0  0.00000000000E+00  0.00000000000E+00  0.93234578044E-11  0.17124000000E+03  0.17124000000E+03 0. -1.
       11    1    1    2    0    0 -0.52384840797E-01  0.87236433183E-02  0.69268656860E+00  0.69471952401E+00  0.51109989000E-03 0. -1.
     -623    1    1    2    0    0 -0.36646086784E-02 -0.28967675787E-02  0.31925761621E-02  0.17124000009E+03  0.17124000000E+03 0. -1.
     -611    1    1    2    0    0 -0.21364507413E-01  0.13534814313E-01  0.97487011157E+00  0.97519825115E+00  0.51109989000E-03 0.  1.
      611    1    1    2    0    0  0.77413956888E-01 -0.19361690052E-01  0.38292507199E+01  0.38300821314E+01  0.51109989000E-03 0. -1.
</event>
<event>
 6   3  0.2312675E+03  0.9118800E+02  0.7818608E-02  0.1180000E+00
       11   -1    0    0    0    0  0.00000000000E+00  0.00000000000E+00  0.54999999763E+01  0.55000000000E+01  0.51109989000E-03 0.  1.
     -623   -1    0    0    0    0  0.00000000000E+00  0.00000000000E+00  0.93234578044E-11  0.17124000000E+03  0.17124000000E+03 0.  1.
       11    1    1    2    0    0  0.20932984708E-01  0.84354310081E-03  0.63490730034E+00  0.63525305403E+00  0.51109989000E-03 0.  1.
     -623    1    1    2    0    0  0.31211075797E-01  0.25439416064E-01  0.70112549800E-03  0.17124000474E+03  0.17124000000E+03 0.  1.
     -611    1    1    2    0    0 -0.17816985298E-01 -0.85629446222E-02  0.16541910517E+01  0.16543092412E+01  0.51109989000E-03 0.  1.
      611    1    1    2    0    0 -0.34327075189E-01 -0.17720014533E-01  0.32102004970E+01  0.32104329676E+01  0.51109989000E-03 0.  1.
</event>
<event>
 6   3  0.2312675E+03  0.9118800E+02  0.7818608E-02  0.1180000E+00
       11   -1    0    0    0    0  0.00000000000E+00  0.00000000000E+00  0.54999999763E+01  0.55000000000E+01  0.51109989000E-03 0.  1.
     -623   -1    0    0    0    0  0.00000000000E+00  0.00000000000E+00  0.93234578044E-11  0.17124000000E+03  0.17124000000E+03 0. -1.
       11    1    1    2    0    0 -0.10899499756E+00  0.29094835601E-01  0.53065923162E+00  0.54251811056E+00  0.51109989000E-03 0.  1.
     -623    1    1    2    0    0 -0.18057603160E-02  0.44679964544E-01  0.13675581912E-01  0.17124000638E+03  0.17124000000E+03 0. -1.
     -611    1    1    2    0    0  0.68169439545E-01 -0.50199260807E-01  0.29168223157E+01  0.29180506714E+01  0.51109989000E-03 0.  1.
      611    1    1    2    0    0  0.42631318337E-01 -0.23575539340E-01  0.20388428471E+01  0.20394248335E+01  0.51109989000E-03 0. -1.
</event>
<event>
 6   3  0.2312675E+03  0.9118800E+02  0.7818608E-02  0.1180000E+00
       11   -1    0    0    0    0  0.00000000000E+00  0.00000000000E+00  0.54999999763E+01  0.55000000000E+01  0.51109989000E-03 0. -1.
     -623   -1    0    0    0    0  0.00000000000E+00  0.00000000000E+00  0.93234578044E-11  0.17124000000E+03  0.17124000000E+03 0. -1.
       11    1    1    2    0    0 -0.23777482452E-02  0.51094948778E-02  0.81858519905E-01  0.82053879426E-01  0.51109989000E-03 0. -1.
     -623    1    1    2    0    0 -0.56104457757E-01 -0.21130773930E-01  0.54555085568E-03  0.17124001050E+03  0.17124000000E+03 0. -1.
     -611    1    1    2    0    0  0.25631508638E-01  0.69217599376E-02  0.22945267896E+01  0.22946804428E+01  0.51109989000E-03 0.  1.
      611    1    1    2    0    0  0.32850697369E-01  0.90995191153E-02  0.31230691164E+01  0.31232551827E+01  0.51109989000E-03 0. -1.
</event>
<event>
 6   3  0.2312675E+03  0.9118800E+02  0.7818608E-02  0.1180000E+00
       11   -1    0    0    0    0  0.00000000000E+00  0.00000000000E+00  0.54999999763E+01  0.55000000000E+01  0.51109989000E-03 0. -1.
     -623   -1    0    0    0    0  0.00000000000E+00  0.00000000000E+00  0.93234578044E-11  0.17124000000E+03  0.17124000000E+03 0. -1.
       11    1    1    2    0    0 -0.88303310912E-01 -0.53146896271E-01  0.82968058542E+00  0.83605753531E+00  0.51109989000E-03 0. -1.
     -623    1    1    2    0    0 -0.62531766355E-02 -0.14302234214E-02  0.76560540238E-02  0.17124000029E+03  0.17124000000E+03 0. -1.
     -611    1    1    2    0    0  0.56879101253E-01  0.33669710022E-01  0.28656846162E+01  0.28664468358E+01  0.51109989000E-03 0. -1.
      611    1    1    2    0    0  0.37677386292E-01  0.20907409669E-01  0.17969787205E+01  0.17974953375E+01  0.51109989000E-03 0.  1.
</event>
<event>
 6   3  0.2312675E+03  0.9118800E+02  0.7818608E-02  0.1180000E+00
       11   -1    0    0    0    0  0.00000000000E+00  0.00000000000E+00  0.54999999763E+01  0.55000000000E+01  0.51109989000E-03 0. -1.
     -623   -1    0    0    0    0  0.00000000000E+00  0.00000000000E+00  0.93234578044E-11  0.17124000000E+03  0.17124000000E+03 0.  1.
       11    1    1    2    0    0  0.34857809295E-02  0.18345609795E-02  0.29929765574E+00  0.29932401213E+00  0.51109989000E-03 0. -1.
     -623    1    1    2    0    0 -0.80535742189E-01 -0.54913890945E-01  0.89614877915E-03  0.17124002775E+03  0.17124000000E+03 0.  1.
     -611    1    1    2    0    0  0.66498092919E-01  0.46320016417E-01  0.45063293131E+01  0.45070579850E+01  0.51109989000E-03 0. -1.
      611    1    1    2    0    0  0.10551868229E-01  0.67593134729E-02  0.69347685108E+00  0.69359024968E+00  0.51109989000E-03 0. -1.
</event>
<event>
 6   3  0.2312675E+03  0.9118800E+02  0.7818608E-02  0.1180000E+00
       11   -1    0    0    0    0  0.00000000000E+00  0.00000000000E+00  0.54999999763E+01  0.55000000000E+01  0.51109989000E-03 0. -1.
     -623   -1    0    0    0    0  0.00000000000E+00  0.00000000000E+00  0.93234578044E-11  0.17124000000E+03  0.17124000000E+03 0.  1.
       11    1    1    2    0    0 -0.53432250091E-01  0.21246381203E-03  0.60693550712E+00  0.60928320305E+00  0.51109989000E-03 0. -1.
     -623    1    1    2    0    0  0.12703062229E-02  0.69263582697E-02  0.26313937807E-02  0.17124000017E+03  0.17124000000E+03 0.  1.
     -611    1    1    2    0    0  0.21562904345E-01 -0.26511562249E-02  0.19958921363E+01  0.19960104379E+01  0.51109989000E-03 0.  1.
      611    1    1    2    0    0  0.30599039489E-01 -0.44876658520E-02  0.28945409358E+01  0.28947061907E+01  0.51109989000E-03 0. -1.
</event>
<event>
 6   3  0.2312675E+03  0.9118800E+02  0.7818608E-02  0.1180000E+00
       11   -1    0    0    0    0  0.00000000000E+00  0.00000000000E+00  0.54999999763E+01  0.55000000000E+01  0.51109989000E-03 0.  1.
     -623   -1    0    0    0    0  0.00000000000E+00  0.00000000000E+00  0.93234578044E-11  0.17124000000E+03  0.17124000000E+03 0. -1.
       11    1    1    2    0    0  0.34302178504E-01 -0.34253915739E-01  0.10399219369E+01  0.10410513274E+01  0.51109989000E-03 0.  1.
     -623    1    1    2    0    0 -0.17641830772E-02 -0.23570494734E-01  0.22640198368E-02  0.17124000165E+03  0.17124000000E+03 0. -1.
     -611    1    1    2    0    0  0.21511458142E-01  0.10764162494E-01  0.18220502399E+01  0.18222090846E+01  0.51109989000E-03 0. -1.
      611    1    1    2    0    0 -0.54049453569E-01  0.47060247980E-01  0.26357637797E+01  0.26367379418E+01  0.51109989000E-03 0.  1.
</event>
<event>
 6   3  0.2312675E+03  0.9118800E+02  0.7818608E-02  0.1180000E+00
       11   -1    0    0    0    0  0.00000000000E+00  0.00000000000E+00  0.54999999763E+01  0.55000000000E+01  0.51109989000E-03 0.  1.
     -623   -1    0    0    0    0  0.00000000000E+00  0.00000000000E+00  0.93234578044E-11  0.17124000000E+03  0.17124000000E+03 0. -1.
       11    1    1    2    0    0 -0.41193472478E-01 -0.16740822330E-01  0.10223769278E+01  0.10233435400E+01  0.51109989000E-03 0.  1.
     -623    1    1    2    0    0  0.15306856795E-01 -0.14629157392E-01  0.16763936904E-02  0.17124000132E+03  0.17124000000E+03 0. -1.
     -611    1    1    2    0    0 -0.17023737271E-01 -0.85191715905E-02  0.15884071015E+01  0.15885212511E+01  0.51109989000E-03 0. -1.
      611    1    1    2    0    0  0.42910352953E-01  0.39889151313E-01  0.28875395533E+01  0.28881338916E+01  0.51109989000E-03 0.  1.
</event>
<event>
 6   3  0.2312675E+03  0.9118800E+02  0.7818608E-02  0.1180000E+00
       11   -1    0    0    0    0  0.00000000000E+00  0.00000000000E+00  0.54999999763E+01  0.55000000000E+01  0.51109989000E-03 0.  1.
     -623   -1    0    0    0    0  0.00000000000E+00  0.00000000000E+00  0.93234578044E-11  0.17124000000E+03  0.17124000000E+03 0. -1.
       11    1    1    2    0    0  0.36915643600E-01 -0.15977099674E-01  0.85290864073E+00  0.85385680480E+00  0.51109989000E-03 0.  1.
     -623    1    1    2    0    0  0.91471214856E-02  0.11896085153E-01  0.21956108269E-02  0.17124000067E+03  0.17124000000E+03 0. -1.
     -611    1    1    2    0    0 -0.73895190191E-01  0.10500180184E-01  0.26801056133E+01  0.26811447392E+01  0.51109989000E-03 0. -1.
      611    1    1    2    0    0  0.27832425105E-01 -0.64191656632E-02  0.19647901114E+01  0.19649977844E+01  0.51109989000E-03 0.  1.
</event>
<event>
 6   3  0.2312675E+03  0.9118800E+02  0.7818608E-02  0.1180000E+00
       11   -1    0    0    0    0  0.00000000000E+00  0.00000000000E+00  0.54999999763E+01  0.55000000000E+01  0.51109989000E-03 0. -1.
     -623   -1    0    0    0    0  0.00000000000E+00  0.00000000000E+00  0.93234578044E-11  0.17124000000E+03  0.17124000000E+03 0.  1.
       11    1    1    2    0    0  0.77346668481E-02  0.10741680471E-01  0.90624635509E+00  0.90634316134E+00  0.51109989000E-03 0. -1.
     -623    1    1    2    0    0 -0.61561384438E-01 -0.70768133812E-01  0.83033251729E-03  0.17124002569E+03  0.17124000000E+03 0.  1.
     -611    1    1    2    0    0  0.27172225273E-01  0.29972973596E-01  0.22753039994E+01  0.22756636966E+01  0.51109989000E-03 0. -1.
      611    1    1    2    0    0  0.26654491976E-01  0.30053479354E-01  0.23176192588E+01  0.23179674208E+01  0.51109989000E-03 0. -1.
</event>
<event>
 6   3  0.2312675E+03  0.9118800E+02  0.7818608E-02  0.1180000E+00
       11   -1    0    0    0    0  0.00000000000E+00  0.00000000000E+00  0.54999999763E+01  0.55000000000E+01  0.51109989000E-03 0. -1.
     -623   -1    0    0    0    0  0.00000000000E+00  0.00000000000E+00  0.93234578044E-11  0.17124000000E+03  0.17124000000E+03 0. -1.
       11    1    1    2    0    0  0.26102101493E-02  0.21412531552E-03  0.38425588404E-02  0.46781971115E-02  0.51109989000E-03 0. -1.
     -623    1    1    2    0    0 -0.20617481629E-02 -0.40157441699E-02  0.16805599087E-02  0.17124000007E+03  0.17124000000E+03 0. -1.
     -611    1    1    2    0    0  0.46389776864E-01  0.11601218200E-01  0.31394274318E+01  0.31397916269E+01  0.51109989000E-03 0. -1.
      611    1    1    2    0    0 -0.46938238850E-01 -0.77995993459E-02  0.23550494257E+01  0.23555301083E+01  0.51109989000E-03 0.  1.
</event>
<event>
 6   3  0.2312675E+03  0.9118800E+02  0.7818608E-02  0.1180000E+00
       11   -1    0    0    0    0  0.00000000000E+00  0.00000000000E+00  0.54999999763E+01  0.55000000000E+01  0.51109989000E-03 0.  1.
     -623   -1    0    0    0    0  0.00000000000E+00  0.00000000000E+00  0.93234578044E-11  0.17124000000E+03  0.17124000000E+03 0. -1.
       11    1    1    2    0    0 -0.49793265604E-02 -0.34149119308E-02  0.11238855534E-01  0.12768258037E-01  0.51109989000E-03 0.  1.
     -623    1    1    2    0    0  0.54385081285E-02  0.18413408121E-02  0.26608604842E-02  0.17124000012E+03  0.17124000000E+03 0. -1.
     -611    1    1    2    0    0 -0.37967835397E-01  0.39228279141E-01  0.34762327711E+01  0.34766614668E+01  0.51109989000E-03 0.  1.
      611    1    1    2    0    0  0.37508653829E-01 -0.37654708022E-01  0.20098674891E+01  0.20105701582E+01  0.51109989000E-03 0. -1.
</event>
<event>
 6   3  0.2312675E+03  0.9118800E+02  0.7818608E-02  0.1180000E+00
       11   -1    0    0    0    0  0.00000000000E+00  0.00000000000E+00  0.54999999763E+01  0.55000000000E+01  0.51109989000E-03 0.  1.
     -623   -1    0    0    0    0  0.00000000000E+00  0.00000000000E+00  0.93234578044E-11  0.17124000000E+03  0.17124000000E+03 0.  1.
       11    1    1    2    0    0  0.10734302354E-01 -0.51503798978E-02  0.62435533968E+00  0.62446905694E+00  0.51109989000E-03 0.  1.
     -623    1    1    2    0    0  0.71216830574E-03  0.93647122314E-03  0.87313438948E-03  0.17124000001E+03  0.17124000000E+03 0.  1.
     -611    1    1    2    0    0 -0.36681331602E-01  0.27452953360E-01  0.36217022427E+01  0.36219920735E+01  0.51109989000E-03 0.  1.
      611    1    1    2    0    0  0.25234860942E-01 -0.23239044685E-01  0.12530692596E+01  0.12535388634E+01  0.51109989000E-03 0. -1.
</event>
<event>
 6   3  0.2312675E+03  0.9118800E+02  0.7818608E-02  0.1180000E+00
       11   -1    0    0    0    0  0.00000000000E+00  0.00000000000E+00  0.54999999763E+01  0.55000000000E+01  0.51109989000E-03 0. -1.
     -623   -1    0    0    0    0  0.00000000000E+00  0.00000000000E+00  0.93234578044E-11  0.17124000000E+03  0.17124000000E+03 0.  1.
       11    1    1    2    0    0 -0.36437384528E-01 -0.46091168668E-01  0.90935122547E+00  0.91124749180E+00  0.51109989000E-03 0. -1.
     -623    1    1    2    0    0  0.15865403992E+00  0.12865954974E-01  0.42408229076E-02  0.17124007403E+03  0.17124000000E+03 0.  1.
     -611    1    1    2    0    0 -0.67228827815E-01  0.13007554353E-01  0.35171738235E+01  0.35178403713E+01  0.51109989000E-03 0. -1.
      611    1    1    2    0    0 -0.54987827573E-01  0.20217659340E-01  0.10692341044E+01  0.10708381045E+01  0.51109989000E-03 0.  1.
</event>
<event>
 6   3  0.2312675E+03  0.9118800E+02  0.7818608E-02  0.1180000E+00
       11   -1    0    0    0    0  0.00000000000E+00  0.00000000000E+00  0.54999999763E+01  0.55000000000E+01  0.51109989000E-03 0. -1.
     -623   -1    0    0    0    0  0.00000000000E+00  0.00000000000E+00  0.93234578044E-11  0.17124000000E+03  0.17124000000E+03 0.  1.
       11    1    1    2    0    0  0.35902737807E-02 -0.76261822584E-02  0.34995506216E+00  0.35005693177E+00  0.51109989000E-03 0. -1.
     -623    1    1    2    0    0  0.60167613507E-01  0.22112265238E-01  0.58761268817E-03  0.17124001200E+03  0.17124000000E+03 0.  1.
     -611    1    1    2    0    0 -0.55218549662E-01 -0.41864638261E-02  0.44597273072E+01  0.44600711351E+01  0.51109989000E-03 0. -1.
      611    1    1    2    0    0 -0.85393376241E-02 -0.10299619153E-01  0.68972999405E+00  0.68985993387E+00  0.51109989000E-03 0.  1.
</event>
<event>
 6   3  0.2312675E+03  0.9118800E+02  0.7818608E-02  0.1180000E+00
       11   -1    0    0    0    0  0.00000000000E+00  0.00000000000E+00  0.54999999763E+01  0.55000000000E+01  0.51109989000E-03 0.  1.
     -623   -1    0    0    0    0  0.00000000000E+00  0.00000000000E+00  0.93234578044E-11  0.17124000000E+03  0.17124000000E+03 0. -1.
       11    1    1    2    0    0 -0.97428585670E-01 -0.17922073246E-01  0.90308500259E+00  0.90850223618E+00  0.51109989000E-03 0.  1.
     -623    1    1    2    0    0 -0.28653223971E-01 -0.95178246251E-02  0.72355001735E-02  0.17124000281E+03  0.17124000000E+03 0. -1.
     -611    1    1    2    0    0  0.69764599518E-01  0.17111803907E-01  0.25854141627E+01  0.25864119098E+01  0.51109989000E-03 0.  1.
      611    1    1    2    0    0  0.56317210138E-01  0.10328093968E-01  0.20042653114E+01  0.20050830400E+01  0.51109989000E-03 0.  1.
</event>
<event>
 6   3  0.2312675E+03  0.9118800E+02  0.7818608E-02  0.1180000E+00
       11   -1    0    0    0    0  0.00000000000E+00  0.00000000000E+00  0.54999999763E+01  0.55000000000E+01  0.51109989000E-03 0. -1.
     -623   -1    0    0    0    0  0.00000000000E+00  0.00000000000E+00  0.93234578044E-11  0.17124000000E+03  0.17124000000E+03 0. -1.
       11    1    1    2    0    0  0.27932546402E-01  0.53582993789E-01  0.21666685556E+00  0.22493588396E+00  0.51109989000E-03 0. -1.
     -623    1    1    2    0    0  0.28468237202E-01 -0.32928936189E-01  0.86170420285E-02  0.17124000575E+03  0.17124000000E+03 0. -1.
     -611    1    1    2    0    0 -0.25418857115E-01 -0.89720768274E-02  0.24285178543E+01  0.24286675043E+01  0.51109989000E-03 0. -1.
      611    1    1    2    0    0 -0.30981926499E-01 -0.11681980777E-01  0.28461982253E+01  0.28463908634E+01  0.51109989000E-03 0.  1.
</event>
<event>
 6   3  0.2312675E+03  0.9118800E+02  0.7818608E-02  0.1180000E+00
       11   -1    0    0    0    0  0.00000000000E+00  0.00000000000E+00  0.54999999763E+01  0.55000000000E+01  0.51109989000E-03 0.  1.
     -623   -1    0    0    0    0  0.00000000000E+00  0.00000000000E+00  0.93234578044E-11  0.17124000000E+03  0.17124000000E+03 0. -1.
       11    1    1    2    0    0  0.10206108935E-01 -0.62445720772E-02  0.14532558776E-01  0.18831246047E-01  0.51109989000E-03 0.  1.
     -623    1    1    2    0    0 -0.18326958200E-01 -0.67991596469E-03  0.78663726579E-02  0.17124000116E+03  0.17124000000E+03 0. -1.
     -611    1    1    2    0    0 -0.68646273070E-01 -0.11631394273E-02  0.80317927233E+00  0.80610847187E+00  0.51109989000E-03 0. -1.
      611    1    1    2    0    0  0.76767122334E-01  0.80876274692E-02  0.46744217725E+01  0.46750591193E+01  0.51109989000E-03 0.  1.
</event>
<event>
 6   3  0.2312675E+03  0.9118800E+02  0.7818608E-02  0.1180000E+00
       11   -1    0    0    0    0  0.00000000000E+00  0.00000000000E+00  0.54999999763E+01  0.55000000000E+01  0.51109989000E-03 0. -1.
     -623   -1    0    0    0    0  0.00000000000E+00  0.00000000000E+00  0.93234578044E-11  0.17124000000E+03  0.17124000000E+03 0.  1.
       11    1    1    2    0    0  0.83908740550E-01 -0.47544828251E-01  0.10850609822E+01  0.10893386910E+01  0.51109989000E-03 0. -1.
     -623    1    1    2    0    0 -0.49124153171E-02 -0.97945448658E-02  0.55978900451E-02  0.17124000044E+03  0.17124000000E+03 0.  1.
     -611    1    1    2    0    0 -0.53169228830E-01  0.36898931568E-01  0.36881793061E+01  0.36887471251E+01  0.51109989000E-03 0. -1.
      611    1    1    2    0    0 -0.25827096403E-01  0.20440441549E-01  0.72116179790E+00  0.72191374175E+00  0.51109989000E-03 0.  1.
</event>
<event>
 6   3  0.2312675E+03  0.9118800E+02  0.7818608E-02  0.1180000E+00
       11   -1    0    0    0    0  0.00000000000E+00  0.00000000000E+00  0.54999999763E+01  0.55000000000E+01  0.51109989000E-03 0.  1.
     -623   -1    0    0    0    0  0.00000000000E+00  0.00000000000E+00  0.93234578044E-11  0.17124000000E+03  0.17124000000E+03 0. -1.
       11    1    1    2    0    0  0.19577476284E-01  0.60620248575E-01  0.21518901775E+00  0.22442073589E+00  0.51109989000E-03 0.  1.
     -623    1    1    2    0    0 -0.53182725168E-01 -0.17123381136E-01  0.11905996478E-01  0.17124000953E+03  0.17124000000E+03 0. -1.
     -611    1    1    2    0    0  0.91408391612E-01 -0.13731007440E-03  0.34986029480E+01  0.34997969030E+01  0.51109989000E-03 0.  1.
      611    1    1    2    0    0 -0.57803142727E-01 -0.43359557365E-01  0.17743020140E+01  0.17757728325E+01  0.51109989000E-03 0. -1.
</event>
<event>
 6   3  0.2312675E+03  0.9118800E+02  0.7818608E-02  0.1180000E+00
       11   -1    0    0    0    0  0.00000000000E+00  0.00000000000E+00  0.54999999763E+01  0.55000000000E+01  0.51109989000E-03 0. -1.
     -623   -1    0    0    0    0  0.00000000000E+00  0.00000000000E+00  0.93234578044E-11  0.17124000000E+03  0.17124000000E+03 0.  1.
       11    1    1    2    0    0  0.25941758641E-01  0.62992993448E-02  0.10195276213E+01  0.10198771925E+01  0.51109989000E-03 0. -1.
     -623    1    1    2    0    0  0.24029299965E-01  0.11928886021E-01  0.69147629088E-03  0.17124000210E+03  0.17124000000E+03 0.  1.
     -611    1    1    2    0    0 -0.13589482631E-01  0.16671465872E-02  0.11489086163E+01  0.11489903060E+01  0.51109989000E-03 0.  1.
      611    1    1    2    0    0 -0.36381575976E-01 -0.19895331953E-01  0.33308722626E+01  0.33311303988E+01  0.51109989000E-03 0. -1.
</event>
<event>
 6   3  0.2312675E+03  0.9118800E+02  0.7818608E-02  0.1180000E+00
       11   -1    0    0    0    0  0.00000000000E+00  0.00000000000E+00  0.54999999763E+01  0.55000000000E+01  0.51109989000E-03 0.  1.
     -623   -1    0    0    0    0  0.00000000000E+00  0.00000000000E+00  0.93234578044E-11  0.17124000000E+03  0.17124000000E+03 0. -1.
       11    1    1    2    0    0 -0.56061633076E-01 -0.90041726719E-02  0.51647541265E+00  0.51958742760E+00  0.51109989000E-03 0.  1.
     -623    1    1    2    0    0 -0.11140270445E-01  0.12325690198E-01  0.36399403577E-02  0.17124000084E+03  0.17124000000E+03 0. -1.
     -611    1    1    2    0    0  0.55101585905E-01  0.74894109983E-02  0.41029056882E+01  0.41032825425E+01  0.51109989000E-03 0.  1.
      611    1    1    2    0    0  0.12100317615E-01 -0.10810928525E-01  0.87697893507E+00  0.87712918526E+00  0.51109989000E-03 0. -1.
</event>
<event>
 6   3  0.2312675E+03  0.9118800E+02  0.7818608E-02  0.1180000E+00
       11   -1    0    0    0    0  0.00000000000E+00  0.00000000000E+00  0.54999999763E+01  0.55000000000E+01  0.51109989000E-03 0.  1.
     -623   -1    0    0    0    0  0.00000000000E+00  0.00000000000E+00  0.93234578044E-11  0.17124000000E+03  0.17124000000E+03 0.  1.
       11    1    1    2    0    0 -0.15561364704E-01  0.25408798685E-01  0.30232320816E-01  0.42450177468E-01  0.51109989000E-03 0.  1.
     -623    1    1    2    0    0 -0.13672793867E-02  0.64800743059E-02  0.13324868695E-01  0.17124000065E+03  0.17124000000E+03 0.  1.
     -611    1    1    2    0    0 -0.24672611503E-01  0.27695254192E-01  0.19666329537E+01  0.19669827657E+01  0.51109989000E-03 0.  1.
      611    1    1    2    0    0  0.41601255593E-01 -0.59584127183E-01  0.34898098331E+01  0.34905664103E+01  0.51109989000E-03 0. -1.
</event>
<event>
 6   3  0.2312675E+03  0.9118800E+02  0.7818608E-02  0.1180000E+00
       11   -1    0    0    0    0  0.00000000000E+00  0.00000000000E+00  0.54999999763E+01  0.55000000000E+01  0.51109989000E-03 0.  1.
     -623   -1    0    0    0    0  0.00000000000E+00  0.00000000000E+00  0.93234578044E-11  0.17124000000E+03  0.17124000000E+03 0.  1.
       11    1    1    2    0    0  0.55321892442E-02  0.44607761068E-02  0.10975296345E+01  0.10975527612E+01  0.51109989000E-03 0.  1.
     -623    1    1    2    0    0  0.48879867077E-01  0.26185515329E-01  0.47536427527E-03  0.17124000898E+03  0.17124000000E+03 0.  1.
     -611    1    1    2    0    0 -0.11900804459E-01 -0.72625564433E-02  0.97360109307E+00  0.97370104422E+00  0.51109989000E-03 0.  1.
      611    1    1    2    0    0 -0.42511251865E-01 -0.23383734994E-01  0.34283938844E+01  0.34287372156E+01  0.51109989000E-03 0.  1.
</event>
<event>
 6   3  0.2312675E+03  0.9118800E+02  0.7818608E-02  0.1180000E+00
       11   -1    0    0    0    0  0.00000000000E+00  0.00000000000E+00  0.54999999763E+01  0.55000000000E+01  0.51109989000E-03 0. -1.
     -623   -1    0    0    0    0  0.00000000000E+00  0.00000000000E+00  0.93234578044E-11  0.17124000000E+03  0.17124000000E+03 0. -1.
       11    1    1    2    0    0 -0.34262051735E-01  0.64439976091E-02  0.10382064733E+01  0.10387917769E+01  0.51109989000E-03 0. -1.
     -623    1    1    2    0    0  0.17877567598E-01  0.27030076830E-02  0.23565874079E-02  0.17124000097E+03  0.17124000000E+03 0. -1.
     -611    1    1    2    0    0  0.38795211808E-01  0.38612021751E-01  0.34150243918E+01  0.34154630454E+01  0.51109989000E-03 0. -1.
      611    1    1    2    0    0 -0.22410727671E-01 -0.47759027043E-01  0.10444125237E+01  0.10457442069E+01  0.51109989000E-03 0.  1.
</event>
<event>
 6   3  0.2312675E+03  0.9118800E+02  0.7818608E-02  0.1180000E+00
       11   -1    0    0    0    0  0.00000000000E+00  0.00000000000E+00  0.54999999763E+01  0.55000000000E+01  0.51109989000E-03 0.  1.
     -623   -1    0    0    0    0  0.00000000000E+00  0.00000000000E+00  0.93234578044E-11  0.17124000000E+03  0.17124000000E+03 0. -1.
       11    1    1    2    0    0  0.25535839270E-01 -0.95152598850E-02  0.91216502771E-01  0.95201527607E-01  0.51109989000E-03 0.  1.
     -623    1    1    2    0    0  0.74937201244E-01  0.34260409171E-01  0.60282444657E-02  0.17124001993E+03  0.17124000000E+03 0. -1.
     -611    1    1    2    0    0 -0.48830088617E-01  0.27577001892E-01  0.37145149296E+01  0.37149382622E+01  0.51109989000E-03 0.  1.
      611    1    1    2    0    0 -0.51642951898E-01 -0.52322151178E-01  0.16882402994E+01  0.16898402800E+01  0.51109989000E-03 0. -1.
</event>
<event>
 6   3  0.2312675E+03  0.9118800E+02  0.7818608E-02  0.1180000E+00
       11   -1    0    0    0    0  0.00000000000E+00  0.00000000000E+00  0.54999999763E+01  0.55000000000E+01  0.51109989000E-03 0. -1.
     -623   -1    0    0    0    0  0.00000000000E+00  0.00000000000E+00  0.93234578044E-11  0.17124000000E+03  0.17124000000E+03 0. -1.
       11    1    1    2    0    0  0.34494951599E-01  0.97091398710E-02  0.47310682137E+00  0.47446232172E+00  0.51109989000E-03 0. -1.
     -623    1    1    2    0    0 -0.98891497745E-01 -0.25036768827E-01  0.18239687507E-02  0.17124003040E+03  0.17124000000E+03 0. -1.
     -611    1    1    2    0    0  0.24064884616E-01  0.79646445144E-02  0.19078267170E+01  0.19079951776E+01  0.51109989000E-03 0.  1.
      611    1    1    2    0    0  0.40331661532E-01  0.73629844422E-02  0.31172424693E+01  0.31175121059E+01  0.51109989000E-03 0. -1.
</event>
<event>
 6   3  0.2312675E+03  0.9118800E+02  0.7818608E-02  0.1180000E+00
       11   -1    0    0    0    0  0.00000000000E+00  0.00000000000E+00  0.54999999763E+01  0.55000000000E+01  0.51109989000E-03 0. -1.
     -623   -1    0    0    0    0  0.00000000000E+00  0.00000000000E+00  0.93234578044E-11  0.17124000000E+03  0.17124000000E+03 0.  1.
       11    1    1    2    0    0  0.96637462836E-02 -0.38395187167E-02  0.53997373207E-02  0.11728097989E-01  0.51109989000E-03 0. -1.
     -623    1    1    2    0    0 -0.22723866665E-01  0.16016070678E-02  0.80388024108E-02  0.17124000170E+03  0.17124000000E+03 0.  1.
     -611    1    1    2    0    0  0.67716048622E-01  0.29169849115E-01  0.24993514290E+01  0.25004387956E+01  0.51109989000E-03 0.  1.
      611    1    1    2    0    0 -0.54655928240E-01 -0.26931937466E-01  0.29872100075E+01  0.29878314025E+01  0.51109989000E-03 0. -1.
</event>
<event>
 6   3  0.2312675E+03  0.9118800E+02  0.7818608E-02  0.1180000E+00
       11   -1    0    0    0    0  0.00000000000E+00  0.00000000000E+00  0.54999999763E+01  0.55000000000E+01  0.51109989000E-03 0.  1.
     -623   -1    0    0    0    0  0.00000000000E+00  0.00000000000E+00  0.93234578044E-11  0.17124000000E+03  0.17124000000E+03 0.  1.
       11    1    1    2    0    0  0.33449556824E-02 -0.22543563302E-01  0.24350608386E+00  0.24457079767E+00  0.51109989000E-03 0.  1.
     -623    1    1    2    0    0 -0.67039025416E-02  0.95962320043E-02  0.16224750320E-02  0.17124000041E+03  0.17124000000E+03 0.  1.
     -611    1    1    2    0    0  0.36353474641E-01  0.21194919292E-01  0.31830917711E+01  0.31833699572E+01  0.51109989000E-03 0.  1.
      611    1    1    2    0    0 -0.32994527782E-01 -0.82475879943E-02  0.20717796462E+01  0.20720588373E+01  0.51109989000E-03 0. -1.
</event>
<event>
 6   3  0.2312675E+03  0.9118800E+02  0.7818608E-02  0.1180000E+00
       11   -1    0    0    0    0  0.00000000000E+00  0.00000000000E+00  0.54999999763E+01  0.55000000000E+01  0.51109989000E-03 0.  1.
     -623   -1    0    0    0    0  0.00000000000E+00  0.00000000000E+00  0.93234578044E-11  0.17124000000E+03  0.17124000000E+03 0.  1.
       11    1    1    2    0    0  0.94719856313E-02 -0.39408993049E-01  0.12280341589E+00  0.12932025140E+00  0.51109989000E-03 0.  1.
     -623    1    1    2    0    0  0.13417908538E-01 -0.27716534549E-02  0.74422127360E-02  0.17124000071E+03  0.17124000000E+03 0.  1.
     -611    1    1    2    0    0  0.26035787610E-01 -0.17403956732E-02  0.74436600572E+00  0.74482340384E+00  0.51109989000E-03 0. -1.
      611    1    1    2    0    0 -0.48925681779E-01  0.43921042177E-01  0.46253883419E+01  0.46258556349E+01  0.51109989000E-03 0.  1.
</event>
<event>
 6   3  0.2312675E+03  0.9118800E+02  0.7818608E-02  0.1180000E+00
       11   -1    0    0    0    0  0.00000000000E+00  0.00000000000E+00  0.54999999763E+01  0.55000000000E+01  0.51109989000E-03 0. -1.
     -623   -1    0    0    0    0  0.00000000000E+00  0.00000000000E+00  0.93234578044E-11  0.17124000000E+03  0.17124000000E+03 0. -1.
       11    1    1    2    0    0  0.82087861176E-01 -0.30465029595E-01  0.55417595901E+00  0.56105061247E+00  0.51109989000E-03 0. -1.
     -623    1    1    2    0    0 -0.12468332358E-01 -0.24953249234E-01  0.76817425400E-02  0.17124000244E+03  0.17124000000E+03 0. -1.
     -611    1    1    2    0    0 -0.10324219473E-01  0.61963038927E-02  0.71561933704E+00  0.71572081181E+00  0.51109989000E-03 0.  1.
      611    1    1    2    0    0 -0.59295309347E-01  0.49221974937E-01  0.42225229378E+01  0.42232261315E+01  0.51109989000E-03 0. -1.
</event>
<event>
 6   3  0.2312675E+03  0.9118800E+02  0.7818608E-02  0.1180000E+00
       11   -1    0    0    0    0  0.00000000000E+00  0.00000000000E+00  0.54999999763E+01  0.55000000000E+01  0.51109989000E-03 0. -1.
     -623   -1    0    0    0    0  0.00000000000E+00  0.00000000000E+00  0.93234578044E-11  0.17124000000E+03  0.17124000000E+03 0.  1.
       11    1    1    2    0    0  0.18417687386E-01  0.22152057769E-02  0.11753094705E-01  0.21966219600E-01  0.51109989000E-03 0. -1.
     -623    1    1    2    0    0  0.55214461285E-02  0.16814551752E-01  0.11735634139E-01  0.17124000132E+03  0.17124000000E+03 0.  1.
     -611    1    1    2    0    0  0.37295968555E-01  0.24833786700E-01  0.31097491307E+01  0.31100719643E+01  0.51109989000E-03 0.  1.
      611    1    1    2    0    0 -0.61235102069E-01 -0.43863544229E-01  0.23667621167E+01  0.23679604994E+01  0.51109989000E-03 0. -1.
</event>
<event>
 6   3  0.2312675E+03  0.9118800E+02  0.7818608E-02  0.1180000E+00
       11   -1    0    0    0    0  0.00000000000E+00  0.00000000000E+00  0.54999999763E+01  0.55000000000E+01  0.51109989000E-03 0.  1.
     -623   -1    0    0    0    0  0.00000000000E+00  0.00000000000E+00  0.93234578044E-11  0.17124000000E+03  0.17124000000E+03 0.  1.
       11    1    1    2    0    0 -0.36948023037E-01 -0.49314207422E-01  0.54821529321E+00  0.55166775906E+00  0.51109989000E-03 0.  1.
     -623    1    1    2    0    0 -0.20576702519E-01  0.17908917605E-01  0.38891989899E-02  0.17124000222E+03  0.17124000000E+03 0.  1.
     -611    1    1    2    0    0  0.41234706108E-01  0.23362151612E-01  0.35453881379E+01  0.35457049230E+01  0.51109989000E-03 0.  1.
      611    1    1    2    0    0  0.16290019440E-01  0.80431382005E-02  0.14025073455E+01  0.14026251003E+01  0.51109989000E-03 0. -1.
</event>
<event>
 6   3  0.2312675E+03  0.9118800E+02  0.7818608E-02  0.1180000E+00
       11   -1    0    0    0    0  0.00000000000E+00  0.00000000000E+00  0.54999999763E+01  0.55000000000E+01  0.51109989000E-03 0. -1.
     -623   -1    0    0    0    0  0.00000000000E+00  0.00000000000E+00  0.93234578044E-11  0.17124000000E+03  0.17124000000E+03 0. -1.
       11    1    1    2    0    0  0.56762867420E-03 -0.96977666314E-02  0.39344422032E+00  0.39356446055E+00  0.51109989000E-03 0. -1.
     -623    1    1    2    0    0 -0.84757724943E-02  0.58920076973E-02  0.63779018094E-03  0.17124000031E+03  0.17124000000E+03 0. -1.
     -611    1    1    2    0    0  0.39856469402E-01 -0.30385499482E-02  0.27388562646E+01  0.27391479825E+01  0.51109989000E-03 0.  1.
      611    1    1    2    0    0 -0.31948325582E-01  0.68443088825E-02  0.23670617011E+01  0.23672872445E+01  0.51109989000E-03 0. -1.
</event>
<event>
 6   3  0.2312675E+03  0.9118800E+02  0.7818608E-02  0.1180000E+00
       11   -1    0    0    0    0  0.00000000000E+00  0.00000000000E+00  0.54999999763E+01  0.55000000000E+01  0.51109989000E-03 0. -1.
     -623   -1    0    0    0    0  0.00000000000E+00  0.00000000000E+00  0.93234578044E-11  0.17124000000E+03  0.17124000000E+03 0. -1.
       11    1    1    2    0    0 -0.36081773214E-01 -0.98903721675E-02  0.15072682887E+00  0.15530148738E+00  0.51109989000E-03 0. -1.
     -623    1    1    2    0    0 -0.45334482058E-01  0.14587114398E-02  0.52190793564E-02  0.17124000609E+03  0.17124000000E+03 0. -1.
     -611    1    1    2    0    0  0.67479005075E-02 -0.20358150175E-02  0.55131563194E+00  0.55136092167E+00  0.51109989000E-03 0.  1.
      611    1    1    2    0    0  0.74668354764E-01  0.10467475745E-01  0.47927384360E+01  0.47933315041E+01  0.51109989000E-03 0. -1.
</event>
<event>
 6   3  0.2312675E+03  0.9118800E+02  0.7818608E-02  0.1180000E+00
       11   -1    0    0    0    0  0.00000000000E+00  0.00000000000E+00  0.54999999763E+01  0.55000000000E+01  0.51109989000E-03 0. -1.
     -623   -1    0    0    0    0  0.00000000000E+00  0.00000000000E+00  0.93234578044E-11  0.17124000000E+03  0.17124000000E+03 0.  1.
       11    1    1    2    0    0 -0.41738517837E-01 -0.70786978991E-02  0.75069776808E+00  0.75189069157E+00  0.51109989000E-03 0. -1.
     -623    1    1    2    0    0 -0.65557080699E-02  0.94635879942E-02  0.14397175403E-02  0.17124000039E+03  0.17124000000E+03 0.  1.
     -611    1    1    2    0    0  0.32627289621E-01 -0.15562697214E-02  0.32481813663E+01  0.32483456423E+01  0.51109989000E-03 0. -1.
      611    1    1    2    0    0  0.15666936311E-01 -0.82862037485E-03  0.14996811268E+01  0.14997632756E+01  0.51109989000E-03 0.  1.
</event>
<event>
 6   3  0.2312675E+03  0.9118800E+02  0.7818608E-02  0.1180000E+00
       11   -1    0    0    0    0  0.00000000000E+00  0.00000000000E+00  0.54999999763E+01  0.55000000000E+01  0.51109989000E-03 0.  1.
     -623   -1    0    0    0    0  0.00000000000E+00  0.00000000000E+00  0.93234578044E-11  0.17124000000E+03  0.17124000000E+03 0. -1.
       11    1    1    2    0    0  0.61417903768E-01 -0.45017752365E-02  0.76303391895E+00  0.76551515176E+00  0.51109989000E-03 0.  1.
     -623    1    1    2    0    0 -0.77701009482E-02  0.22989835530E-03  0.27874890328E-02  0.17124000020E+03  0.17124000000E+03 0. -1.
     -611    1    1    2    0    0 -0.34703082446E-01  0.24539022765E-02  0.30821008855E+01  0.30822972691E+01  0.51109989000E-03 0.  1.
      611    1    1    2    0    0 -0.18944720455E-01  0.18179746112E-02  0.16520776899E+01  0.16521873871E+01  0.51109989000E-03 0. -1.
</event>
<event>
 6   3  0.2312675E+03  0.9118800E+02  0.7818608E-02  0.1180000E+00
       11   -1    0    0    0    0  0.00000000000E+00  0.00000000000E+00  0.54999999763E+01  0.55000000000E+01  0.51109989000E-03 0.  1.
     -623   -1    0    0    0    0  0.00000000000E+00  0.00000000000E+00  0.93234578044E-11  0.17124000000E+03  0.17124000000E+03 0.  1.
       11    1    1    2    0    0 -0.47171809315E-02 -0.43558089348E-03  0.37343175529E+00  0.37346215150E+00  0.51109989000E-03 0.  1.
     -623    1    1    2    0    0  0.62911383704E-01 -0.13829836745E-01  0.39306977029E-03  0.17124001212E+03  0.17124000000E+03 0.  1.
     -611    1    1    2    0    0 -0.81986416454E-02  0.14996541661E-02  0.72397631099E+00  0.72402446560E+00  0.51109989000E-03 0. -1.
      611    1    1    2    0    0 -0.49995561322E-01  0.12765763515E-01  0.44021988572E+01  0.44025012846E+01  0.51109989000E-03 0.  1.
</event>
<event>
 6   3  0.2312675E+03  0.9118800E+02  0.7818608E-02  0.1180000E+00
       11   -1    0    0    0    0  0.00000000000E+00  0.00000000000E+00  0.54999999763E+01  0.55000000000E+01  0.51109989000E-03 0.  1.
     -623   -1    0    0    0    0  0.00000000000E+00  0.00000000000E+00  0.93234578044E-11  0.17124000000E+03  0.17124000000E+03 0. -1.
       11    1    1    2    0    0 -0.72899732348E-02  0.22418942733E-01  0.17089914171E-01  0.29121797549E-01  0.51109989000E-03 0.  1.
     -623    1    1    2    0    0  0.24142941407E-02  0.17226486714E-01  0.15040081826E-01  0.17124000154E+03  0.17124000000E+03 0. -1.
     -611    1    1    2    0    0  0.78699600216E-01 -0.24931784372E-01  0.41755734271E+01  0.41763894607E+01  0.51109989000E-03 0.  1.
      611    1    1    2    0    0 -0.73823921122E-01 -0.14713645075E-01  0.12922965531E+01  0.12944871977E+01  0.51109989000E-03 0. -1.
</event>
<event>
 6   3  0.2312675E+03  0.9118800E+02  0.7818608E-02  0.1180000E+00
       11   -1    0    0    0    0  0.00000000000E+00  0.00000000000E+00  0.54999999763E+01  0.55000000000E+01  0.51109989000E-03 0. -1.
     -623   -1    0    0    0    0  0.00000000000E+00  0.00000000000E+00  0.93234578044E-11  0.17124000000E+03  0.17124000000E+03 0.  1.
       11    1    1    2    0    0 -0.95621322687E-02 -0.39359945838E-01  0.50244335411E+00  0.50407363056E+00  0.51109989000E-03 0. -1.
     -623    1    1    2    0    0  0.21738651949E-02  0.35997002106E-02  0.33527672476E-02  0.17124000008E+03  0.17124000000E+03 0.  1.
     -611    1    1    2    0    0 -0.50391789408E-01  0.31623346590E-02  0.33556857592E+01  0.33560656293E+01  0.51109989000E-03 0. -1.
      611    1    1    2    0    0  0.57780056482E-01  0.32597910968E-01  0.16385180957E+01  0.16398606557E+01  0.51109989000E-03 0.  1.
</event>
<event>
 6   3  0.2312675E+03  0.9118800E+02  0.7818608E-02  0.1180000E+00
       11   -1    0    0    0    0  0.00000000000E+00  0.00000000000E+00  0.54999999763E+01  0.55000000000E+01  0.51109989000E-03 0.  1.
     -623   -1    0    0    0    0  0.00000000000E+00  0.00000000000E+00  0.93234578044E-11  0.17124000000E+03  0.17124000000E+03 0. -1.
       11    1    1    2    0    0 -0.31818160054E-01 -0.14805237968E-01  0.49464849074E+00  0.49589210621E+00  0.51109989000E-03 0.  1.
     -623    1    1    2    0    0  0.74895742338E-03 -0.32189788695E-02  0.18164299790E-02  0.17124000004E+03  0.17124000000E+03 0. -1.
     -611    1    1    2    0    0 -0.16864695810E-01 -0.96830652384E-02  0.99213369582E+00  0.99232439823E+00  0.51109989000E-03 0. -1.
      611    1    1    2    0    0  0.47933898440E-01  0.27707282076E-01  0.40114013597E+01  0.40117834540E+01  0.51109989000E-03 0.  1.
</event>
<event>
 6   3  0.2312675E+03  0.9118800E+02  0.7818608E-02  0.1180000E+00
       11   -1    0    0    0    0  0.00000000000E+00  0.00000000000E+00  0.54999999763E+01  0.55000000000E+01  0.51109989000E-03 0. -1.
     -623   -1    0    0    0    0  0.00000000000E+00  0.00000000000E+00  0.93234578044E-11  0.17124000000E+03  0.17124000000E+03 0.  1.
       11    1    1    2    0    0  0.32106254522E-03  0.16534834639E-01  0.97485471174E+00  0.97499511489E+00  0.51109989000E-03 0. -1.
     -623    1    1    2    0    0  0.52102351851E-01 -0.49449612773E-02  0.47050912372E-03  0.17124000800E+03  0.17124000000E+03 0.  1.
     -611    1    1    2    0    0 -0.14417714891E-01 -0.68869398506E-03  0.11769631879E+01  0.11770518051E+01  0.51109989000E-03 0.  1.
      611    1    1    2    0    0 -0.38005699510E-01 -0.10901179378E-01  0.33477115679E+01  0.33479450820E+01  0.51109989000E-03 0. -1.
</event>
<event>
 6   3  0.2312675E+03  0.9118800E+02  0.7818608E-02  0.1180000E+00
       11   -1    0    0    0    0  0.00000000000E+00  0.00000000000E+00  0.54999999763E+01  0.55000000000E+01  0.51109989000E-03 0.  1.
     -623   -1    0    0    0    0  0.00000000000E+00  0.00000000000E+00  0.93234578044E-11  0.17124000000E+03  0.17124000000E+03 0.  1.
       11    1    1    2    0    0  0.12266817570E-02  0.68191543590E-02  0.38124028121E-01  0.38751881988E-01  0.51109989000E-03 0.  1.
     -623    1    1    2    0    0 -0.10452844521E+00  0.20743363112E-01  0.17078002282E-02  0.17124003317E+03  0.17124000000E+03 0.  1.
     -611    1    1    2    0    0  0.47379472943E-01 -0.12382649158E-01  0.25142782240E+01  0.25147551359E+01  0.51109989000E-03 0. -1.
      611    1    1    2    0    0  0.55922290773E-01 -0.15179868384E-01  0.29458899379E+01  0.29464598281E+01  0.51109989000E-03 0.  1.
</event>
<event>
 6   3  0.2312675E+03  0.9118800E+02  0.7818608E-02  0.1180000E+00
       11   -1    0    0    0    0  0.00000000000E+00  0.00000000000E+00  0.54999999763E+01  0.55000000000E+01  0.51109989000E-03 0.  1.
     -623   -1    0    0    0    0  0.00000000000E+00  0.00000000000E+00  0.93234578044E-11  0.17124000000E+03  0.17124000000E+03 0. -1.
       11    1    1    2    0    0 -0.90314389343E-03 -0.15789888132E-01  0.48502975021E-01  0.51018977304E-01  0.51109989000E-03 0.  1.
     -623    1    1    2    0    0  0.87202061309E-02  0.66763758801E-02  0.44423039784E-02  0.17124000041E+03  0.17124000000E+03 0. -1.
     -611    1    1    2    0    0 -0.48776627741E-01  0.58069849784E-01  0.22209395330E+01  0.22222339970E+01  0.51109989000E-03 0. -1.
      611    1    1    2    0    0  0.40959565504E-01 -0.48956337532E-01  0.32261151642E+01  0.32267466159E+01  0.51109989000E-03 0.  1.
</event>
<event>
 6   3  0.2312675E+03  0.9118800E+02  0.7818608E-02  0.1180000E+00
       11   -1    0    0    0    0  0.00000000000E+00  0.00000000000E+00  0.54999999763E+01  0.55000000000E+01  0.51109989000E-03 0. -1.
     -623   -1    0    0    0    0  0.00000000000E+00  0.00000000000E+00  0.93234578044E-11  0.17124000000E+03  0.17124000000E+03 0. -1.
       11    1    1    2    0    0  0.92983075740E-01 -0.43628445435E-01  0.58238401611E+00  0.59137187714E+00  0.51109989000E-03 0. -1.
     -623    1    1    2    0    0 -0.60994505505E-02 -0.22372404061E-02  0.99725187169E-02  0.17124000041E+03  0.17124000000E+03 0. -1.
     -611    1    1    2    0    0 -0.31555998080E-01  0.17708391184E-01  0.18591399117E+01  0.18594920922E+01  0.51109989000E-03 0. -1.
      611    1    1    2    0    0 -0.55327627108E-01  0.28157294656E-01  0.30485035296E+01  0.30491356170E+01  0.51109989000E-03 0.  1.
</event>
<event>
 6   3  0.2312675E+03  0.9118800E+02  0.7818608E-02  0.1180000E+00
       11   -1    0    0    0    0  0.00000000000E+00  0.00000000000E+00  0.54999999763E+01  0.55000000000E+01  0.51109989000E-03 0.  1.
     -623   -1    0    0    0    0  0.00000000000E+00  0.00000000000E+00  0.93234578044E-11  0.17124000000E+03  0.17124000000E+03 0. -1.
       11    1    1    2    0    0 -0.10310563829E-02  0.14956568739E-02  0.55333226746E-02  0.58462765645E-02  0.51109989000E-03 0.  1.
     -623    1    1    2    0    0  0.55991882708E-03  0.18918719770E-03  0.94240870119E-03  0.17124000000E+03  0.17124000000E+03 0. -1.
     -611    1    1    2    0    0  0.35740312622E-01 -0.22251129251E-01  0.25842858450E+01  0.25846288075E+01  0.51109989000E-03 0.  1.
      611    1    1    2    0    0 -0.35269175066E-01  0.20566285180E-01  0.29092383999E+01  0.29095249123E+01  0.51109989000E-03 0. -1.
</event>
<event>
 6   3  0.2312675E+03  0.9118800E+02  0.7818608E-02  0.1180000E+00
       11   -1    0    0    0    0  0.00000000000E+00  0.00000000000E+00  0.54999999763E+01  0.55000000000E+01  0.51109989000E-03 0. -1.
     -623   -1    0    0    0    0  0.00000000000E+00  0.00000000000E+00  0.93234578044E-11  0.17124000000E+03  0.17124000000E+03 0.  1.
       11    1    1    2    0    0  0.75680347864E-02 -0.26013174759E-02  0.90213635857E+00  0.90217199728E+00  0.51109989000E-03 0. -1.
     -623    1    1    2    0    0 -0.54509877761E-01  0.18710072650E-01  0.31364125640E-03  0.17124000970E+03  0.17124000000E+03 0.  1.
     -611    1    1    2    0    0  0.39170320660E-01 -0.14020015217E-01  0.38350471534E+01  0.38352728462E+01  0.51109989000E-03 0. -1.
      611    1    1    2    0    0  0.77715223631E-02 -0.20887399732E-02  0.76250282787E+00  0.76254546299E+00  0.51109989000E-03 0. -1.
</event>
<event>
 6   3  0.2312675E+03  0.9118800E+02  0.7818608E-02  0.1180000E+00
       11   -1    0    0    0    0  0.00000000000E+00  0.00000000000E+00  0.54999999763E+01  0.55000000000E+01  0.51109989000E-03 0.  1.
     -623   -1    0    0    0    0  0.00000000000E+00  0.00000000000E+00  0.93234578044E-11  0.17124000000E+03  0.17124000000E+03 0. -1.
       11    1    1    2    0    0  0.12956718344E-02  0.14848359646E-02  0.52532700470E-02  0.56339659769E-02  0.51109989000E-03 0.  1.
     -623    1    1    2    0    0 -0.41642158185E-02 -0.45392849407E-03  0.24651917122E-02  0.17124000007E+03  0.17124000000E+03 0. -1.
     -611    1    1    2    0    0  0.66312064117E-01  0.12192443531E-01  0.41233038439E+01  0.41238550891E+01  0.51109989000E-03 0.  1.
      611    1    1    2    0    0 -0.63443520133E-01 -0.13223351001E-01  0.13689776707E+01  0.13705108760E+01  0.51109989000E-03 0. -1.
</event>
<event>
 6   3  0.2312675E+03  0.9118800E+02  0.7818608E-02  0.1180000E+00
       11   -1    0    0    0    0  0.00000000000E+00  0.00000000000E+00  0.54999999763E+01  0.55000000000E+01  0.51109989000E-03 0.  1.
     -623   -1    0    0    0    0  0.00000000000E+00  0.00000000000E+00  0.93234578044E-11  0.17124000000E+03  0.17124000000E+03 0. -1.
       11    1    1    2    0    0  0.13334238132E-02  0.12295042675E-02  0.91350014565E-02  0.93273348025E-02  0.51109989000E-03 0.  1.
     -623    1    1    2    0    0  0.22636050639E-02 -0.41523463523E-02  0.58749861821E-03  0.17124000007E+03  0.17124000000E+03 0. -1.
     -611    1    1    2    0    0  0.30728806475E-01  0.41534791888E-02  0.29461029256E+01  0.29462661489E+01  0.51109989000E-03 0.  1.
      611    1    1    2    0    0 -0.34325835352E-01 -0.12306371039E-02  0.25441745508E+01  0.25444064501E+01  0.51109989000E-03 0. -1.
</event>
<event>
 6   3  0.2312675E+03  0.9118800E+02  0.7818608E-02  0.1180000E+00
       11   -1    0    0    0    0  0.00000000000E+00  0.00000000000E+00  0.54999999763E+01  0.55000000000E+01  0.51109989000E-03 0. -1.
     -623   -1    0    0    0    0  0.00000000000E+00  0.00000000000E+00  0.93234578044E-11  0.17124000000E+03  0.17124000000E+03 0. -1.
       11    1    1    2    0    0  0.12313769620E-01  0.47962817535E-02  0.32697035951E+00  0.32723769719E+00  0.51109989000E-03 0. -1.
     -623    1    1    2    0    0 -0.88194812496E-02  0.96032289782E-02  0.16532240969E-02  0.17124000050E+03  0.17124000000E+03 0. -1.
     -611    1    1    2    0    0  0.48427287232E-01 -0.28277800156E-01  0.36608096778E+01  0.36612392157E+01  0.51109989000E-03 0.  1.
      611    1    1    2    0    0 -0.51921575602E-01  0.13878289425E-01  0.15105667149E+01  0.15115225828E+01  0.51109989000E-03 0. -1.
</event>
<event>
 6   3  0.2312675E+03  0.9118800E+02  0.7818608E-02  0.1180000E+00
       11   -1    0    0    0    0  0.00000000000E+00  0.00000000000E+00  0.54999999763E+01  0.55000000000E+01  0.51109989000E-03 0.  1.
     -623   -1    0    0    0    0  0.00000000000E+00  0.00000000000E+00  0.93234578044E-11  0.17124000000E+03  0.17124000000E+03 0. -1.
       11    1    1    2    0    0 -0.89994392665E-02  0.67155124375E-02  0.91650585627E+00  0.91657478353E+00  0.51109989000E-03 0.  1.
     -623    1    1    2    0    0 -0.43093968991E-01 -0.33134841681E-01  0.44998685615E-03  0.17124000863E+03  0.17124000000E+03 0. -1.
     -611    1    1    2    0    0  0.40364809262E-01  0.20823955751E-01  0.35807799241E+01  0.35810680084E+01  0.51109989000E-03 0.  1.
      611    1    1    2    0    0  0.11728599019E-01  0.55953735051E-02  0.10022642112E+01  0.10023485813E+01  0.51109989000E-03 0.  1.
</event>
<event>
 6   3  0.2312675E+03  0.9118800E+02  0.7818608E-02  0.1180000E+00
       11   -1    0    0    0    0  0.00000000000E+00  0.00000000000E+00  0.54999999763E+01  0.55000000000E+01  0.51109989000E-03 0.  1.
     -623   -1    0    0    0    0  0.00000000000E+00  0.00000000000E+00  0.93234578044E-11  0.17124000000E+03  0.17124000000E+03 0. -1.
       11    1    1    2    0    0  0.59639754639E-02 -0.75069382503E-02  0.11065139651E+00  0.11106716841E+00  0.51109989000E-03 0.  1.
     -623    1    1    2    0    0  0.52525649854E-01 -0.21891075714E-02  0.75275641517E-03  0.17124000807E+03  0.17124000000E+03 0. -1.
     -611    1    1    2    0    0 -0.40789903916E-01  0.82094882115E-02  0.39514562491E+01  0.39516753361E+01  0.51109989000E-03 0.  1.
      611    1    1    2    0    0 -0.17699721399E-01  0.14865576099E-02  0.14371395740E+01  0.14372494238E+01  0.51109989000E-03 0. -1.
</event>
<event>
 6   3  0.2312675E+03  0.9118800E+02  0.7818608E-02  0.1180000E+00
       11   -1    0    0    0    0  0.00000000000E+00  0.00000000000E+00  0.54999999763E+01  0.55000000000E+01  0.51109989000E-03 0. -1.
     -623   -1    0    0    0    0  0.00000000000E+00  0.00000000000E+00  0.93234578044E-11  0.17124000000E+03  0.17124000000E+03 0. -1.
       11    1    1    2    0    0 -0.32319317632E-02 -0.14866205734E-02  0.76127357404E-01  0.76212145962E-01  0.51109989000E-03 0. -1.
     -623    1    1    2    0    0  0.14493738022E-02  0.73951721577E-03  0.72426997918E-03  0.17124000001E+03  0.17124000000E+03 0. -1.
     -611    1    1    2    0    0  0.35932153410E-01 -0.19780198421E-01  0.20999082455E+01  0.21003088527E+01  0.51109989000E-03 0.  1.
      611    1    1    2    0    0 -0.34149595449E-01  0.20527301779E-01  0.33232401034E+01  0.33234789921E+01  0.51109989000E-03 0. -1.
</event>
<event>
 6   3  0.2312675E+03  0.9118800E+02  0.7818608E-02  0.1180000E+00
       11   -1    0    0    0    0  0.00000000000E+00  0.00000000000E+00  0.54999999763E+01  0.55000000000E+01  0.51109989000E-03 0.  1.
     -623   -1    0    0    0    0  0.00000000000E+00  0.00000000000E+00  0.93234578044E-11  0.17124000000E+03  0.17124000000E+03 0. -1.
       11    1    1    2    0    0 -0.20423977400E-01 -0.32504126132E-01  0.94589644075E+00  0.94667523202E+00  0.51109989000E-03 0.  1.
     -623    1    1    2    0    0 -0.69512727311E-02  0.15633571642E-01  0.32926032963E-02  0.17124000089E+03  0.17124000000E+03 0. -1.
     -611    1    1    2    0    0 -0.60054462082E-01  0.10468587471E-01  0.22965914729E+01  0.22974004406E+01  0.51109989000E-03 0.  1.
      611    1    1    2    0    0  0.87429712213E-01  0.64019670191E-02  0.22542194593E+01  0.22559234410E+01  0.51109989000E-03 0. -1.
</event>
<event>
 6   3  0.2312675E+03  0.9118800E+02  0.7818608E-02  0.1180000E+00
       11   -1    0    0    0    0  0.00000000000E+00  0.00000000000E+00  0.54999999763E+01  0.55000000000E+01  0.51109989000E-03 0. -1.
     -623   -1    0    0    0    0  0.00000000000E+00  0.00000000000E+00  0.93234578044E-11  0.17124000000E+03  0.17124000000E+03 0.  1.
       11    1    1    2    0    0  0.21048423396E-01 -0.26185843500E-02  0.32695064806E+00  0.32763833811E+00  0.51109989000E-03 0. -1.
     -623    1    1    2    0    0 -0.68011069782E-03 -0.10975557299E-01  0.13296172819E-02  0.17124000036E+03  0.17124000000E+03 0.  1.
     -611    1    1    2    0    0  0.28536831112E-01 -0.42956852868E-02  0.15725295641E+01  0.15727944223E+01  0.51109989000E-03 0.  1.
      611    1    1    2    0    0 -0.48905143810E-01  0.17889826935E-01  0.35991901469E+01  0.35995668814E+01  0.51109989000E-03 0. -1.
</event>
<event>
 6   3  0.2312675E+03  0.9118800E+02  0.7818608E-02  0.1180000E+00
       11   -1    0    0    0    0  0.00000000000E+00  0.00000000000E+00  0.54999999763E+01  0.55000000000E+01  0.51109989000E-03 0. -1.
     -623   -1    0    0    0    0  0.00000000000E+00  0.00000000000E+00  0.93234578044E-11  0.17124000000E+03  0.17124000000E+03 0. -1.
       11    1    1    2    0    0  0.13715996610E-01 -0.10900442985E-01  0.28806068885E+00  0.28859343358E+00  0.51109989000E-03 0. -1.
     -623    1    1    2    0    0 -0.51529365616E-02 -0.32304515024E-02  0.86596023774E-03  0.17124000011E+03  0.17124000000E+03 0. -1.
     -611    1    1    2    0    0 -0.32028551450E-01  0.14894313141E-01  0.29691879654E+01  0.29693981047E+01  0.51109989000E-03 0. -1.
      611    1    1    2    0    0  0.23465491401E-01 -0.76341865406E-03  0.22418853617E+01  0.22420083515E+01  0.51109989000E-03 0.  1.
</event>
<event>
 6   3  0.2312675E+03  0.9118800E+02  0.7818608E-02  0.1180000E+00
       11   -1    0    0    0    0  0.00000000000E+00  0.00000000000E+00  0.54999999763E+01  0.55000000000E+01  0.51109989000E-03 0.  1.
     -623   -1    0    0    0    0  0.00000000000E+00  0.00000000000E+00  0.93234578044E-11  0.17124000000E+03  0.17124000000E+03 0. -1.
       11    1    1    2    0    0  0.10853987002E+00 -0.19042200221E-01  0.59303934658E+00  0.60319104486E+00  0.51109989000E-03 0.  1.
     -623    1    1    2    0    0 -0.36816411202E-01  0.18712859072E-02  0.10711794682E-01  0.17124000430E+03  0.17124000000E+03 0. -1.
     -611    1    1    2    0    0 -0.51099350971E-01  0.12985249899E-01  0.35107298186E+01  0.35111257284E+01  0.51109989000E-03 0.  1.
      611    1    1    2    0    0 -0.20624107809E-01  0.41856644051E-02  0.13855190135E+01  0.13856789208E+01  0.51109989000E-03 0. -1.
</event>
<event>
 6   3  0.2312675E+03  0.9118800E+02  0.7818608E-02  0.1180000E+00
       11   -1    0    0    0    0  0.00000000000E+00  0.00000000000E+00  0.54999999763E+01  0.55000000000E+01  0.51109989000E-03 0. -1.
     -623   -1    0    0    0    0  0.00000000000E+00  0.00000000000E+00  0.93234578044E-11  0.17124000000E+03  0.17124000000E+03 0. -1.
       11    1    1    2    0    0  0.72769920658E-01 -0.75703242209E-03  0.87231355568E+00  0.87534406669E+00  0.51109989000E-03 0. -1.
     -623    1    1    2    0    0 -0.21799986526E-01 -0.12229788693E-01  0.33316807334E-02  0.17124000186E+03  0.17124000000E+03 0. -1.
     -611    1    1    2    0    0 -0.21599359800E-01  0.59547536058E-02  0.19850647679E+01  0.19851912717E+01  0.51109989000E-03 0.  1.
      611    1    1    2    0    0 -0.29370574351E-01  0.70320675139E-02  0.26392899736E+01  0.26394628064E+01  0.51109989000E-03 0. -1.
</event>
<event>
 6   3  0.2312675E+03  0.9118800E+02  0.7818608E-02  0.1180000E+00
       11   -1    0    0    0    0  0.00000000000E+00  0.00000000000E+00  0.54999999763E+01  0.55000000000E+01  0.51109989000E-03 0.  1.
     -623   -1    0    0    0    0  0.00000000000E+00  0.00000000000E+00  0.93234578044E-11  0.17124000000E+03  0.17124000000E+03 0.  1.
       11    1    1    2    0    0  0.10095439333E+00 -0.14520490098E-01  0.10874012260E+01  0.10921741261E+01  0.51109989000E-03 0.  1.
     -623    1    1    2    0    0 -0.21967603561E-01 -0.24161785893E-01  0.56596091996E-02  0.17124000321E+03  0.17124000000E+03 0.  1.
     -611    1    1    2    0    0 -0.47517514344E-01  0.22172978087E-01  0.27934093539E+01  0.27939015077E+01  0.51109989000E-03 0.  1.
      611    1    1    2    0    0 -0.31469275423E-01  0.16509297904E-01  0.16135297872E+01  0.16139211591E+01  0.51109989000E-03 0.  1.
</event>
<event>
 6   3  0.2312675E+03  0.9118800E+02  0.7818608E-02  0.1180000E+00
       11   -1    0    0    0    0  0.00000000000E+00  0.00000000000E+00  0.54999999763E+01  0.55000000000E+01  0.51109989000E-03 0. -1.
     -623   -1    0    0    0    0  0.00000000000E+00  0.00000000000E+00  0.93234578044E-11  0.17124000000E+03  0.17124000000E+03 0. -1.
       11    1    1    2    0    0  0.12245806991E-01  0.20883901121E-01  0.14613237231E+00  0.14812504371E+00  0.51109989000E-03 0. -1.
     -623    1    1    2    0    0 -0.95902816478E-02 -0.18918710485E-01  0.32889761456E-02  0.17124000135E+03  0.17124000000E+03 0. -1.
     -611    1    1    2    0    0 -0.49902805496E-01  0.23925576316E-01  0.37046570840E+01  0.37050704574E+01  0.51109989000E-03 0. -1.
      611    1    1    2    0    0  0.47247280152E-01 -0.25890766951E-01  0.16459215439E+01  0.16468031537E+01  0.51109989000E-03 0.  1.
</event>
<event>
 6   3  0.2312675E+03  0.9118800E+02  0.7818608E-02  0.1180000E+00
       11   -1    0    0    0    0  0.00000000000E+00  0.00000000000E+00  0.54999999763E+01  0.55000000000E+01  0.51109989000E-03 0. -1.
     -623   -1    0    0    0    0  0.00000000000E+00  0.00000000000E+00  0.93234578044E-11  0.17124000000E+03  0.17124000000E+03 0.  1.
       11    1    1    2    0    0 -0.61311809363E-02  0.27254312232E-02  0.43301521315E+00  0.43306749520E+00  0.51109989000E-03 0. -1.
     -623    1    1    2    0    0  0.60951146737E-01  0.32052908384E-02  0.36376149534E-03  0.17124001088E+03  0.17124000000E+03 0.  1.
     -611    1    1    2    0    0 -0.36538428985E-01 -0.33673169569E-02  0.34482797503E+01  0.34484750098E+01  0.51109989000E-03 0. -1.
      611    1    1    2    0    0 -0.18281536790E-01 -0.25634051026E-02  0.16183412490E+01  0.16184466148E+01  0.51109989000E-03 0.  1.
</event>
<event>
 6   3  0.2312675E+03  0.9118800E+02  0.7818608E-02  0.1180000E+00
       11   -1    0    0    0    0  0.00000000000E+00  0.00000000000E+00  0.54999999763E+01  0.55000000000E+01  0.51109989000E-03 0. -1.
     -623   -1    0    0    0    0  0.00000000000E+00  0.00000000000E+00  0.93234578044E-11  0.17124000000E+03  0.17124000000E+03 0. -1.
       11    1    1    2    0    0  0.14244728567E-01  0.91046546897E-01  0.83777807094E+00  0.84283138490E+00  0.51109989000E-03 0. -1.
     -623    1    1    2    0    0  0.11565451499E-01  0.20347576649E-01  0.67594475461E-02  0.17124000173E+03  0.17124000000E+03 0. -1.
     -611    1    1    2    0    0  0.15706373973E-01 -0.39571730677E-01  0.13982238417E+01  0.13988719687E+01  0.51109989000E-03 0.  1.
      611    1    1    2    0    0 -0.41516554038E-01 -0.71822392868E-01  0.32572386161E+01  0.32582949136E+01  0.51109989000E-03 0. -1.
</event>
<event>
 6   3  0.2312675E+03  0.9118800E+02  0.7818608E-02  0.1180000E+00
       11   -1    0    0    0    0  0.00000000000E+00  0.00000000000E+00  0.54999999763E+01  0.55000000000E+01  0.51109989000E-03 0. -1.
     -623   -1    0    0    0    0  0.00000000000E+00  0.00000000000E+00  0.93234578044E-11  0.17124000000E+03  0.17124000000E+03 0. -1.
       11    1    1    2    0    0  0.23011446640E-01  0.17200083468E-02  0.18427454518E+00  0.18571444298E+00  0.51109989000E-03 0. -1.
     -623    1    1    2    0    0  0.13260037579E-01  0.16559410110E-01  0.27205040859E-02  0.17124000134E+03  0.17124000000E+03 0. -1.
     -611    1    1    2    0    0 -0.57782410818E-01  0.18562961384E-01  0.42356331833E+01  0.42360680017E+01  0.51109989000E-03 0. -1.
      611    1    1    2    0    0  0.21510926600E-01 -0.36842379841E-01  0.10773717437E+01  0.10782162196E+01  0.51109989000E-03 0.  1.
</event>
<event>
 6   3  0.2312675E+03  0.9118800E+02  0.7818608E-02  0.1180000E+00
       11   -1    0    0    0    0  0.00000000000E+00  0.00000000000E+00  0.54999999763E+01  0.55000000000E+01  0.51109989000E-03 0. -1.
     -623   -1    0    0    0    0  0.00000000000E+00  0.00000000000E+00  0.93234578044E-11  0.17124000000E+03  0.17124000000E+03 0. -1.
       11    1    1    2    0    0 -0.23751135105E-01 -0.25708349509E-01  0.10723614447E+01  0.10729326004E+01  0.51109989000E-03 0. -1.
     -623    1    1    2    0    0 -0.48316137639E-01 -0.81137556897E-02  0.12953147507E-02  0.17124000701E+03  0.17124000000E+03 0. -1.
     -611    1    1    2    0    0  0.49248528873E-01  0.22793651456E-01  0.29332257037E+01  0.29337277069E+01  0.51109989000E-03 0. -1.
      611    1    1    2    0    0  0.22818743879E-01  0.11028453746E-01  0.14931175135E+01  0.14933326797E+01  0.51109989000E-03 0. -1.
</event>
<event>
 6   3  0.2312675E+03  0.9118800E+02  0.7818608E-02  0.1180000E+00
       11   -1    0    0    0    0  0.00000000000E+00  0.00000000000E+00  0.54999999763E+01  0.55000000000E+01  0.51109989000E-03 0. -1.
     -623   -1    0    0    0    0  0.00000000000E+00  0.00000000000E+00  0.93234578044E-11  0.17124000000E+03  0.17124000000E+03 0. -1.
       11    1    1    2    0    0 -0.71893831392E-01 -0.89344751052E-02  0.82030926681E-01  0.10944351051E+00  0.51109989000E-03 0. -1.
     -623    1    1    2    0    0 -0.46414444255E-02  0.94888979495E-02  0.27967602468E-01  0.17124000261E+03  0.17124000000E+03 0. -1.
     -611    1    1    2    0    0  0.16757952857E-01  0.31141849303E-02  0.10313240831E+01  0.10314650516E+01  0.51109989000E-03 0.  1.
      611    1    1    2    0    0  0.59777322960E-01 -0.36686077746E-02  0.43586773639E+01  0.43590888281E+01  0.51109989000E-03 0. -1.
</event>
<event>
 6   3  0.2312675E+03  0.9118800E+02  0.7818608E-02  0.1180000E+00
       11   -1    0    0    0    0  0.00000000000E+00  0.00000000000E+00  0.54999999763E+01  0.55000000000E+01  0.51109989000E-03 0.  1.
     -623   -1    0    0    0    0  0.00000000000E+00  0.00000000000E+00  0.93234578044E-11  0.17124000000E+03  0.17124000000E+03 0. -1.
       11    1    1    2    0    0 -0.30974649574E-01  0.71270329538E-01  0.58199936129E+00  0.58716471842E+00  0.51109989000E-03 0.  1.
     -623    1    1    2    0    0  0.46184001379E-01 -0.78767846482E-01  0.66882938626E-02  0.17124002447E+03  0.17124000000E+03 0. -1.
     -611    1    1    2    0    0 -0.36825688909E-01 -0.46463599020E-01  0.30968567045E+01  0.30974242051E+01  0.51109989000E-03 0.  1.
      611    1    1    2    0    0  0.21616337104E-01  0.53961115964E-01  0.18144556166E+01  0.18153866018E+01  0.51109989000E-03 0. -1.
</event>
<event>
 6   3  0.2312675E+03  0.9118800E+02  0.7818608E-02  0.1180000E+00
       11   -1    0    0    0    0  0.00000000000E+00  0.00000000000E+00  0.54999999763E+01  0.55000000000E+01  0.51109989000E-03 0.  1.
     -623   -1    0    0    0    0  0.00000000000E+00  0.00000000000E+00  0.93234578044E-11  0.17124000000E+03  0.17124000000E+03 0. -1.
       11    1    1    2    0    0 -0.34386524285E-02 -0.35154343353E-01  0.93906741010E+00  0.93973161814E+00  0.51109989000E-03 0.  1.
     -623    1    1    2    0    0 -0.79074469090E-02 -0.33630615157E-02  0.17921574357E-02  0.17124000022E+03  0.17124000000E+03 0. -1.
     -611    1    1    2    0    0 -0.40609495259E-01  0.16286791708E-01  0.16576445781E+01  0.16582219994E+01  0.51109989000E-03 0.  1.
      611    1    1    2    0    0  0.51955594597E-01  0.22230613161E-01  0.29014958307E+01  0.29020461576E+01  0.51109989000E-03 0. -1.
</event>
<event>
 6   3  0.2312675E+03  0.9118800E+02  0.7818608E-02  0.1180000E+00
       11   -1    0    0    0    0  0.00000000000E+00  0.00000000000E+00  0.54999999763E+01  0.55000000000E+01  0.51109989000E-03 0.  1.
     -623   -1    0    0    0    0  0.00000000000E+00  0.00000000000E+00  0.93234578044E-11  0.17124000000E+03  0.17124000000E+03 0. -1.
       11    1    1    2    0    0 -0.89262129575E-02 -0.12478617370E-01  0.36505519518E+00  0.36537781805E+00  0.51109989000E-03 0.  1.
     -623    1    1    2    0    0  0.12208152075E-01  0.38716644091E-01  0.16133364411E-02  0.17124000482E+03  0.17124000000E+03 0. -1.
     -611    1    1    2    0    0 -0.49088406636E-01  0.98033214271E-02  0.32461752299E+01  0.32465612055E+01  0.51109989000E-03 0. -1.
      611    1    1    2    0    0  0.45806467519E-01 -0.36041348148E-01  0.18871562148E+01  0.18880561568E+01  0.51109989000E-03 0.  1.
</event>
<event>
 6   3  0.6999269E+03  0.9118800E+02  0.7818608E-02  0.1180000E+00
       11   -1    0    0    0    0  0.00000000000E+00  0.00000000000E+00  0.54999999763E+01  0.55000000000E+01  0.51109989000E-03 0. -1.
     -623   -1    0    0    0    0  0.00000000000E+00  0.00000000000E+00  0.93234578044E-11  0.17124000000E+03  0.17124000000E+03 0. -1.
       11    1    1    2    0    0 -0.68182612092E-04  0.14381978427E-02  0.35581970498E-03  0.15687232590E-02  0.51109989000E-03 0. -1.
     -623    1    1    2    0    0 -0.12024694667E-02 -0.15307899346E-02  0.35479044161E-02  0.17124000005E+03  0.17124000000E+03 0. -1.
     -611    1    1    2    0    0  0.42431854419E-01 -0.55651752651E-01  0.13993473762E+01  0.14010963280E+01  0.51109989000E-03 0.  1.
      611    1    1    2    0    0 -0.41161202340E-01  0.55744344742E-01  0.40967488759E+01  0.40973349009E+01  0.51109989000E-03 0. -1.
</event>
<event>
 6   3  0.2312675E+03  0.9118800E+02  0.7818608E-02  0.1180000E+00
       11   -1    0    0    0    0  0.00000000000E+00  0.00000000000E+00  0.54999999763E+01  0.55000000000E+01  0.51109989000E-03 0.  1.
     -623   -1    0    0    0    0  0.00000000000E+00  0.00000000000E+00  0.93234578044E-11  0.17124000000E+03  0.17124000000E+03 0.  1.
       11    1    1    2    0    0 -0.37688763733E-02 -0.29536317112E-02  0.20268190016E+00  0.20273909895E+00  0.51109989000E-03 0.  1.
     -623    1    1    2    0    0  0.63121812691E-01  0.36493260249E-01  0.51189817782E-03  0.17124001552E+03  0.17124000000E+03 0.  1.
     -611    1    1    2    0    0 -0.39120633166E-01 -0.22865388055E-01  0.35723811160E+01  0.35726685194E+01  0.51109989000E-03 0.  1.
      611    1    1    2    0    0 -0.20232303213E-01 -0.10674240518E-01  0.17244250672E+01  0.17245768638E+01  0.51109989000E-03 0.  1.
</event>
<event>
 6   3  0.2312675E+03  0.9118800E+02  0.7818608E-02  0.1180000E+00
       11   -1    0    0    0    0  0.00000000000E+00  0.00000000000E+00  0.54999999763E+01  0.55000000000E+01  0.51109989000E-03 0.  1.
     -623   -1    0    0    0    0  0.00000000000E+00  0.00000000000E+00  0.93234578044E-11  0.17124000000E+03  0.17124000000E+03 0. -1.
       11    1    1    2    0    0 -0.17167234564E-02 -0.15812017519E-02  0.14911192154E+00  0.14913106217E+00  0.51109989000E-03 0.  1.
     -623    1    1    2    0    0  0.91754810272E-01  0.49627437866E-01  0.10244354997E-02  0.17124003178E+03  0.17124000000E+03 0. -1.
     -611    1    1    2    0    0 -0.17232666724E-01 -0.91193376519E-02  0.10069324787E+01  0.10071213457E+01  0.51109989000E-03 0.  1.
      611    1    1    2    0    0 -0.72805420757E-01 -0.38926898821E-01  0.43429311804E+01  0.43437158553E+01  0.51109989000E-03 0.  1.
</event>
<event>
 6   3  0.2998239E+03  0.9118800E+02  0.7818608E-02  0.1180000E+00
       11   -1    0    0    0    0  0.00000000000E+00  0.00000000000E+00  0.54999999763E+01  0.55000000000E+01  0.51109989000E-03 0.  1.
     -623   -1    0    0    0    0  0.00000000000E+00  0.00000000000E+00  0.93234578044E-11  0.17124000000E+03  0.17124000000E+03 0.  1.
       11    1    1    2    0    0  0.14942422749E-02 -0.42459669399E-05  0.40535137035E-01  0.40565888817E-01  0.51109989000E-03 0.  1.
     -623    1    1    2    0    0 -0.11037517813E-02 -0.30313080078E-03  0.34010421794E-03  0.17124000000E+03  0.17124000000E+03 0.  1.
     -611    1    1    2    0    0  0.28592355843E-01 -0.37032465198E-02  0.26370243293E+01  0.26371819829E+01  0.51109989000E-03 0.  1.
      611    1    1    2    0    0 -0.28982846337E-01  0.40106232875E-02  0.28221004057E+01  0.28222521241E+01  0.51109989000E-03 0. -1.
</event>
<event>
 6   3  0.2312675E+03  0.9118800E+02  0.7818608E-02  0.1180000E+00
       11   -1    0    0    0    0  0.00000000000E+00  0.00000000000E+00  0.54999999763E+01  0.55000000000E+01  0.51109989000E-03 0. -1.
     -623   -1    0    0    0    0  0.00000000000E+00  0.00000000000E+00  0.93234578044E-11  0.17124000000E+03  0.17124000000E+03 0. -1.
       11    1    1    2    0    0  0.67619208866E-01 -0.93637896754E-02  0.42013991976E+00  0.42564991644E+00  0.51109989000E-03 0. -1.
     -623    1    1    2    0    0 -0.10052042770E-01 -0.26776403153E-01  0.59685129045E-02  0.17124000249E+03  0.17124000000E+03 0. -1.
     -611    1    1    2    0    0 -0.51298160289E-01  0.33018923896E-01  0.45510140166E+01  0.45514229193E+01  0.51109989000E-03 0. -1.
      611    1    1    2    0    0 -0.62690058125E-02  0.31212689356E-02  0.52287752752E+00  0.52292467216E+00  0.51109989000E-03 0.  1.
</event>
<event>
 6   3  0.2312675E+03  0.9118800E+02  0.7818608E-02  0.1180000E+00
       11   -1    0    0    0    0  0.00000000000E+00  0.00000000000E+00  0.54999999763E+01  0.55000000000E+01  0.51109989000E-03 0.  1.
     -623   -1    0    0    0    0  0.00000000000E+00  0.00000000000E+00  0.93234578044E-11  0.17124000000E+03  0.17124000000E+03 0.  1.
       11    1    1    2    0    0  0.37321515187E-01  0.64226967870E-02  0.10932325621E+01  0.10938884050E+01  0.51109989000E-03 0.  1.
     -623    1    1    2    0    0  0.27370969743E-01 -0.48006786203E-01  0.13621767039E-02  0.17124000892E+03  0.17124000000E+03 0.  1.
     -611    1    1    2    0    0 -0.42937837319E-01  0.21740086764E-01  0.30293571849E+01  0.30297395109E+01  0.51109989000E-03 0.  1.
      611    1    1    2    0    0 -0.21754647610E-01  0.19844002650E-01  0.13760480524E+01  0.13763631617E+01  0.51109989000E-03 0. -1.
</event>
<event>
 6   3  0.2312675E+03  0.9118800E+02  0.7818608E-02  0.1180000E+00
       11   -1    0    0    0    0  0.00000000000E+00  0.00000000000E+00  0.54999999763E+01  0.55000000000E+01  0.51109989000E-03 0. -1.
     -623   -1    0    0    0    0  0.00000000000E+00  0.00000000000E+00  0.93234578044E-11  0.17124000000E+03  0.17124000000E+03 0.  1.
       11    1    1    2    0    0 -0.34308156361E-01 -0.10043844850E-01  0.67183290379E+00  0.67278350177E+00  0.51109989000E-03 0. -1.
     -623    1    1    2    0    0 -0.17071228219E-01 -0.78548646375E-02  0.16162584299E-02  0.17124000104E+03  0.17124000000E+03 0.  1.
     -611    1    1    2    0    0  0.58443893226E-01  0.30020884037E-01  0.41367934972E+01  0.41373152698E+01  0.51109989000E-03 0. -1.
      611    1    1    2    0    0 -0.70645086457E-02 -0.12122174549E-01  0.68975731677E+00  0.68990018964E+00  0.51109989000E-03 0.  1.
</event>
<event>
 6   3  0.2312675E+03  0.9118800E+02  0.7818608E-02  0.1180000E+00
       11   -1    0    0    0    0  0.00000000000E+00  0.00000000000E+00  0.54999999763E+01  0.55000000000E+01  0.51109989000E-03 0. -1.
     -623   -1    0    0    0    0  0.00000000000E+00  0.00000000000E+00  0.93234578044E-11  0.17124000000E+03  0.17124000000E+03 0.  1.
       11    1    1    2    0    0  0.75897817579E-02 -0.11414202483E-01  0.63294059621E-01  0.64763323045E-01  0.51109989000E-03 0. -1.
     -623    1    1    2    0    0  0.18016951843E-01  0.69593440651E-02  0.19927380131E-02  0.17124000110E+03  0.17124000000E+03 0.  1.
     -611    1    1    2    0    0 -0.45313369371E-01  0.15540013276E-01  0.44728539924E+01  0.44731105387E+01  0.51109989000E-03 0. -1.
      611    1    1    2    0    0  0.19706635770E-01 -0.11085154858E-01  0.96185918630E+00  0.96212503742E+00  0.51109989000E-03 0.  1.
</event>
<event>
 6   3  0.2312675E+03  0.9118800E+02  0.7818608E-02  0.1180000E+00
       11   -1    0    0    0    0  0.00000000000E+00  0.00000000000E+00  0.54999999763E+01  0.55000000000E+01  0.51109989000E-03 0. -1.
     -623   -1    0    0    0    0  0.00000000000E+00  0.00000000000E+00  0.93234578044E-11  0.17124000000E+03  0.17124000000E+03 0.  1.
       11    1    1    2    0    0  0.49066992120E-01  0.11709713223E-01  0.61618331842E+00  0.61824495972E+00  0.51109989000E-03 0. -1.
     -623    1    1    2    0    0  0.43666653646E-02  0.33709576464E-02  0.23850233331E-02  0.17124000011E+03  0.17124000000E+03 0.  1.
     -611    1    1    2    0    0 -0.39178428908E-01 -0.14675401212E-01  0.35291279013E+01  0.35293759111E+01  0.51109989000E-03 0. -1.
      611    1    1    2    0    0 -0.14255228577E-01 -0.40526965768E-03  0.13523037332E+01  0.13523790237E+01  0.51109989000E-03 0.  1.
</event>
<event>
 6   3  0.2312675E+03  0.9118800E+02  0.7818608E-02  0.1180000E+00
       11   -1    0    0    0    0  0.00000000000E+00  0.00000000000E+00  0.54999999763E+01  0.55000000000E+01  0.51109989000E-03 0. -1.
     -623   -1    0    0    0    0  0.00000000000E+00  0.00000000000E+00  0.93234578044E-11  0.17124000000E+03  0.17124000000E+03 0.  1.
       11    1    1    2    0    0  0.88305070285E-02 -0.99417438740E-02  0.10025034605E+01  0.10025917742E+01  0.51109989000E-03 0. -1.
     -623    1    1    2    0    0 -0.60420019711E-01  0.39160597948E-01  0.49490926703E-03  0.17124001514E+03  0.17124000000E+03 0.  1.
     -611    1    1    2    0    0  0.23481617739E-01 -0.12040397145E-01  0.19980201687E+01  0.19981944883E+01  0.51109989000E-03 0. -1.
      611    1    1    2    0    0  0.28107895056E-01 -0.17178457001E-01  0.24989814480E+01  0.24991986099E+01  0.51109989000E-03 0.  1.
</event>
<event>
 6   3  0.2312675E+03  0.9118800E+02  0.7818608E-02  0.1180000E+00
       11   -1    0    0    0    0  0.00000000000E+00  0.00000000000E+00  0.54999999763E+01  0.55000000000E+01  0.51109989000E-03 0.  1.
     -623   -1    0    0    0    0  0.00000000000E+00  0.00000000000E+00  0.93234578044E-11  0.17124000000E+03  0.17124000000E+03 0. -1.
       11    1    1    2    0    0 -0.55885443684E-01 -0.64315428887E-02  0.37153515429E+00  0.37577011544E+00  0.51109989000E-03 0.  1.
     -623    1    1    2    0    0 -0.26303421037E-01  0.73588290787E-02  0.49117362243E-02  0.17124000225E+03  0.17124000000E+03 0. -1.
     -611    1    1    2    0    0  0.27925150249E-01 -0.61892975551E-02  0.18085671316E+01  0.18087933691E+01  0.51109989000E-03 0.  1.
      611    1    1    2    0    0  0.54263714471E-01  0.52620113651E-02  0.33149859541E+01  0.33154342666E+01  0.51109989000E-03 0. -1.
</event>
<event>
 6   3  0.2312675E+03  0.9118800E+02  0.7818608E-02  0.1180000E+00
       11   -1    0    0    0    0  0.00000000000E+00  0.00000000000E+00  0.54999999763E+01  0.55000000000E+01  0.51109989000E-03 0.  1.
     -623   -1    0    0    0    0  0.00000000000E+00  0.00000000000E+00  0.93234578044E-11  0.17124000000E+03  0.17124000000E+03 0. -1.
       11    1    1    2    0    0 -0.38471201959E-02 -0.58383635654E-02  0.11081761481E-01  0.13113103505E-01  0.51109989000E-03 0.  1.
     -623    1    1    2    0    0  0.58355749868E-02 -0.13434740219E-01  0.66126631063E-02  0.17124000075E+03  0.17124000000E+03 0. -1.
     -611    1    1    2    0    0  0.74708348690E-01  0.62576094189E-01  0.12978606602E+01  0.13015143716E+01  0.51109989000E-03 0. -1.
      611    1    1    2    0    0 -0.76696803480E-01 -0.43302990405E-01  0.41844448914E+01  0.41853717707E+01  0.51109989000E-03 0.  1.
</event>
<event>
 6   3  0.2312675E+03  0.9118800E+02  0.7818608E-02  0.1180000E+00
       11   -1    0    0    0    0  0.00000000000E+00  0.00000000000E+00  0.54999999763E+01  0.55000000000E+01  0.51109989000E-03 0. -1.
     -623   -1    0    0    0    0  0.00000000000E+00  0.00000000000E+00  0.93234578044E-11  0.17124000000E+03  0.17124000000E+03 0.  1.
       11    1    1    2    0    0 -0.26040347610E-01  0.18105162615E-02  0.10206031806E+01  0.10209370652E+01  0.51109989000E-03 0. -1.
     -623    1    1    2    0    0 -0.11113711416E-02 -0.97523849038E-03  0.69465423589E-03  0.17124000001E+03  0.17124000000E+03 0.  1.
     -611    1    1    2    0    0  0.41302543907E-01 -0.60450025304E-02  0.33353099122E+01  0.33355711526E+01  0.51109989000E-03 0. -1.
      611    1    1    2    0    0 -0.14150825156E-01  0.52097247593E-02  0.11433922291E+01  0.11434917743E+01  0.51109989000E-03 0.  1.
</event>
<event>
 6   3  0.2312675E+03  0.9118800E+02  0.7818608E-02  0.1180000E+00
       11   -1    0    0    0    0  0.00000000000E+00  0.00000000000E+00  0.54999999763E+01  0.55000000000E+01  0.51109989000E-03 0. -1.
     -623   -1    0    0    0    0  0.00000000000E+00  0.00000000000E+00  0.93234578044E-11  0.17124000000E+03  0.17124000000E+03 0.  1.
       11    1    1    2    0    0 -0.69899118518E-01 -0.48257987245E-01  0.51370193303E+00  0.52067711427E+00  0.51109989000E-03 0. -1.
     -623    1    1    2    0    0 -0.91728542243E-02  0.71271843132E-03  0.78746482746E-02  0.17124000043E+03  0.17124000000E+03 0.  1.
     -611    1    1    2    0    0  0.10923811318E-01  0.12852304900E-01  0.62653775896E+00  0.62676497670E+00  0.51109989000E-03 0.  1.
      611    1    1    2    0    0  0.68148161424E-01  0.34692963913E-01  0.43518856359E+01  0.43525574807E+01  0.51109989000E-03 0. -1.
</event>
<event>
 6   3  0.2312675E+03  0.9118800E+02  0.7818608E-02  0.1180000E+00
       11   -1    0    0    0    0  0.00000000000E+00  0.00000000000E+00  0.54999999763E+01  0.55000000000E+01  0.51109989000E-03 0. -1.
     -623   -1    0    0    0    0  0.00000000000E+00  0.00000000000E+00  0.93234578044E-11  0.17124000000E+03  0.17124000000E+03 0.  1.
       11    1    1    2    0    0  0.22036341266E-02 -0.12168085176E-01  0.19660883695E+00  0.19699800580E+00  0.51109989000E-03 0. -1.
     -623    1    1    2    0    0 -0.50971773326E-03  0.75903631611E-02  0.14458038070E-02  0.17124000018E+03  0.17124000000E+03 0.  1.
     -611    1    1    2    0    0 -0.50555585906E-01 -0.15141038364E-01  0.24288765872E+01  0.24294499079E+01  0.51109989000E-03 0.  1.
      611    1    1    2    0    0  0.48861669513E-01  0.19718760379E-01  0.28730687484E+01  0.28735519112E+01  0.51109989000E-03 0. -1.
</event>
<event>
 6   3  0.2312675E+03  0.9118800E+02  0.7818608E-02  0.1180000E+00
       11   -1    0    0    0    0  0.00000000000E+00  0.00000000000E+00  0.54999999763E+01  0.55000000000E+01  0.51109989000E-03 0.  1.
     -623   -1    0    0    0    0  0.00000000000E+00  0.00000000000E+00  0.93234578044E-11  0.17124000000E+03  0.17124000000E+03 0.  1.
       11    1    1    2    0    0  0.40294973094E-01 -0.29652779862E-02  0.83174969943E+00  0.83273062959E+00  0.51109989000E-03 0.  1.
     -623    1    1    2    0    0  0.23641361388E-01 -0.44367706901E-02  0.14266538856E-02  0.17124000170E+03  0.17124000000E+03 0.  1.
     -611    1    1    2    0    0 -0.30990534131E-01  0.30712816930E-02  0.22678497558E+01  0.22680636283E+01  0.51109989000E-03 0.  1.
      611    1    1    2    0    0 -0.32945800368E-01  0.43307669853E-02  0.23989738684E+01  0.23992040479E+01  0.51109989000E-03 0. -1.
</event>
<event>
 6   3  0.2312675E+03  0.9118800E+02  0.7818608E-02  0.1180000E+00
       11   -1    0    0    0    0  0.00000000000E+00  0.00000000000E+00  0.54999999763E+01  0.55000000000E+01  0.51109989000E-03 0.  1.
     -623   -1    0    0    0    0  0.00000000000E+00  0.00000000000E+00  0.93234578044E-11  0.17124000000E+03  0.17124000000E+03 0.  1.
       11    1    1    2    0    0 -0.18277959882E-01 -0.30186174211E-02  0.61508941264E+00  0.61536854212E+00  0.51109989000E-03 0.  1.
     -623    1    1    2    0    0  0.11164831037E-02  0.49009243445E-02  0.25224358065E-02  0.17124000009E+03  0.17124000000E+03 0.  1.
     -611    1    1    2    0    0 -0.58059942200E-01 -0.32547664197E-01  0.23330597581E+01  0.23340090838E+01  0.51109989000E-03 0. -1.
      611    1    1    2    0    0  0.75221418978E-01  0.30665357274E-01  0.25493283698E+01  0.25506222817E+01  0.51109989000E-03 0.  1.
</event>
<event>
 6   3  0.2312675E+03  0.9118800E+02  0.7818608E-02  0.1180000E+00
       11   -1    0    0    0    0  0.00000000000E+00  0.00000000000E+00  0.54999999763E+01  0.55000000000E+01  0.51109989000E-03 0.  1.
     -623   -1    0    0    0    0  0.00000000000E+00  0.00000000000E+00  0.93234578044E-11  0.17124000000E+03  0.17124000000E+03 0.  1.
       11    1    1    2    0    0 -0.38298671353E-01 -0.60902412554E-02  0.95256514498E+00  0.95335433912E+00  0.51109989000E-03 0.  1.
     -623    1    1    2    0    0 -0.88707511342E-02  0.26218712257E-01  0.10810246178E-02  0.17124000224E+03  0.17124000000E+03 0.  1.
     -611    1    1    2    0    0  0.24828804099E-01 -0.10261494107E-01  0.24427090415E+01  0.24428568297E+01  0.51109989000E-03 0.  1.
      611    1    1    2    0    0  0.22340618380E-01 -0.98669768920E-02  0.21036447644E+01  0.21037865901E+01  0.51109989000E-03 0.  1.
</event>
<event>
 6   3  0.2312675E+03  0.9118800E+02  0.7818608E-02  0.1180000E+00
       11   -1    0    0    0    0  0.00000000000E+00  0.00000000000E+00  0.54999999763E+01  0.55000000000E+01  0.51109989000E-03 0.  1.
     -623   -1    0    0    0    0  0.00000000000E+00  0.00000000000E+00  0.93234578044E-11  0.17124000000E+03  0.17124000000E+03 0. -1.
       11    1    1    2    0    0  0.18374974551E-02  0.25475417260E-02  0.24894457345E+00  0.24896491367E+00  0.51109989000E-03 0.  1.
     -623    1    1    2    0    0  0.16331327629E-02  0.13392649673E-02  0.70557547826E-03  0.17124000001E+03  0.17124000000E+03 0. -1.
     -611    1    1    2    0    0 -0.33794194466E-01 -0.29617902795E-01  0.29226933021E+01  0.29230387728E+01  0.51109989000E-03 0.  1.
      611    1    1    2    0    0  0.30323564248E-01  0.25731096102E-01  0.23276565251E+01  0.23279962989E+01  0.51109989000E-03 0. -1.
</event>
<event>
 6   3  0.2312675E+03  0.9118800E+02  0.7818608E-02  0.1180000E+00
       11   -1    0    0    0    0  0.00000000000E+00  0.00000000000E+00  0.54999999763E+01  0.55000000000E+01  0.51109989000E-03 0.  1.
     -623   -1    0    0    0    0  0.00000000000E+00  0.00000000000E+00  0.93234578044E-11  0.17124000000E+03  0.17124000000E+03 0.  1.
       11    1    1    2    0    0  0.17335611278E-01 -0.11635906386E-01  0.92687084809E+00  0.92710611475E+00  0.51109989000E-03 0.  1.
     -623    1    1    2    0    0 -0.47909359073E-01  0.21767265868E-01  0.72634394166E-03  0.17124000809E+03  0.17124000000E+03 0.  1.
     -611    1    1    2    0    0  0.46146773522E-01  0.10080022534E-02  0.35858322419E+01  0.35861293436E+01  0.51109989000E-03 0.  1.
      611    1    1    2    0    0 -0.15573025729E-01 -0.11139361735E-01  0.98657054208E+00  0.98675645437E+00  0.51109989000E-03 0. -1.
</event>
<event>
 6   3  0.2312675E+03  0.9118800E+02  0.7818608E-02  0.1180000E+00
       11   -1    0    0    0    0  0.00000000000E+00  0.00000000000E+00  0.54999999763E+01  0.55000000000E+01  0.51109989000E-03 0.  1.
     -623   -1    0    0    0    0  0.00000000000E+00  0.00000000000E+00  0.93234578044E-11  0.17124000000E+03  0.17124000000E+03 0. -1.
       11    1    1    2    0    0 -0.39548603070E-01  0.26988648655E-01  0.36433820008E+00  0.36747117495E+00  0.51109989000E-03 0.  1.
     -623    1    1    2    0    0 -0.19273385558E-01 -0.10456139636E-01  0.34984567246E-02  0.17124000144E+03  0.17124000000E+03 0. -1.
     -611    1    1    2    0    0  0.26902378615E-01 -0.83679577703E-02  0.23842469347E+01  0.23844134431E+01  0.51109989000E-03 0.  1.
      611    1    1    2    0    0  0.31919609979E-01 -0.81645512393E-02  0.27479163818E+01  0.27481139394E+01  0.51109989000E-03 0.  1.
</event>
<event>
 6   3  0.2312675E+03  0.9118800E+02  0.7818608E-02  0.1180000E+00
       11   -1    0    0    0    0  0.00000000000E+00  0.00000000000E+00  0.54999999763E+01  0.55000000000E+01  0.51109989000E-03 0. -1.
     -623   -1    0    0    0    0  0.00000000000E+00  0.00000000000E+00  0.93234578044E-11  0.17124000000E+03  0.17124000000E+03 0.  1.
       11    1    1    2    0    0 -0.11458275783E-01 -0.60549972291E-02  0.80006943539E-01  0.81051386866E-01  0.51109989000E-03 0. -1.
     -623    1    1    2    0    0  0.90244385462E-02 -0.37760732650E-02  0.21897446512E-02  0.17124000029E+03  0.17124000000E+03 0.  1.
     -611    1    1    2    0    0 -0.44879797590E-01 -0.51093161275E-02  0.40388243066E+01  0.40390769171E+01  0.51109989000E-03 0. -1.
      611    1    1    2    0    0  0.47313634826E-01  0.14940386622E-01  0.13789789814E+01  0.13798714026E+01  0.51109989000E-03 0.  1.
</event>
<event>
 6   3  0.2312675E+03  0.9118800E+02  0.7818608E-02  0.1180000E+00
       11   -1    0    0    0    0  0.00000000000E+00  0.00000000000E+00  0.54999999763E+01  0.55000000000E+01  0.51109989000E-03 0.  1.
     -623   -1    0    0    0    0  0.00000000000E+00  0.00000000000E+00  0.93234578044E-11  0.17124000000E+03  0.17124000000E+03 0. -1.
       11    1    1    2    0    0  0.21680433274E-02 -0.21401831791E-01  0.82744887496E+00  0.82772860330E+00  0.51109989000E-03 0.  1.
     -623    1    1    2    0    0 -0.19537993896E-01  0.17058248871E-01  0.13365282371E-02  0.17124000197E+03  0.17124000000E+03 0. -1.
     -611    1    1    2    0    0 -0.29621257333E-01 -0.28714492813E-01  0.22017864919E+01  0.22021730082E+01  0.51109989000E-03 0.  1.
      611    1    1    2    0    0  0.46991207901E-01  0.33058075734E-01  0.24694280810E+01  0.24700964189E+01  0.51109989000E-03 0. -1.
</event>
<event>
 6   3  0.2312675E+03  0.9118800E+02  0.7818608E-02  0.1180000E+00
       11   -1    0    0    0    0  0.00000000000E+00  0.00000000000E+00  0.54999999763E+01  0.55000000000E+01  0.51109989000E-03 0.  1.
     -623   -1    0    0    0    0  0.00000000000E+00  0.00000000000E+00  0.93234578044E-11  0.17124000000E+03  0.17124000000E+03 0.  1.
       11    1    1    2    0    0  0.63013086358E-01 -0.27547106593E-01  0.34710412675E+00  0.35385170363E+00  0.51109989000E-03 0.  1.
     -623    1    1    2    0    0  0.54629440937E-02 -0.31689702797E-02  0.73414086171E-02  0.17124000027E+03  0.17124000000E+03 0.  1.
     -611    1    1    2    0    0 -0.31922042832E-01  0.26765001236E-02  0.20212415465E+01  0.20214954442E+01  0.51109989000E-03 0. -1.
      611    1    1    2    0    0 -0.36553987619E-01  0.28039576749E-01  0.31243128944E+01  0.31246525783E+01  0.51109989000E-03 0.  1.
</event>
<event>
 6   3  0.2312675E+03  0.9118800E+02  0.7818608E-02  0.1180000E+00
       11   -1    0    0    0    0  0.00000000000E+00  0.00000000000E+00  0.54999999763E+01  0.55000000000E+01  0.51109989000E-03 0. -1.
     -623   -1    0    0    0    0  0.00000000000E+00  0.00000000000E+00  0.93234578044E-11  0.17124000000E+03  0.17124000000E+03 0. -1.
       11    1    1    2    0    0  0.58053490209E-01 -0.27208038985E-01  0.43546460688E+00  0.44015925547E+00  0.51109989000E-03 0. -1.
     -623    1    1    2    0    0  0.21928852958E-01  0.16223994280E-01  0.53467043083E-02  0.17124000226E+03  0.17124000000E+03 0. -1.
     -611    1    1    2    0    0 -0.62753094532E-01  0.82017915687E-02  0.37619632037E+01  0.37624955319E+01  0.51109989000E-03 0. -1.
      611    1    1    2    0    0 -0.17229248633E-01  0.27822531362E-02  0.12972254612E+01  0.12973429563E+01  0.51109989000E-03 0.  1.
</event>
<event>
 6   3  0.2312675E+03  0.9118800E+02  0.7818608E-02  0.1180000E+00
       11   -1    0    0    0    0  0.00000000000E+00  0.00000000000E+00  0.54999999763E+01  0.55000000000E+01  0.51109989000E-03 0. -1.
     -623   -1    0    0    0    0  0.00000000000E+00  0.00000000000E+00  0.93234578044E-11  0.17124000000E+03  0.17124000000E+03 0.  1.
       11    1    1    2    0    0 -0.34955403396E-01 -0.66441151510E-02  0.98631142300E+00  0.98695314420E+00  0.51109989000E-03 0. -1.
     -623    1    1    2    0    0 -0.26658766101E-01 -0.13008448307E-01  0.11078017167E-02  0.17124000257E+03  0.17124000000E+03 0.  1.
     -611    1    1    2    0    0  0.30889184117E-01  0.97629605399E-02  0.22520145900E+01  0.22522476400E+01  0.51109989000E-03 0. -1.
      611    1    1    2    0    0  0.30724985394E-01  0.98896029227E-02  0.22605661625E+01  0.22607966440E+01  0.51109989000E-03 0. -1.
</event>
<event>
 6   3  0.2312675E+03  0.9118800E+02  0.7818608E-02  0.1180000E+00
       11   -1    0    0    0    0  0.00000000000E+00  0.00000000000E+00  0.54999999763E+01  0.55000000000E+01  0.51109989000E-03 0. -1.
     -623   -1    0    0    0    0  0.00000000000E+00  0.00000000000E+00  0.93234578044E-11  0.17124000000E+03  0.17124000000E+03 0. -1.
       11    1    1    2    0    0 -0.16613895112E-01 -0.19535057877E-01  0.45289781780E+00  0.45362356044E+00  0.51109989000E-03 0. -1.
     -623    1    1    2    0    0  0.27301273524E-01 -0.61583222103E-02  0.17358587944E-02  0.17124000230E+03  0.17124000000E+03 0. -1.
     -611    1    1    2    0    0  0.40920566962E-01  0.11577577224E-01  0.30269805124E+01  0.30272792764E+01  0.51109989000E-03 0. -1.
      611    1    1    2    0    0 -0.51607945374E-01  0.14115802863E-01  0.20183857872E+01  0.20190948673E+01  0.51109989000E-03 0.  1.
</event>
<event>
 6   3  0.2312675E+03  0.9118800E+02  0.7818608E-02  0.1180000E+00
       11   -1    0    0    0    0  0.00000000000E+00  0.00000000000E+00  0.54999999763E+01  0.55000000000E+01  0.51109989000E-03 0.  1.
     -623   -1    0    0    0    0  0.00000000000E+00  0.00000000000E+00  0.93234578044E-11  0.17124000000E+03  0.17124000000E+03 0.  1.
       11    1    1    2    0    0 -0.34749021511E-02  0.13924654789E-02  0.27036216593E-02  0.46459335170E-02  0.51109989000E-03 0.  1.
     -623    1    1    2    0    0 -0.26747346103E-02 -0.16186674296E-01  0.26134195395E-02  0.17124000081E+03  0.17124000000E+03 0.  1.
     -611    1    1    2    0    0  0.43575078647E-01  0.61809063532E-03  0.22373198140E+01  0.22377442617E+01  0.51109989000E-03 0. -1.
      611    1    1    2    0    0 -0.37425441885E-01  0.14176118182E-01  0.32573631210E+01  0.32576089988E+01  0.51109989000E-03 0.  1.
</event>
<event>
 6   3  0.2312675E+03  0.9118800E+02  0.7818608E-02  0.1180000E+00
       11   -1    0    0    0    0  0.00000000000E+00  0.00000000000E+00  0.54999999763E+01  0.55000000000E+01  0.51109989000E-03 0.  1.
     -623   -1    0    0    0    0  0.00000000000E+00  0.00000000000E+00  0.93234578044E-11  0.17124000000E+03  0.17124000000E+03 0. -1.
       11    1    1    2    0    0  0.76773699713E-01 -0.21986055537E-01  0.63042067905E+00  0.63545895336E+00  0.51109989000E-03 0.  1.
     -623    1    1    2    0    0 -0.60914677388E-01 -0.20064045477E-01  0.71033530540E-02  0.17124001216E+03  0.17124000000E+03 0. -1.
     -611    1    1    2    0    0 -0.47259420221E-01  0.77367713583E-01  0.36639649172E+01  0.36650864098E+01  0.51109989000E-03 0.  1.
      611    1    1    2    0    0  0.31400397896E-01 -0.35317612569E-01  0.11985110270E+01  0.11994424796E+01  0.51109989000E-03 0. -1.
</event>
<event>
 6   3  0.2312675E+03  0.9118800E+02  0.7818608E-02  0.1180000E+00
       11   -1    0    0    0    0  0.00000000000E+00  0.00000000000E+00  0.54999999763E+01  0.55000000000E+01  0.51109989000E-03 0.  1.
     -623   -1    0    0    0    0  0.00000000000E+00  0.00000000000E+00  0.93234578044E-11  0.17124000000E+03  0.17124000000E+03 0. -1.
       11    1    1    2    0    0  0.55581350036E-01 -0.21699044429E-01  0.51468402501E+00  0.51813129786E+00  0.51109989000E-03 0.  1.
     -623    1    1    2    0    0 -0.43191998647E-02  0.94440729075E-02  0.37268542815E-02  0.17124000036E+03  0.17124000000E+03 0. -1.
     -611    1    1    2    0    0 -0.34297881951E-01  0.79263757024E-02  0.34002391751E+01  0.34004214270E+01  0.51109989000E-03 0.  1.
      611    1    1    2    0    0 -0.16964268225E-01  0.43285958206E-02  0.15813499224E+01  0.15814469202E+01  0.51109989000E-03 0.  1.
</event>
<event>
 6   3  0.2312675E+03  0.9118800E+02  0.7818608E-02  0.1180000E+00
       11   -1    0    0    0    0  0.00000000000E+00  0.00000000000E+00  0.54999999763E+01  0.55000000000E+01  0.51109989000E-03 0.  1.
     -623   -1    0    0    0    0  0.00000000000E+00  0.00000000000E+00  0.93234578044E-11  0.17124000000E+03  0.17124000000E+03 0. -1.
       11    1    1    2    0    0  0.15785110861E-01 -0.10249201319E-01  0.45698955365E+00  0.45737722857E+00  0.51109989000E-03 0.  1.
     -623    1    1    2    0    0 -0.10010774732E-01 -0.20117105716E-02  0.32628221836E-02  0.17124000034E+03  0.17124000000E+03 0. -1.
     -611    1    1    2    0    0  0.67183949072E-01 -0.25177468371E-02  0.38280021156E+01  0.38285924934E+01  0.51109989000E-03 0.  1.
      611    1    1    2    0    0 -0.72958285201E-01  0.14778658728E-01  0.12117454849E+01  0.12140299426E+01  0.51109989000E-03 0. -1.
</event>
<event>
 6   3  0.2312675E+03  0.9118800E+02  0.7818608E-02  0.1180000E+00
       11   -1    0    0    0    0  0.00000000000E+00  0.00000000000E+00  0.54999999763E+01  0.55000000000E+01  0.51109989000E-03 0. -1.
     -623   -1    0    0    0    0  0.00000000000E+00  0.00000000000E+00  0.93234578044E-11  0.17124000000E+03  0.17124000000E+03 0. -1.
       11    1    1    2    0    0 -0.67326384230E-02 -0.22877723163E-01  0.17805659101E+00  0.17964723616E+00  0.51109989000E-03 0. -1.
     -623    1    1    2    0    0 -0.74166199855E-03  0.14542835480E-01  0.30659822673E-02  0.17124000065E+03  0.17124000000E+03 0. -1.
     -611    1    1    2    0    0  0.56910615128E-01  0.15743618826E-01  0.15211778832E+01  0.15223235836E+01  0.51109989000E-03 0.  1.
      611    1    1    2    0    0 -0.49436314706E-01 -0.74087311434E-02  0.37976995198E+01  0.37980285337E+01  0.51109989000E-03 0. -1.
</event>
<event>
 6   3  0.2312675E+03  0.9118800E+02  0.7818608E-02  0.1180000E+00
       11   -1    0    0    0    0  0.00000000000E+00  0.00000000000E+00  0.54999999763E+01  0.55000000000E+01  0.51109989000E-03 0.  1.
     -623   -1    0    0    0    0  0.00000000000E+00  0.00000000000E+00  0.93234578044E-11  0.17124000000E+03  0.17124000000E+03 0. -1.
       11    1    1    2    0    0  0.29197692661E-02 -0.31747576387E-02  0.48358086469E-02  0.65000313075E-02  0.51109989000E-03 0.  1.
     -623    1    1    2    0    0 -0.65233546895E-02  0.51309022146E-02  0.24363032637E-02  0.17124000022E+03  0.17124000000E+03 0. -1.
     -611    1    1    2    0    0 -0.43286843580E-01 -0.10199543517E-01  0.26491061335E+01  0.26494794488E+01  0.51109989000E-03 0.  1.
      611    1    1    2    0    0  0.46890429003E-01  0.82433989413E-02  0.28436217307E+01  0.28440203014E+01  0.51109989000E-03 0. -1.
</event>
<event>
 6   3  0.2312675E+03  0.9118800E+02  0.7818608E-02  0.1180000E+00
       11   -1    0    0    0    0  0.00000000000E+00  0.00000000000E+00  0.54999999763E+01  0.55000000000E+01  0.51109989000E-03 0.  1.
     -623   -1    0    0    0    0  0.00000000000E+00  0.00000000000E+00  0.93234578044E-11  0.17124000000E+03  0.17124000000E+03 0. -1.
       11    1    1    2    0    0  0.10615370368E+00  0.70702348552E-01  0.79104171504E+00  0.80125819001E+00  0.51109989000E-03 0.  1.
     -623    1    1    2    0    0  0.11210345704E-01 -0.53689596589E-02  0.12137871764E-01  0.17124000088E+03  0.17124000000E+03 0. -1.
     -611    1    1    2    0    0 -0.32798260209E-01 -0.18073537610E-01  0.13003257331E+01  0.13008649630E+01  0.51109989000E-03 0.  1.
      611    1    1    2    0    0 -0.84565789266E-01 -0.47259851335E-01  0.33964946601E+01  0.33978759695E+01  0.51109989000E-03 0.  1.
</event>
<event>
 6   3  0.2312675E+03  0.9118800E+02  0.7818608E-02  0.1180000E+00
       11   -1    0    0    0    0  0.00000000000E+00  0.00000000000E+00  0.54999999763E+01  0.55000000000E+01  0.51109989000E-03 0. -1.
     -623   -1    0    0    0    0  0.00000000000E+00  0.00000000000E+00  0.93234578044E-11  0.17124000000E+03  0.17124000000E+03 0.  1.
       11    1    1    2    0    0  0.17749439421E-01  0.28329506872E-01  0.10050328734E+01  0.10055888531E+01  0.51109989000E-03 0. -1.
     -623    1    1    2    0    0  0.53655441407E-01 -0.19280531406E-01  0.21545405543E-02  0.17124000951E+03  0.17124000000E+03 0.  1.
     -611    1    1    2    0    0 -0.90126059131E-01 -0.26461879334E-01  0.35265198544E+01  0.35277706108E+01  0.51109989000E-03 0. -1.
      611    1    1    2    0    0  0.18721178304E-01  0.17412903868E-01  0.96629270775E+00  0.96663103096E+00  0.51109989000E-03 0.  1.
</event>
<event>
 6   3  0.2312675E+03  0.9118800E+02  0.7818608E-02  0.1180000E+00
       11   -1    0    0    0    0  0.00000000000E+00  0.00000000000E+00  0.54999999763E+01  0.55000000000E+01  0.51109989000E-03 0. -1.
     -623   -1    0    0    0    0  0.00000000000E+00  0.00000000000E+00  0.93234578044E-11  0.17124000000E+03  0.17124000000E+03 0. -1.
       11    1    1    2    0    0 -0.35796050393E-04 -0.55012630855E-02  0.10980642304E-01  0.12292310824E-01  0.51109989000E-03 0. -1.
     -623    1    1    2    0    0 -0.15710778783E-02  0.61007560398E-03  0.20636855232E-02  0.17124000002E+03  0.17124000000E+03 0. -1.
     -611    1    1    2    0    0 -0.39627837302E-01 -0.17779680159E-01  0.23935805819E+01  0.23939746753E+01  0.51109989000E-03 0.  1.
      611    1    1    2    0    0  0.41234711231E-01  0.22670867640E-01  0.30933750665E+01  0.30937329931E+01  0.51109989000E-03 0. -1.
</event>
<event>
 6   3  0.2312675E+03  0.9118800E+02  0.7818608E-02  0.1180000E+00
       11   -1    0    0    0    0  0.00000000000E+00  0.00000000000E+00  0.54999999763E+01  0.55000000000E+01  0.51109989000E-03 0. -1.
     -623   -1    0    0    0    0  0.00000000000E+00  0.00000000000E+00  0.93234578044E-11  0.17124000000E+03  0.17124000000E+03 0.  1.
       11    1    1    2    0    0 -0.68011209895E-03 -0.38068208608E-03  0.19547653635E-01  0.19569860936E-01  0.51109989000E-03 0. -1.
     -623    1    1    2    0    0  0.15946705444E+00  0.16083546873E-01  0.24207145993E-02  0.17124007502E+03  0.17124000000E+03 0.  1.
     -611    1    1    2    0    0 -0.29527168252E-01 -0.27116558164E-02  0.10173460021E+01  0.10177781467E+01  0.51109989000E-03 0. -1.
      611    1    1    2    0    0 -0.12925977386E+00 -0.12991208948E-01  0.44606855980E+01  0.44625769603E+01  0.51109989000E-03 0. -1.
</event>
<event>
 6   3  0.2312675E+03  0.9118800E+02  0.7818608E-02  0.1180000E+00
       11   -1    0    0    0    0  0.00000000000E+00  0.00000000000E+00  0.54999999763E+01  0.55000000000E+01  0.51109989000E-03 0.  1.
     -623   -1    0    0    0    0  0.00000000000E+00  0.00000000000E+00  0.93234578044E-11  0.17124000000E+03  0.17124000000E+03 0. -1.
       11    1    1    2    0    0 -0.69796905216E-01 -0.18160473278E-01  0.29307537499E+00  0.30181922970E+00  0.51109989000E-03 0.  1.
     -623    1    1    2    0    0  0.12935986131E-01  0.11259212431E-01  0.90727390618E-02  0.17124000110E+03  0.17124000000E+03 0. -1.
     -611    1    1    2    0    0  0.43970439368E-01  0.38521070244E-02  0.43531906771E+01  0.43534144727E+01  0.51109989000E-03 0.  1.
      611    1    1    2    0    0  0.12890479717E-01  0.30491538231E-02  0.84466118497E+00  0.84476519840E+00  0.51109989000E-03 0. -1.
</event>
<event>
 6   3  0.2312675E+03  0.9118800E+02  0.7818608E-02  0.1180000E+00
       11   -1    0    0    0    0  0.00000000000E+00  0.00000000000E+00  0.54999999763E+01  0.55000000000E+01  0.51109989000E-03 0.  1.
     -623   -1    0    0    0    0  0.00000000000E+00  0.00000000000E+00  0.93234578044E-11  0.17124000000E+03  0.17124000000E+03 0.  1.
       11    1    1    2    0    0  0.54770908665E-01 -0.71352309424E-01  0.39567225034E+00  0.40576815475E+00  0.51109989000E-03 0.  1.
     -623    1    1    2    0    0  0.10980484385E-01  0.15105186135E-01  0.10838971037E-01  0.17124000136E+03  0.17124000000E+03 0.  1.
     -611    1    1    2    0    0 -0.52647056307E-01  0.48937441482E-01  0.42657201144E+01  0.42663256956E+01  0.51109989000E-03 0.  1.
      611    1    1    2    0    0 -0.13104336744E-01  0.73096818081E-02  0.82776864060E+00  0.82790478841E+00  0.51109989000E-03 0. -1.
</event>
<event>
 6   3  0.2312675E+03  0.9118800E+02  0.7818608E-02  0.1180000E+00
       11   -1    0    0    0    0  0.00000000000E+00  0.00000000000E+00  0.54999999763E+01  0.55000000000E+01  0.51109989000E-03 0.  1.
     -623   -1    0    0    0    0  0.00000000000E+00  0.00000000000E+00  0.93234578044E-11  0.17124000000E+03  0.17124000000E+03 0.  1.
       11    1    1    2    0    0 -0.56730857382E-03 -0.68886935311E-03  0.60082618839E-03  0.11910479461E-02  0.51109989000E-03 0.  1.
     -623    1    1    2    0    0  0.58800511032E-03 -0.26477151886E-02  0.11271631627E-02  0.17124000003E+03  0.17124000000E+03 0.  1.
     -611    1    1    2    0    0 -0.31955464277E-01  0.22962988745E-01  0.27976803671E+01  0.27979571383E+01  0.51109989000E-03 0. -1.
      611    1    1    2    0    0  0.31934767740E-01 -0.19626404204E-01  0.27005916198E+01  0.27008517885E+01  0.51109989000E-03 0.  1.
</event>
<event>
 6   3  0.2312675E+03  0.9118800E+02  0.7818608E-02  0.1180000E+00
       11   -1    0    0    0    0  0.00000000000E+00  0.00000000000E+00  0.54999999763E+01  0.55000000000E+01  0.51109989000E-03 0.  1.
     -623   -1    0    0    0    0  0.00000000000E+00  0.00000000000E+00  0.93234578044E-11  0.17124000000E+03  0.17124000000E+03 0.  1.
       11    1    1    2    0    0  0.78028846890E-02  0.24181311174E-01  0.72993095226E+00  0.73037324506E+00  0.51109989000E-03 0.  1.
     -623    1    1    2    0    0 -0.26517758816E-02 -0.31698781812E-01  0.19589231499E-02  0.17124000297E+03  0.17124000000E+03 0.  1.
     -611    1    1    2    0    0 -0.44341697493E-01 -0.35171862665E-01  0.16387886917E+01  0.16397658013E+01  0.51109989000E-03 0.  1.
      611    1    1    2    0    0  0.39190588686E-01  0.42689333303E-01  0.31293214092E+01  0.31298579879E+01  0.51109989000E-03 0. -1.
</event>
<event>
 6   3  0.2312675E+03  0.9118800E+02  0.7818608E-02  0.1180000E+00
       11   -1    0    0    0    0  0.00000000000E+00  0.00000000000E+00  0.54999999763E+01  0.55000000000E+01  0.51109989000E-03 0. -1.
     -623   -1    0    0    0    0  0.00000000000E+00  0.00000000000E+00  0.93234578044E-11  0.17124000000E+03  0.17124000000E+03 0.  1.
       11    1    1    2    0    0 -0.17226117600E-01 -0.11461839086E-01  0.51186634901E+00  0.51228462143E+00  0.51109989000E-03 0. -1.
     -623    1    1    2    0    0 -0.40870703230E-03  0.83913434869E-02  0.34324207929E-02  0.17124000024E+03  0.17124000000E+03 0.  1.
     -611    1    1    2    0    0  0.92944461090E-01  0.26288898988E-02  0.21432842336E+01  0.21453002473E+01  0.51109989000E-03 0.  1.
      611    1    1    2    0    0 -0.75309636458E-01  0.44160570044E-03  0.28414169729E+01  0.28424148908E+01  0.51109989000E-03 0. -1.
</event>
<event>
 6   3  0.2312675E+03  0.9118800E+02  0.7818608E-02  0.1180000E+00
       11   -1    0    0    0    0  0.00000000000E+00  0.00000000000E+00  0.54999999763E+01  0.55000000000E+01  0.51109989000E-03 0. -1.
     -623   -1    0    0    0    0  0.00000000000E+00  0.00000000000E+00  0.93234578044E-11  0.17124000000E+03  0.17124000000E+03 0. -1.
       11    1    1    2    0    0  0.52173249550E-03 -0.14879561374E-01  0.23401910957E+00  0.23449281102E+00  0.51109989000E-03 0. -1.
     -623    1    1    2    0    0 -0.55127088132E-01  0.33597358102E-01  0.13040648306E-02  0.17124001217E+03  0.17124000000E+03 0. -1.
     -611    1    1    2    0    0  0.71906779831E-01 -0.21997133139E-01  0.42393786785E+01  0.42400455539E+01  0.51109989000E-03 0. -1.
      611    1    1    2    0    0 -0.17301424194E-01  0.32793364107E-02  0.10252981234E+01  0.10254494607E+01  0.51109989000E-03 0.  1.
</event>
<event>
 6   3  0.2312675E+03  0.9118800E+02  0.7818608E-02  0.1180000E+00
       11   -1    0    0    0    0  0.00000000000E+00  0.00000000000E+00  0.54999999763E+01  0.55000000000E+01  0.51109989000E-03 0. -1.
     -623   -1    0    0    0    0  0.00000000000E+00  0.00000000000E+00  0.93234578044E-11  0.17124000000E+03  0.17124000000E+03 0. -1.
       11    1    1    2    0    0  0.28268668685E-01  0.34182814678E-01  0.10986741944E+01  0.10995693835E+01  0.51109989000E-03 0. -1.
     -623    1    1    2    0    0  0.52211861432E-01 -0.38964845081E-01  0.16463145871E-02  0.17124001240E+03  0.17124000000E+03 0. -1.
     -611    1    1    2    0    0 -0.34019594714E-01  0.20359781902E-02  0.18613370211E+01  0.18616490661E+01  0.51109989000E-03 0. -1.
      611    1    1    2    0    0 -0.46460935226E-01  0.27460522018E-02  0.25383424364E+01  0.25387691397E+01  0.51109989000E-03 0. -1.
</event>
<event>
 6   3  0.2312675E+03  0.9118800E+02  0.7818608E-02  0.1180000E+00
       11   -1    0    0    0    0  0.00000000000E+00  0.00000000000E+00  0.54999999763E+01  0.55000000000E+01  0.51109989000E-03 0.  1.
     -623   -1    0    0    0    0  0.00000000000E+00  0.00000000000E+00  0.93234578044E-11  0.17124000000E+03  0.17124000000E+03 0. -1.
       11    1    1    2    0    0  0.96780175570E-02  0.20090601219E-01  0.72753101618E+00  0.72787288520E+00  0.51109989000E-03 0.  1.
     -623    1    1    2    0    0  0.61718096150E-01 -0.59718000965E-02  0.90833799477E-03  0.17124001123E+03  0.17124000000E+03 0. -1.
     -611    1    1    2    0    0 -0.90122602054E-02 -0.18325408142E-02  0.59601675084E+00  0.59608791931E+00  0.51109989000E-03 0.  1.
      611    1    1    2    0    0 -0.62383853555E-01 -0.12286260319E-01  0.41755438748E+01  0.41760279704E+01  0.51109989000E-03 0.  1.
</event>
<event>
 6   3  0.2312675E+03  0.9118800E+02  0.7818608E-02  0.1180000E+00
       11   -1    0    0    0    0  0.00000000000E+00  0.00000000000E+00  0.54999999763E+01  0.55000000000E+01  0.51109989000E-03 0. -1.
     -623   -1    0    0    0    0  0.00000000000E+00  0.00000000000E+00  0.93234578044E-11  0.17124000000E+03  0.17124000000E+03 0.  1.
       11    1    1    2    0    0  0.17142766379E-01 -0.11537161024E-01  0.63520124780E-01  0.66798562850E-01  0.51109989000E-03 0. -1.
     -623    1    1    2    0    0  0.87879883046E-02  0.70105464852E-02  0.37640625861E-02  0.17124000041E+03  0.17124000000E+03 0.  1.
     -611    1    1    2    0    0 -0.47049557392E-01 -0.82706607631E-02  0.34181611097E+01  0.34184949463E+01  0.51109989000E-03 0. -1.
      611    1    1    2    0    0  0.21118802708E-01  0.12797275302E-01  0.20145546792E+01  0.20147060805E+01  0.51109989000E-03 0.  1.
</event>
<event>
 6   3  0.2312675E+03  0.9118800E+02  0.7818608E-02  0.1180000E+00
       11   -1    0    0    0    0  0.00000000000E+00  0.00000000000E+00  0.54999999763E+01  0.55000000000E+01  0.51109989000E-03 0. -1.
     -623   -1    0    0    0    0  0.00000000000E+00  0.00000000000E+00  0.93234578044E-11  0.17124000000E+03  0.17124000000E+03 0.  1.
       11    1    1    2    0    0 -0.38891260441E-02  0.61869694846E-02  0.11287579264E-01  0.13456394819E-01  0.51109989000E-03 0. -1.
     -623    1    1    2    0    0 -0.27234729485E-01  0.22289889740E-02  0.27301385251E-02  0.17124000220E+03  0.17124000000E+03 0.  1.
     -611    1    1    2    0    0 -0.19886411441E-01 -0.90889676533E-02  0.86086347467E+00  0.86114125551E+00  0.51109989000E-03 0.  1.
      611    1    1    2    0    0  0.51010266970E-01  0.67300919466E-03  0.46251187838E+01  0.46254001476E+01  0.51109989000E-03 0. -1.
</event>
<event>
 6   3  0.2312675E+03  0.9118800E+02  0.7818608E-02  0.1180000E+00
       11   -1    0    0    0    0  0.00000000000E+00  0.00000000000E+00  0.54999999763E+01  0.55000000000E+01  0.51109989000E-03 0.  1.
     -623   -1    0    0    0    0  0.00000000000E+00  0.00000000000E+00  0.93234578044E-11  0.17124000000E+03  0.17124000000E+03 0. -1.
       11    1    1    2    0    0 -0.97665008907E-02  0.90118452281E-03  0.64760853140E+00  0.64768299950E+00  0.51109989000E-03 0.  1.
     -623    1    1    2    0    0  0.79207569548E-01 -0.65559381714E-02  0.59343457850E-03  0.17124001845E+03  0.17124000000E+03 0. -1.
     -611    1    1    2    0    0 -0.23590314164E-01  0.17158212025E-02  0.16016163947E+01  0.16017911175E+01  0.51109989000E-03 0. -1.
      611    1    1    2    0    0 -0.45850757634E-01  0.39389327061E-02  0.32501818337E+01  0.32505076558E+01  0.51109989000E-03 0.  1.
</event>
<event>
 6   3  0.2312675E+03  0.9118800E+02  0.7818608E-02  0.1180000E+00
       11   -1    0    0    0    0  0.00000000000E+00  0.00000000000E+00  0.54999999763E+01  0.55000000000E+01  0.51109989000E-03 0. -1.
     -623   -1    0    0    0    0  0.00000000000E+00  0.00000000000E+00  0.93234578044E-11  0.17124000000E+03  0.17124000000E+03 0. -1.
       11    1    1    2    0    0  0.51604989007E-02 -0.13162553719E-01  0.14974474927E+00  0.15041155117E+00  0.51109989000E-03 0. -1.
     -623    1    1    2    0    0 -0.41381227569E-02 -0.82441957274E-03  0.17783936718E-02  0.17124000006E+03  0.17124000000E+03 0. -1.
     -611    1    1    2    0    0 -0.44314153595E-01  0.30510775288E-01  0.17862632452E+01  0.17870733880E+01  0.51109989000E-03 0.  1.
      611    1    1    2    0    0  0.43291777451E-01 -0.16523801996E-01  0.35622135881E+01  0.35625149996E+01  0.51109989000E-03 0. -1.
</event>
<event>
 6   3  0.2312675E+03  0.9118800E+02  0.7818608E-02  0.1180000E+00
       11   -1    0    0    0    0  0.00000000000E+00  0.00000000000E+00  0.54999999763E+01  0.55000000000E+01  0.51109989000E-03 0. -1.
     -623   -1    0    0    0    0  0.00000000000E+00  0.00000000000E+00  0.93234578044E-11  0.17124000000E+03  0.17124000000E+03 0. -1.
       11    1    1    2    0    0  0.88299164340E-02 -0.78188256134E-02  0.51729709216E+00  0.51743177738E+00  0.51109989000E-03 0. -1.
     -623    1    1    2    0    0 -0.62158171683E-01 -0.19268184426E-02  0.44124726072E-03  0.17124001129E+03  0.17124000000E+03 0. -1.
     -611    1    1    2    0    0  0.37983525015E-01  0.75480795580E-02  0.35904741225E+01  0.35906830001E+01  0.51109989000E-03 0. -1.
      611    1    1    2    0    0  0.15344730246E-01  0.21975645014E-02  0.13917875156E+01  0.13918739310E+01  0.51109989000E-03 0.  1.
</event>
<event>
 6   3  0.2312675E+03  0.9118800E+02  0.7818608E-02  0.1180000E+00
       11   -1    0    0    0    0  0.00000000000E+00  0.00000000000E+00  0.54999999763E+01  0.55000000000E+01  0.51109989000E-03 0. -1.
     -623   -1    0    0    0    0  0.00000000000E+00  0.00000000000E+00  0.93234578044E-11  0.17124000000E+03  0.17124000000E+03 0.  1.
       11    1    1    2    0    0 -0.25116798974E-02 -0.48057581183E-03  0.63527515673E-02  0.68671802504E-02  0.51109989000E-03 0. -1.
     -623    1    1    2    0    0  0.24759612657E-02 -0.16543091964E-02  0.22834156439E-02  0.17124000004E+03  0.17124000000E+03 0.  1.
     -611    1    1    2    0    0 -0.59333042637E-01 -0.11482394691E-01  0.40891223830E+01  0.40895689723E+01  0.51109989000E-03 0. -1.
      611    1    1    2    0    0  0.59368761269E-01  0.13617279699E-01  0.14022414261E+01  0.14035638063E+01  0.51109989000E-03 0.  1.
</event>
<event>
 6   3  0.2312675E+03  0.9118800E+02  0.7818608E-02  0.1180000E+00
       11   -1    0    0    0    0  0.00000000000E+00  0.00000000000E+00  0.54999999763E+01  0.55000000000E+01  0.51109989000E-03 0.  1.
     -623   -1    0    0    0    0  0.00000000000E+00  0.00000000000E+00  0.93234578044E-11  0.17124000000E+03  0.17124000000E+03 0. -1.
       11    1    1    2    0    0  0.50607768028E-02  0.32025609293E-03  0.10820661705E-01  0.11960851501E-01  0.51109989000E-03 0.  1.
     -623    1    1    2    0    0 -0.55387478435E-02 -0.30592023435E-02  0.18161284102E-02  0.17124000013E+03  0.17124000000E+03 0. -1.
     -611    1    1    2    0    0 -0.41043448564E-01  0.10331275853E-01  0.22231412208E+01  0.22235441189E+01  0.51109989000E-03 0. -1.
      611    1    1    2    0    0  0.41521419605E-01 -0.75923296019E-02  0.32642219654E+01  0.32644949031E+01  0.51109989000E-03 0.  1.
</event>
<event>
 6   3  0.2312675E+03  0.9118800E+02  0.7818608E-02  0.1180000E+00
       11   -1    0    0    0    0  0.00000000000E+00  0.00000000000E+00  0.54999999763E+01  0.55000000000E+01  0.51109989000E-03 0. -1.
     -623   -1    0    0    0    0  0.00000000000E+00  0.00000000000E+00  0.93234578044E-11  0.17124000000E+03  0.17124000000E+03 0.  1.
       11    1    1    2    0    0 -0.34554794414E-01 -0.16737784474E-01  0.97944955518E+00  0.98020195859E+00  0.51109989000E-03 0. -1.
     -623    1    1    2    0    0 -0.28312755918E-01 -0.22189492381E-01  0.13614061210E-02  0.17124000378E+03  0.17124000000E+03 0.  1.
     -611    1    1    2    0    0  0.79801912493E-02  0.47191260112E-02  0.55448310254E+00  0.55456084051E+00  0.51109989000E-03 0.  1.
      611    1    1    2    0    0  0.54887359075E-01  0.34208150839E-01  0.39647059119E+01  0.39652334167E+01  0.51109989000E-03 0. -1.
</event>
<event>
 6   3  0.2312675E+03  0.9118800E+02  0.7818608E-02  0.1180000E+00
       11   -1    0    0    0    0  0.00000000000E+00  0.00000000000E+00  0.54999999763E+01  0.55000000000E+01  0.51109989000E-03 0. -1.
     -623   -1    0    0    0    0  0.00000000000E+00  0.00000000000E+00  0.93234578044E-11  0.17124000000E+03  0.17124000000E+03 0.  1.
       11    1    1    2    0    0  0.17458824392E-01  0.31447005977E-01  0.11170262540E+00  0.11735187462E+00  0.51109989000E-03 0. -1.
     -623    1    1    2    0    0 -0.34853114760E-01 -0.38568319892E-01  0.11191403701E-01  0.17124000826E+03  0.17124000000E+03 0.  1.
     -611    1    1    2    0    0 -0.89930004079E-01  0.25083229706E-01  0.10436353120E+01  0.10478031780E+01  0.51109989000E-03 0. -1.
      611    1    1    2    0    0  0.10732429445E+00 -0.17961915792E-01  0.43334706351E+01  0.43348366914E+01  0.51109989000E-03 0.  1.
</event>
<event>
 6   3  0.2312675E+03  0.9118800E+02  0.7818608E-02  0.1180000E+00
       11   -1    0    0    0    0  0.00000000000E+00  0.00000000000E+00  0.54999999763E+01  0.55000000000E+01  0.51109989000E-03 0.  1.
     -623   -1    0    0    0    0  0.00000000000E+00  0.00000000000E+00  0.93234578044E-11  0.17124000000E+03  0.17124000000E+03 0. -1.
       11    1    1    2    0    0  0.13846484078E-02 -0.60322460714E-01  0.75718167384E+00  0.75958216471E+00  0.51109989000E-03 0.  1.
     -623    1    1    2    0    0  0.60465776025E-01  0.46913118773E-01  0.28409631992E-02  0.17124001713E+03  0.17124000000E+03 0. -1.
     -611    1    1    2    0    0 -0.18072235729E-01  0.28114390474E-02  0.13285213657E+01  0.13286473536E+01  0.51109989000E-03 0.  1.
      611    1    1    2    0    0 -0.43778188708E-01  0.10597902894E-01  0.34114559738E+01  0.34117533568E+01  0.51109989000E-03 0.  1.
</event>
<event>
 6   3  0.2312675E+03  0.9118800E+02  0.7818608E-02  0.1180000E+00
       11   -1    0    0    0    0  0.00000000000E+00  0.00000000000E+00  0.54999999763E+01  0.55000000000E+01  0.51109989000E-03 0.  1.
     -623   -1    0    0    0    0  0.00000000000E+00  0.00000000000E+00  0.93234578044E-11  0.17124000000E+03  0.17124000000E+03 0. -1.
       11    1    1    2    0    0 -0.42650282485E-01  0.14254290356E-01  0.40515438217E+00  0.40764269404E+00  0.51109989000E-03 0.  1.
     -623    1    1    2    0    0 -0.26517563807E-01 -0.41851730952E-01  0.30468763534E-02  0.17124000719E+03  0.17124000000E+03 0. -1.
     -611    1    1    2    0    0  0.41071806796E-01  0.20076346397E-01  0.32548403922E+01  0.32551614696E+01  0.51109989000E-03 0.  1.
      611    1    1    2    0    0  0.28096039496E-01  0.75210941981E-02  0.18369583255E+01  0.18371886417E+01  0.51109989000E-03 0. -1.
</event>
<event>
 6   3  0.2312675E+03  0.9118800E+02  0.7818608E-02  0.1180000E+00
       11   -1    0    0    0    0  0.00000000000E+00  0.00000000000E+00  0.54999999763E+01  0.55000000000E+01  0.51109989000E-03 0. -1.
     -623   -1    0    0    0    0  0.00000000000E+00  0.00000000000E+00  0.93234578044E-11  0.17124000000E+03  0.17124000000E+03 0.  1.
       11    1    1    2    0    0 -0.47293236126E-01 -0.26844986078E-01  0.30747292006E+00  0.31224535426E+00  0.51109989000E-03 0. -1.
     -623    1    1    2    0    0 -0.21897543286E-01 -0.42399086156E-01  0.57030125970E-02  0.17124000674E+03  0.17124000000E+03 0.  1.
     -611    1    1    2    0    0  0.60543967757E-01  0.60510679478E-01  0.45290616641E+01  0.45298705205E+01  0.51109989000E-03 0. -1.
      611    1    1    2    0    0  0.86468116112E-02  0.87333927123E-02  0.65776237622E+00  0.65787737785E+00  0.51109989000E-03 0. -1.
</event>
<event>
 6   3  0.2312675E+03  0.9118800E+02  0.7818608E-02  0.1180000E+00
       11   -1    0    0    0    0  0.00000000000E+00  0.00000000000E+00  0.54999999763E+01  0.55000000000E+01  0.51109989000E-03 0. -1.
     -623   -1    0    0    0    0  0.00000000000E+00  0.00000000000E+00  0.93234578044E-11  0.17124000000E+03  0.17124000000E+03 0. -1.
       11    1    1    2    0    0 -0.14897412095E-01 -0.79099012609E-03  0.56187677646E+00  0.56207502320E+00  0.51109989000E-03 0. -1.
     -623    1    1    2    0    0 -0.36451692927E-01 -0.91809009516E-02  0.47962554411E-03  0.17124000413E+03  0.17124000000E+03 0. -1.
     -611    1    1    2    0    0  0.92487554329E-02  0.15981154194E-02  0.89573167687E+00  0.89578099535E+00  0.51109989000E-03 0. -1.
      611    1    1    2    0    0  0.42100349597E-01  0.83737756597E-02  0.40419118981E+01  0.40421398556E+01  0.51109989000E-03 0. -1.
</event>
<event>
 6   3  0.2312675E+03  0.9118800E+02  0.7818608E-02  0.1180000E+00
       11   -1    0    0    0    0  0.00000000000E+00  0.00000000000E+00  0.54999999763E+01  0.55000000000E+01  0.51109989000E-03 0.  1.
     -623   -1    0    0    0    0  0.00000000000E+00  0.00000000000E+00  0.93234578044E-11  0.17124000000E+03  0.17124000000E+03 0.  1.
       11    1    1    2    0    0  0.10320014761E-01  0.20590561498E-01  0.22374959471E+00  0.22493247050E+00  0.51109989000E-03 0.  1.
     -623    1    1    2    0    0 -0.11992110998E-01  0.73800221656E-03  0.27213757451E-02  0.17124000044E+03  0.17124000000E+03 0.  1.
     -611    1    1    2    0    0  0.58193146924E-01 -0.71012105037E-02  0.36900647341E+01  0.36905304324E+01  0.51109989000E-03 0.  1.
      611    1    1    2    0    0 -0.56521050687E-01 -0.14227353210E-01  0.15834642717E+01  0.15845366540E+01  0.51109989000E-03 0. -1.
</event>
<event>
 6   3  0.2312675E+03  0.9118800E+02  0.7818608E-02  0.1180000E+00
       11   -1    0    0    0    0  0.00000000000E+00  0.00000000000E+00  0.54999999763E+01  0.55000000000E+01  0.51109989000E-03 0.  1.
     -623   -1    0    0    0    0  0.00000000000E+00  0.00000000000E+00  0.93234578044E-11  0.17124000000E+03  0.17124000000E+03 0.  1.
       11    1    1    2    0    0 -0.80765135053E-01 -0.29522692253E-01  0.86791783490E+00  0.87216754454E+00  0.51109989000E-03 0.  1.
     -623    1    1    2    0    0  0.38705749906E-02  0.27015789948E-02  0.50955863597E-02  0.17124000014E+03  0.17124000000E+03 0.  1.
     -611    1    1    2    0    0  0.33468367666E-01  0.29295804805E-01  0.20956574964E+01  0.20961295235E+01  0.51109989000E-03 0. -1.
      611    1    1    2    0    0  0.43426192397E-01 -0.24746915458E-02  0.25313290586E+01  0.25317027911E+01  0.51109989000E-03 0.  1.
</event>
<event>
 6   3  0.2312675E+03  0.9118800E+02  0.7818608E-02  0.1180000E+00
       11   -1    0    0    0    0  0.00000000000E+00  0.00000000000E+00  0.54999999763E+01  0.55000000000E+01  0.51109989000E-03 0. -1.
     -623   -1    0    0    0    0  0.00000000000E+00  0.00000000000E+00  0.93234578044E-11  0.17124000000E+03  0.17124000000E+03 0. -1.
       11    1    1    2    0    0 -0.73257923796E-01 -0.23802874375E-01  0.91239427948E+00  0.91564014912E+00  0.51109989000E-03 0. -1.
     -623    1    1    2    0    0  0.13681311300E-01 -0.40325556659E-02  0.37215666557E-02  0.17124000063E+03  0.17124000000E+03 0. -1.
     -611    1    1    2    0    0  0.10559286328E-01  0.73024055594E-02  0.87639994676E+00  0.87649412522E+00  0.51109989000E-03 0. -1.
      611    1    1    2    0    0  0.49017326173E-01  0.20533024483E-01  0.37074841838E+01  0.37078650916E+01  0.51109989000E-03 0.  1.
</event>
<event>
 6   3  0.2312675E+03  0.9118800E+02  0.7818608E-02  0.1180000E+00
       11   -1    0    0    0    0  0.00000000000E+00  0.00000000000E+00  0.54999999763E+01  0.55000000000E+01  0.51109989000E-03 0.  1.
     -623   -1    0    0    0    0  0.00000000000E+00  0.00000000000E+00  0.93234578044E-11  0.17124000000E+03  0.17124000000E+03 0.  1.
       11    1    1    2    0    0  0.41140614806E-01  0.98986628578E-02  0.98064161079E+00  0.98155425920E+00  0.51109989000E-03 0.  1.
     -623    1    1    2    0    0  0.79073262742E-02 -0.12214951354E-01  0.11824070827E-02  0.17124000062E+03  0.17124000000E+03 0.  1.
     -611    1    1    2    0    0 -0.10172269425E-01 -0.12971330881E-02  0.91649152974E+00  0.91654904011E+00  0.51109989000E-03 0. -1.
      611    1    1    2    0    0 -0.38875671651E-01  0.36134215842E-02  0.36016844283E+01  0.36018960780E+01  0.51109989000E-03 0.  1.
</event>
<event>
 6   3  0.2312675E+03  0.9118800E+02  0.7818608E-02  0.1180000E+00
       11   -1    0    0    0    0  0.00000000000E+00  0.00000000000E+00  0.54999999763E+01  0.55000000000E+01  0.51109989000E-03 0.  1.
     -623   -1    0    0    0    0  0.00000000000E+00  0.00000000000E+00  0.93234578044E-11  0.17124000000E+03  0.17124000000E+03 0. -1.
       11    1    1    2    0    0 -0.29548036107E-01 -0.53008600972E-02  0.10650436194E+01  0.10654667325E+01  0.51109989000E-03 0.  1.
     -623    1    1    2    0    0 -0.41336143373E-01  0.10086224241E-01  0.99838747977E-03  0.17124000529E+03  0.17124000000E+03 0. -1.
     -611    1    1    2    0    0  0.36446773587E-01 -0.37439159854E-02  0.22913506560E+01  0.22916436185E+01  0.51109989000E-03 0. -1.
      611    1    1    2    0    0  0.34437405866E-01 -0.10414481564E-02  0.21426073117E+01  0.21428843583E+01  0.51109989000E-03 0.  1.
</event>
<event>
 6   3  0.2312675E+03  0.9118800E+02  0.7818608E-02  0.1180000E+00
       11   -1    0    0    0    0  0.00000000000E+00  0.00000000000E+00  0.54999999763E+01  0.55000000000E+01  0.51109989000E-03 0.  1.
     -623   -1    0    0    0    0  0.00000000000E+00  0.00000000000E+00  0.93234578044E-11  0.17124000000E+03  0.17124000000E+03 0. -1.
       11    1    1    2    0    0 -0.11921993031E+00 -0.21262281762E-01  0.74200768655E+00  0.75182520876E+00  0.51109989000E-03 0.  1.
     -623    1    1    2    0    0 -0.18561343799E-01  0.32134702816E-01  0.11876077997E-01  0.17124000443E+03  0.17124000000E+03 0. -1.
     -611    1    1    2    0    0  0.11319504110E+00 -0.14893814969E-01  0.40472467624E+01  0.40488568214E+01  0.51109989000E-03 0.  1.
      611    1    1    2    0    0  0.24586233013E-01  0.40213939162E-02  0.69886944925E+00  0.69931353682E+00  0.51109989000E-03 0. -1.
</event>
<event>
 6   3  0.2312675E+03  0.9118800E+02  0.7818608E-02  0.1180000E+00
       11   -1    0    0    0    0  0.00000000000E+00  0.00000000000E+00  0.54999999763E+01  0.55000000000E+01  0.51109989000E-03 0. -1.
     -623   -1    0    0    0    0  0.00000000000E+00  0.00000000000E+00  0.93234578044E-11  0.17124000000E+03  0.17124000000E+03 0. -1.
       11    1    1    2    0    0 -0.58813168330E-01  0.28875948829E-01  0.13862517867E+00  0.15332974459E+00  0.51109989000E-03 0. -1.
     -623    1    1    2    0    0 -0.41356600700E-02 -0.10248288371E-01  0.15108781344E-01  0.17124000102E+03  0.17124000000E+03 0. -1.
     -611    1    1    2    0    0  0.17347826568E-01 -0.52020366619E-02  0.14452886706E+01  0.14454022315E+01  0.51109989000E-03 0. -1.
      611    1    1    2    0    0  0.45601001722E-01 -0.13425623763E-01  0.39009773362E+01  0.39012669913E+01  0.51109989000E-03 0. -1.
</event>
<event>
 6   3  0.2312675E+03  0.9118800E+02  0.7818608E-02  0.1180000E+00
       11   -1    0    0    0    0  0.00000000000E+00  0.00000000000E+00  0.54999999763E+01  0.55000000000E+01  0.51109989000E-03 0. -1.
     -623   -1    0    0    0    0  0.00000000000E+00  0.00000000000E+00  0.93234578044E-11  0.17124000000E+03  0.17124000000E+03 0. -1.
       11    1    1    2    0    0 -0.52645047455E-01 -0.24930187950E-02  0.55440095081E+00  0.55690070178E+00  0.51109989000E-03 0. -1.
     -623    1    1    2    0    0  0.24408678371E-02 -0.27892753932E-02  0.27591171219E-02  0.17124000006E+03  0.17124000000E+03 0. -1.
     -611    1    1    2    0    0  0.39948579992E-01  0.56878463716E-02  0.39568340644E+01  0.39570398425E+01  0.51109989000E-03 0. -1.
      611    1    1    2    0    0  0.10255599626E-01 -0.40555218351E-03  0.98600584395E+00  0.98605939340E+00  0.51109989000E-03 0.  1.
</event>
<event>
 6   3  0.2312675E+03  0.9118800E+02  0.7818608E-02  0.1180000E+00
       11   -1    0    0    0    0  0.00000000000E+00  0.00000000000E+00  0.54999999763E+01  0.55000000000E+01  0.51109989000E-03 0.  1.
     -623   -1    0    0    0    0  0.00000000000E+00  0.00000000000E+00  0.93234578044E-11  0.17124000000E+03  0.17124000000E+03 0. -1.
       11    1    1    2    0    0 -0.51788337174E-01 -0.49432854875E-02  0.41074423414E+00  0.41402603184E+00  0.51109989000E-03 0.  1.
     -623    1    1    2    0    0 -0.32422891777E-02 -0.12467303358E-03  0.35843894047E-02  0.17124000007E+03  0.17124000000E+03 0. -1.
     -611    1    1    2    0    0  0.12451549600E-01 -0.44740460201E-03  0.10439499936E+01  0.10440244689E+01  0.51109989000E-03 0. -1.
      611    1    1    2    0    0  0.42579076748E-01  0.55153631227E-02  0.40417213589E+01  0.40419494308E+01  0.51109989000E-03 0.  1.
</event>
<event>
 6   3  0.2312675E+03  0.9118800E+02  0.7818608E-02  0.1180000E+00
       11   -1    0    0    0    0  0.00000000000E+00  0.00000000000E+00  0.54999999763E+01  0.55000000000E+01  0.51109989000E-03 0. -1.
     -623   -1    0    0    0    0  0.00000000000E+00  0.00000000000E+00  0.93234578044E-11  0.17124000000E+03  0.17124000000E+03 0. -1.
       11    1    1    2    0    0 -0.94654897184E-02 -0.36760385260E-02  0.72598277785E-01  0.73306752181E-01  0.51109989000E-03 0. -1.
     -623    1    1    2    0    0 -0.77553999111E-01  0.43459353111E-01  0.15794521321E-02  0.17124002308E+03  0.17124000000E+03 0. -1.
     -611    1    1    2    0    0  0.41939745376E-01 -0.22818662440E-01  0.27401746672E+01  0.27405906483E+01  0.51109989000E-03 0. -1.
      611    1    1    2    0    0  0.45079743458E-01 -0.16964652147E-01  0.26856475795E+01  0.26860795158E+01  0.51109989000E-03 0.  1.
</event>
<event>
 6   3  0.2312675E+03  0.9118800E+02  0.7818608E-02  0.1180000E+00
       11   -1    0    0    0    0  0.00000000000E+00  0.00000000000E+00  0.54999999763E+01  0.55000000000E+01  0.51109989000E-03 0.  1.
     -623   -1    0    0    0    0  0.00000000000E+00  0.00000000000E+00  0.93234578044E-11  0.17124000000E+03  0.17124000000E+03 0. -1.
       11    1    1    2    0    0 -0.22442244286E-01 -0.20566134183E-01  0.61023535336E+00  0.61099432724E+00  0.51109989000E-03 0.  1.
     -623    1    1    2    0    0 -0.34187796167E-01  0.18908075884E-01  0.10938631658E-02  0.17124000446E+03  0.17124000000E+03 0. -1.
     -611    1    1    2    0    0  0.44691138501E-01  0.26945877020E-02  0.37513390851E+01  0.37516062894E+01  0.51109989000E-03 0.  1.
      611    1    1    2    0    0  0.11938901959E-01 -0.10365294037E-02  0.11373316753E+01  0.11373949238E+01  0.51109989000E-03 0. -1.
</event>
<event>
 6   3  0.2312675E+03  0.9118800E+02  0.7818608E-02  0.1180000E+00
       11   -1    0    0    0    0  0.00000000000E+00  0.00000000000E+00  0.54999999763E+01  0.55000000000E+01  0.51109989000E-03 0. -1.
     -623   -1    0    0    0    0  0.00000000000E+00  0.00000000000E+00  0.93234578044E-11  0.17124000000E+03  0.17124000000E+03 0. -1.
       11    1    1    2    0    0  0.22243497828E-01 -0.31606213431E-01  0.90943293295E+00  0.91025394626E+00  0.51109989000E-03 0. -1.
     -623    1    1    2    0    0  0.26672818441E-01  0.47715952242E-01  0.11189183663E-02  0.17124000873E+03  0.17124000000E+03 0. -1.
     -611    1    1    2    0    0 -0.15562915476E-01 -0.56342957322E-02  0.14692089245E+01  0.14693022408E+01  0.51109989000E-03 0. -1.
      611    1    1    2    0    0 -0.33353400780E-01 -0.10475443073E-01  0.31202391991E+01  0.31204350827E+01  0.51109989000E-03 0. -1.
</event>
<event>
 6   3  0.2312675E+03  0.9118800E+02  0.7818608E-02  0.1180000E+00
       11   -1    0    0    0    0  0.00000000000E+00  0.00000000000E+00  0.54999999763E+01  0.55000000000E+01  0.51109989000E-03 0.  1.
     -623   -1    0    0    0    0  0.00000000000E+00  0.00000000000E+00  0.93234578044E-11  0.17124000000E+03  0.17124000000E+03 0.  1.
       11    1    1    2    0    0 -0.31121923637E-02 -0.12575329793E-01  0.14172441219E+00  0.14231617931E+00  0.51109989000E-03 0.  1.
     -623    1    1    2    0    0 -0.10936245653E-02  0.65620264462E-02  0.20299658443E-02  0.17124000014E+03  0.17124000000E+03 0.  1.
     -611    1    1    2    0    0 -0.50227263498E-01  0.26210713937E-01  0.16271493061E+01  0.16281354075E+01  0.51109989000E-03 0. -1.
      611    1    1    2    0    0  0.54433080427E-01 -0.20197410590E-01  0.37290962922E+01  0.37295482720E+01  0.51109989000E-03 0.  1.
</event>
<event>
 6   3  0.2312675E+03  0.9118800E+02  0.7818608E-02  0.1180000E+00
       11   -1    0    0    0    0  0.00000000000E+00  0.00000000000E+00  0.54999999763E+01  0.55000000000E+01  0.51109989000E-03 0. -1.
     -623   -1    0    0    0    0  0.00000000000E+00  0.00000000000E+00  0.93234578044E-11  0.17124000000E+03  0.17124000000E+03 0.  1.
       11    1    1    2    0    0 -0.43134077515E-01 -0.13627870922E-01  0.51220747152E+00  0.51420134443E+00  0.51109989000E-03 0. -1.
     -623    1    1    2    0    0 -0.39804885757E-01 -0.57975558005E-01  0.32131138458E-02  0.17124001447E+03  0.17124000000E+03 0.  1.
     -611    1    1    2    0    0  0.37728671541E-01  0.31597903701E-01  0.21990744742E+01  0.21996251236E+01  0.51109989000E-03 0. -1.
      611    1    1    2    0    0  0.45210291722E-01  0.40005525218E-01  0.27855049161E+01  0.27861590607E+01  0.51109989000E-03 0. -1.
</event>
<event>
 6   3  0.2312675E+03  0.9118800E+02  0.7818608E-02  0.1180000E+00
       11   -1    0    0    0    0  0.00000000000E+00  0.00000000000E+00  0.54999999763E+01  0.55000000000E+01  0.51109989000E-03 0. -1.
     -623   -1    0    0    0    0  0.00000000000E+00  0.00000000000E+00  0.93234578044E-11  0.17124000000E+03  0.17124000000E+03 0.  1.
       11    1    1    2    0    0 -0.67152866629E-01 -0.93300550295E-01  0.33659992034E+00  0.35568844201E+00  0.51109989000E-03 0. -1.
     -623    1    1    2    0    0 -0.85285817258E-01 -0.40674685069E-01  0.23421820353E-01  0.17124002767E+03  0.17124000000E+03 0.  1.
     -611    1    1    2    0    0  0.77384787712E-01  0.32203826997E-01  0.19530635330E+01  0.19548613549E+01  0.51109989000E-03 0. -1.
      611    1    1    2    0    0  0.75053896176E-01  0.10177140837E+00  0.31869147026E+01  0.31894225323E+01  0.51109989000E-03 0.  1.
</event>
<event>
 6   3  0.2312675E+03  0.9118800E+02  0.7818608E-02  0.1180000E+00
       11   -1    0    0    0    0  0.00000000000E+00  0.00000000000E+00  0.54999999763E+01  0.55000000000E+01  0.51109989000E-03 0.  1.
     -623   -1    0    0    0    0  0.00000000000E+00  0.00000000000E+00  0.93234578044E-11  0.17124000000E+03  0.17124000000E+03 0.  1.
       11    1    1    2    0    0 -0.59647442520E-03 -0.10572077732E-02  0.23542626695E+00  0.23542995107E+00  0.51109989000E-03 0.  1.
     -623    1    1    2    0    0  0.77126548516E-01 -0.81946829600E-01  0.12536983242E-02  0.17124003698E+03  0.17124000000E+03 0.  1.
     -611    1    1    2    0    0 -0.46424738288E-01  0.50117780322E-01  0.30741589705E+01  0.30749179966E+01  0.51109989000E-03 0. -1.
      611    1    1    2    0    0 -0.30105335790E-01  0.32886257038E-01  0.21891610395E+01  0.21896150701E+01  0.51109989000E-03 0.  1.
</event>
<event>
 6   3  0.2312675E+03  0.9118800E+02  0.7818608E-02  0.1180000E+00
       11   -1    0    0    0    0  0.00000000000E+00  0.00000000000E+00  0.54999999763E+01  0.55000000000E+01  0.51109989000E-03 0.  1.
     -623   -1    0    0    0    0  0.00000000000E+00  0.00000000000E+00  0.93234578044E-11  0.17124000000E+03  0.17124000000E+03 0.  1.
       11    1    1    2    0    0  0.80857546405E-01  0.42216092961E-02  0.59619192412E+00  0.60166505333E+00  0.51109989000E-03 0.  1.
     -623    1    1    2    0    0  0.17132841834E-02  0.91645420276E-03  0.61720783827E-02  0.17124000012E+03  0.17124000000E+03 0.  1.
     -611    1    1    2    0    0 -0.39180215440E-01 -0.23238526268E-02  0.23440202773E+01  0.23443489099E+01  0.51109989000E-03 0.  1.
      611    1    1    2    0    0 -0.43390615248E-01 -0.28142108782E-02  0.25536157023E+01  0.25539859204E+01  0.51109989000E-03 0.  1.
</event>
<event>
 6   3  0.2312675E+03  0.9118800E+02  0.7818608E-02  0.1180000E+00
       11   -1    0    0    0    0  0.00000000000E+00  0.00000000000E+00  0.54999999763E+01  0.55000000000E+01  0.51109989000E-03 0. -1.
     -623   -1    0    0    0    0  0.00000000000E+00  0.00000000000E+00  0.93234578044E-11  0.17124000000E+03  0.17124000000E+03 0.  1.
       11    1    1    2    0    0  0.21381990396E-02 -0.10878023908E-01  0.11695328012E+00  0.11747865446E+00  0.51109989000E-03 0. -1.
     -623    1    1    2    0    0 -0.34429379721E-02  0.34268293601E-02  0.13733220406E-02  0.17124000007E+03  0.17124000000E+03 0.  1.
     -611    1    1    2    0    0  0.41152732221E-01  0.28406029525E-01  0.25549765394E+01  0.25554658729E+01  0.51109989000E-03 0. -1.
      611    1    1    2    0    0 -0.39847993288E-01 -0.20954834978E-01  0.28266968349E+01  0.28270553983E+01  0.51109989000E-03 0.  1.
</event>
<event>
 6   3  0.2312675E+03  0.9118800E+02  0.7818608E-02  0.1180000E+00
       11   -1    0    0    0    0  0.00000000000E+00  0.00000000000E+00  0.54999999763E+01  0.55000000000E+01  0.51109989000E-03 0.  1.
     -623   -1    0    0    0    0  0.00000000000E+00  0.00000000000E+00  0.93234578044E-11  0.17124000000E+03  0.17124000000E+03 0.  1.
       11    1    1    2    0    0 -0.91107965581E-03  0.16768211523E-03 -0.17869095174E-03  0.10730037208E-02  0.51109989000E-03 0.  1.
     -623    1    1    2    0    0 -0.42579960567E-02  0.12592035115E-01  0.32771462453E-02  0.17124000055E+03  0.17124000000E+03 0.  1.
     -611    1    1    2    0    0 -0.61538752099E-01  0.25474889868E-01  0.33185691081E+01  0.33192374387E+01  0.51109989000E-03 0.  1.
      611    1    1    2    0    0  0.66707827811E-01 -0.38234607099E-01  0.21783324128E+01  0.21796890103E+01  0.51109989000E-03 0. -1.
</event>
<event>
 6   3  0.2312675E+03  0.9118800E+02  0.7818608E-02  0.1180000E+00
       11   -1    0    0    0    0  0.00000000000E+00  0.00000000000E+00  0.54999999763E+01  0.55000000000E+01  0.51109989000E-03 0.  1.
     -623   -1    0    0    0    0  0.00000000000E+00  0.00000000000E+00  0.93234578044E-11  0.17124000000E+03  0.17124000000E+03 0. -1.
       11    1    1    2    0    0  0.15900567280E-01  0.26091428208E-01  0.66970611900E+00  0.67040296666E+00  0.51109989000E-03 0.  1.
     -623    1    1    2    0    0  0.25545533254E-01 -0.14127620683E-01  0.25259032549E-02  0.17124000251E+03  0.17124000000E+03 0. -1.
     -611    1    1    2    0    0 -0.76416407379E-01 -0.40110557992E-01  0.35142572896E+01  0.35153168965E+01  0.51109989000E-03 0.  1.
      611    1    1    2    0    0  0.34970306846E-01  0.28146750467E-01  0.13135106644E+01  0.13142776300E+01  0.51109989000E-03 0. -1.
</event>
<event>
 6   3  0.2312675E+03  0.9118800E+02  0.7818608E-02  0.1180000E+00
       11   -1    0    0    0    0  0.00000000000E+00  0.00000000000E+00  0.54999999763E+01  0.55000000000E+01  0.51109989000E-03 0.  1.
     -623   -1    0    0    0    0  0.00000000000E+00  0.00000000000E+00  0.93234578044E-11  0.17124000000E+03  0.17124000000E+03 0.  1.
       11    1    1    2    0    0 -0.13882716965E-01 -0.22137262101E-01  0.67465755764E+00  0.67516358722E+00  0.51109989000E-03 0.  1.
     -623    1    1    2    0    0  0.83545923312E-01  0.41827902925E-01  0.10759735190E-02  0.17124002549E+03  0.17124000000E+03 0.  1.
     -611    1    1    2    0    0 -0.44265311254E-01 -0.10889933575E-01  0.29959004831E+01  0.29962473152E+01  0.51109989000E-03 0.  1.
      611    1    1    2    0    0 -0.25397895090E-01 -0.88007072460E-02  0.18283659618E+01  0.18285636049E+01  0.51109989000E-03 0.  1.
</event>
<event>
 6   3  0.2312675E+03  0.9118800E+02  0.7818608E-02  0.1180000E+00
       11   -1    0    0    0    0  0.00000000000E+00  0.00000000000E+00  0.54999999763E+01  0.55000000000E+01  0.51109989000E-03 0. -1.
     -623   -1    0    0    0    0  0.00000000000E+00  0.00000000000E+00  0.93234578044E-11  0.17124000000E+03  0.17124000000E+03 0.  1.
       11    1    1    2    0    0 -0.14572160554E-02 -0.58564299589E-02  0.13306721832E-01  0.14620236643E-01  0.51109989000E-03 0. -1.
     -623    1    1    2    0    0 -0.48267026148E-02  0.14925509960E-02  0.18592197198E-02  0.17124000008E+03  0.17124000000E+03 0.  1.
     -611    1    1    2    0    0  0.38166417329E-01  0.18527176696E-01  0.31064559629E+01  0.31067456997E+01  0.51109989000E-03 0.  1.
      611    1    1    2    0    0 -0.31882498658E-01 -0.14163297733E-01  0.23783780718E+01  0.23786339791E+01  0.51109989000E-03 0. -1.
</event>
<event>
 6   3  0.1091488E+04  0.9118800E+02  0.7818608E-02  0.1180000E+00
       11   -1    0    0    0    0  0.00000000000E+00  0.00000000000E+00  0.54999999763E+01  0.55000000000E+01  0.51109989000E-03 0. -1.
     -623   -1    0    0    0    0  0.00000000000E+00  0.00000000000E+00  0.93234578044E-11  0.17124000000E+03  0.17124000000E+03 0. -1.
       11    1    1    2    0    0  0.63523128583E-03 -0.45147097552E-03 -0.10217449418E-02  0.13829427508E-02  0.51109989000E-03 0. -1.
     -623    1    1    2    0    0 -0.14792754518E-02  0.14235595955E-02  0.38621038118E-02  0.17124000006E+03  0.17124000000E+03 0. -1.
     -611    1    1    2    0    0  0.47742207497E-01 -0.16284405177E-01  0.44593351345E+01  0.44596204551E+01  0.51109989000E-03 0. -1.
      611    1    1    2    0    0 -0.46898163331E-01  0.15312316557E-01  0.10378244829E+01  0.10389965463E+01  0.51109989000E-03 0.  1.
</event>
<event>
 6   3  0.2312675E+03  0.9118800E+02  0.7818608E-02  0.1180000E+00
       11   -1    0    0    0    0  0.00000000000E+00  0.00000000000E+00  0.54999999763E+01  0.55000000000E+01  0.51109989000E-03 0. -1.
     -623   -1    0    0    0    0  0.00000000000E+00  0.00000000000E+00  0.93234578044E-11  0.17124000000E+03  0.17124000000E+03 0. -1.
       11    1    1    2    0    0 -0.44191225763E-02  0.21151099129E-02  0.25033498447E+00  0.25038344195E+00  0.51109989000E-03 0. -1.
     -623    1    1    2    0    0  0.69537044519E-01  0.24899268285E-02  0.46873466945E-03  0.17124001414E+03  0.17124000000E+03 0. -1.
     -611    1    1    2    0    0 -0.42001781827E-01 -0.26012993344E-02  0.33457949695E+01  0.33460596461E+01  0.51109989000E-03 0. -1.
      611    1    1    2    0    0 -0.23116140117E-01 -0.20037374043E-02  0.19034012876E+01  0.19035427744E+01  0.51109989000E-03 0. -1.
</event>
<event>
 6   3  0.2312675E+03  0.9118800E+02  0.7818608E-02  0.1180000E+00
       11   -1    0    0    0    0  0.00000000000E+00  0.00000000000E+00  0.54999999763E+01  0.55000000000E+01  0.51109989000E-03 0.  1.
     -623   -1    0    0    0    0  0.00000000000E+00  0.00000000000E+00  0.93234578044E-11  0.17124000000E+03  0.17124000000E+03 0.  1.
       11    1    1    2    0    0 -0.77937913578E-01 -0.10641134211E+00  0.73212150357E+00  0.74390849526E+00  0.51109989000E-03 0.  1.
     -623    1    1    2    0    0 -0.50647911536E-02  0.20352905477E-01  0.13293686691E-01  0.17124000180E+03  0.17124000000E+03 0.  1.
     -611    1    1    2    0    0  0.31664824966E-01  0.30390706252E-01  0.17073698709E+01  0.17079339547E+01  0.51109989000E-03 0. -1.
      611    1    1    2    0    0  0.51337879765E-01  0.55667730379E-01  0.30472149151E+01  0.30481557496E+01  0.51109989000E-03 0.  1.
</event>
<event>
 6   3  0.2312675E+03  0.9118800E+02  0.7818608E-02  0.1180000E+00
       11   -1    0    0    0    0  0.00000000000E+00  0.00000000000E+00  0.54999999763E+01  0.55000000000E+01  0.51109989000E-03 0. -1.
     -623   -1    0    0    0    0  0.00000000000E+00  0.00000000000E+00  0.93234578044E-11  0.17124000000E+03  0.17124000000E+03 0. -1.
       11    1    1    2    0    0 -0.43104279630E-01  0.16391434503E-01  0.31035711932E+00  0.31376497698E+00  0.51109989000E-03 0. -1.
     -623    1    1    2    0    0  0.14047278337E-01  0.81296254098E-02  0.47764984215E-02  0.17124000084E+03  0.17124000000E+03 0. -1.
     -611    1    1    2    0    0  0.50300669360E-01  0.29957243646E-01  0.30765505257E+01  0.30771075692E+01  0.51109989000E-03 0.  1.
      611    1    1    2    0    0 -0.21243668066E-01 -0.54478303559E-01  0.21083158328E+01  0.21091266181E+01  0.51109989000E-03 0. -1.
</event>
<event>
 6   3  0.2312675E+03  0.9118800E+02  0.7818608E-02  0.1180000E+00
       11   -1    0    0    0    0  0.00000000000E+00  0.00000000000E+00  0.54999999763E+01  0.55000000000E+01  0.51109989000E-03 0. -1.
     -623   -1    0    0    0    0  0.00000000000E+00  0.00000000000E+00  0.93234578044E-11  0.17124000000E+03  0.17124000000E+03 0. -1.
       11    1    1    2    0    0 -0.77241634578E-02 -0.27130570775E-03  0.18696454789E+00  0.18712493073E+00  0.51109989000E-03 0. -1.
     -623    1    1    2    0    0 -0.71254827250E-02 -0.17624534175E-01  0.60280716355E-03  0.17124000106E+03  0.17124000000E+03 0. -1.
     -611    1    1    2    0    0 -0.24489420877E-01  0.52743713268E-03  0.23791696584E+01  0.23792958065E+01  0.51109989000E-03 0.  1.
      611    1    1    2    0    0  0.39339067060E-01  0.17368402751E-01  0.29332629630E+01  0.29335782067E+01  0.51109989000E-03 0. -1.
</event>
<event>
 6   3  0.2312675E+03  0.9118800E+02  0.7818608E-02  0.1180000E+00
       11   -1    0    0    0    0  0.00000000000E+00  0.00000000000E+00  0.54999999763E+01  0.55000000000E+01  0.51109989000E-03 0.  1.
     -623   -1    0    0    0    0  0.00000000000E+00  0.00000000000E+00  0.93234578044E-11  0.17124000000E+03  0.17124000000E+03 0. -1.
       11    1    1    2    0    0 -0.99127910950E-03  0.30283756461E-02  0.57752451609E-02  0.66157670071E-02  0.51109989000E-03 0.  1.
     -623    1    1    2    0    0  0.70384108666E-02 -0.70304881304E-03  0.21907817215E-02  0.17124000016E+03  0.17124000000E+03 0. -1.
     -611    1    1    2    0    0 -0.55491612974E-01  0.25268669993E-01  0.21274476674E+01  0.21283213253E+01  0.51109989000E-03 0. -1.
      611    1    1    2    0    0  0.49444481217E-01 -0.27593996826E-01  0.33645862819E+01  0.33650627476E+01  0.51109989000E-03 0.  1.
</event>
<event>
 6   3  0.2312675E+03  0.9118800E+02  0.7818608E-02  0.1180000E+00
       11   -1    0    0    0    0  0.00000000000E+00  0.00000000000E+00  0.54999999763E+01  0.55000000000E+01  0.51109989000E-03 0. -1.
     -623   -1    0    0    0    0  0.00000000000E+00  0.00000000000E+00  0.93234578044E-11  0.17124000000E+03  0.17124000000E+03 0. -1.
       11    1    1    2    0    0 -0.16424246710E-02 -0.18988833486E-01  0.12025078145E+00  0.12175296719E+00  0.51109989000E-03 0. -1.
     -623    1    1    2    0    0 -0.20977889312E-01  0.73170297483E-02  0.20592010404E-02  0.17124000145E+03  0.17124000000E+03 0. -1.
     -611    1    1    2    0    0  0.43137039124E-01 -0.10561031288E-01  0.38485093138E+01  0.38487655865E+01  0.51109989000E-03 0. -1.
      611    1    1    2    0    0 -0.20516725141E-01  0.22232835025E-01  0.15291806799E+01  0.15294799927E+01  0.51109989000E-03 0.  1.
</event>
<event>
 6   3  0.2312675E+03  0.9118800E+02  0.7818608E-02  0.1180000E+00
       11   -1    0    0    0    0  0.00000000000E+00  0.00000000000E+00  0.54999999763E+01  0.55000000000E+01  0.51109989000E-03 0.  1.
     -623   -1    0    0    0    0  0.00000000000E+00  0.00000000000E+00  0.93234578044E-11  0.17124000000E+03  0.17124000000E+03 0.  1.
       11    1    1    2    0    0 -0.61138839446E-01  0.41122503074E-02  0.39597393272E+00  0.40068751529E+00  0.51109989000E-03 0.  1.
     -623    1    1    2    0    0  0.24133048502E-02 -0.29714708423E-02  0.50589320988E-02  0.17124000012E+03  0.17124000000E+03 0.  1.
     -611    1    1    2    0    0  0.16437706689E-01 -0.32075956629E-02  0.12474341692E+01  0.12475466943E+01  0.51109989000E-03 0. -1.
      611    1    1    2    0    0  0.42287827904E-01  0.20668161978E-02  0.38515329420E+01  0.38517656726E+01  0.51109989000E-03 0.  1.
</event>
<event>
 6   3  0.2312675E+03  0.9118800E+02  0.7818608E-02  0.1180000E+00
       11   -1    0    0    0    0  0.00000000000E+00  0.00000000000E+00  0.54999999763E+01  0.55000000000E+01  0.51109989000E-03 0. -1.
     -623   -1    0    0    0    0  0.00000000000E+00  0.00000000000E+00  0.93234578044E-11  0.17124000000E+03  0.17124000000E+03 0. -1.
       11    1    1    2    0    0  0.36522342671E-01  0.12418313554E-01  0.19068427855E+00  0.19454781247E+00  0.51109989000E-03 0. -1.
     -623    1    1    2    0    0 -0.96692191390E-02  0.12024962264E-01  0.69604294422E-02  0.17124000084E+03  0.17124000000E+03 0. -1.
     -611    1    1    2    0    0 -0.99324798182E-01  0.76809473451E-02  0.33662491382E+01  0.33677229598E+01  0.51109989000E-03 0. -1.
      611    1    1    2    0    0  0.72471674651E-01 -0.32124223163E-01  0.19361061301E+01  0.19377283911E+01  0.51109989000E-03 0.  1.
</event>
<event>
 6   3  0.2312675E+03  0.9118800E+02  0.7818608E-02  0.1180000E+00
       11   -1    0    0    0    0  0.00000000000E+00  0.00000000000E+00  0.54999999763E+01  0.55000000000E+01  0.51109989000E-03 0. -1.
     -623   -1    0    0    0    0  0.00000000000E+00  0.00000000000E+00  0.93234578044E-11  0.17124000000E+03  0.17124000000E+03 0.  1.
       11    1    1    2    0    0 -0.29389758098E-01  0.38228956380E-01  0.84236364945E+00  0.84374284597E+00  0.51109989000E-03 0. -1.
     -623    1    1    2    0    0 -0.15237335066E-01 -0.23451728787E-01  0.28564292362E-02  0.17124000231E+03  0.17124000000E+03 0.  1.
     -611    1    1    2    0    0 -0.34603205496E-01  0.16856621739E-02  0.17751071542E+01  0.17754452663E+01  0.51109989000E-03 0.  1.
      611    1    1    2    0    0  0.79230298660E-01 -0.16462889767E-01  0.28796727433E+01  0.28808095801E+01  0.51109989000E-03 0. -1.
</event>
<event>
 6   3  0.2312675E+03  0.9118800E+02  0.7818608E-02  0.1180000E+00
       11   -1    0    0    0    0  0.00000000000E+00  0.00000000000E+00  0.54999999763E+01  0.55000000000E+01  0.51109989000E-03 0.  1.
     -623   -1    0    0    0    0  0.00000000000E+00  0.00000000000E+00  0.93234578044E-11  0.17124000000E+03  0.17124000000E+03 0.  1.
       11    1    1    2    0    0 -0.41498625086E-02  0.62046050722E-03  0.14590618279E-01  0.15190579151E-01  0.51109989000E-03 0.  1.
     -623    1    1    2    0    0 -0.27993983279E-02 -0.16014373305E-01  0.15435249747E-02  0.17124000078E+03  0.17124000000E+03 0.  1.
     -611    1    1    2    0    0 -0.38874447709E-01 -0.12265095100E-01  0.14040824994E+01  0.14046741905E+01  0.51109989000E-03 0. -1.
      611    1    1    2    0    0  0.45823708546E-01  0.27659007898E-01  0.40797833336E+01  0.40801344516E+01  0.51109989000E-03 0.  1.
</event>
<event>
 6   3  0.2312675E+03  0.9118800E+02  0.7818608E-02  0.1180000E+00
       11   -1    0    0    0    0  0.00000000000E+00  0.00000000000E+00  0.54999999763E+01  0.55000000000E+01  0.51109989000E-03 0.  1.
     -623   -1    0    0    0    0  0.00000000000E+00  0.00000000000E+00  0.93234578044E-11  0.17124000000E+03  0.17124000000E+03 0. -1.
       11    1    1    2    0    0 -0.18866339388E-01  0.53399199554E-02  0.17177777379E+00  0.17289395102E+00  0.51109989000E-03 0.  1.
     -623    1    1    2    0    0  0.16815836092E-01  0.81312291232E-02  0.15388689673E-02  0.17124000103E+03  0.17124000000E+03 0. -1.
     -611    1    1    2    0    0  0.33081818076E-01 -0.11485379775E-01  0.23816130253E+01  0.23818705221E+01  0.51109989000E-03 0. -1.
      611    1    1    2    0    0 -0.31031314780E-01 -0.19857693036E-02  0.29450703084E+01  0.29452345014E+01  0.51109989000E-03 0.  1.
</event>
<event>
 6   3  0.2312675E+03  0.9118800E+02  0.7818608E-02  0.1180000E+00
       11   -1    0    0    0    0  0.00000000000E+00  0.00000000000E+00  0.54999999763E+01  0.55000000000E+01  0.51109989000E-03 0.  1.
     -623   -1    0    0    0    0  0.00000000000E+00  0.00000000000E+00  0.93234578044E-11  0.17124000000E+03  0.17124000000E+03 0.  1.
       11    1    1    2    0    0 -0.42518209116E-02  0.10311535188E-01  0.11336741471E-01  0.15911903384E-01  0.51109989000E-03 0.  1.
     -623    1    1    2    0    0  0.78010728685E-02 -0.22774223187E-01  0.51150916621E-02  0.17124000177E+03  0.17124000000E+03 0.  1.
     -611    1    1    2    0    0  0.34443615889E-01  0.49263624708E-02  0.34005119053E+01  0.34006899463E+01  0.51109989000E-03 0.  1.
      611    1    1    2    0    0 -0.37992867846E-01  0.75363255280E-02  0.20830362379E+01  0.20833963818E+01  0.51109989000E-03 0. -1.
</event>
<event>
 6   3  0.2312675E+03  0.9118800E+02  0.7818608E-02  0.1180000E+00
       11   -1    0    0    0    0  0.00000000000E+00  0.00000000000E+00  0.54999999763E+01  0.55000000000E+01  0.51109989000E-03 0. -1.
     -623   -1    0    0    0    0  0.00000000000E+00  0.00000000000E+00  0.93234578044E-11  0.17124000000E+03  0.17124000000E+03 0. -1.
       11    1    1    2    0    0  0.14522682571E-01 -0.50225702380E-01  0.21895236656E+00  0.22510870604E+00  0.51109989000E-03 0. -1.
     -623    1    1    2    0    0  0.41488021561E-01  0.21606017184E-01  0.65381136790E-02  0.17124000651E+03  0.17124000000E+03 0. -1.
     -611    1    1    2    0    0 -0.19582499779E-01  0.10662141533E-01  0.18568265205E+01  0.18569604584E+01  0.51109989000E-03 0. -1.
      611    1    1    2    0    0 -0.36428204389E-01  0.17957543682E-01  0.34176829789E+01  0.34179243252E+01  0.51109989000E-03 0. -1.
</event>
<event>
 6   3  0.2312675E+03  0.9118800E+02  0.7818608E-02  0.1180000E+00
       11   -1    0    0    0    0  0.00000000000E+00  0.00000000000E+00  0.54999999763E+01  0.55000000000E+01  0.51109989000E-03 0.  1.
     -623   -1    0    0    0    0  0.00000000000E+00  0.00000000000E+00  0.93234578044E-11  0.17124000000E+03  0.17124000000E+03 0.  1.
       11    1    1    2    0    0  0.37705061658E-02 -0.78439772014E-02  0.13583313702E+00  0.13611262627E+00  0.51109989000E-03 0.  1.
     -623    1    1    2    0    0  0.16336582135E-02  0.29185366730E-03  0.18785209710E-02  0.17124000002E+03  0.17124000000E+03 0.  1.
     -611    1    1    2    0    0 -0.60846250081E-01  0.32950554199E-01  0.25562581166E+01  0.25571945223E+01  0.51109989000E-03 0.  1.
      611    1    1    2    0    0  0.55442085701E-01 -0.25398430665E-01  0.28060302016E+01  0.28066928330E+01  0.51109989000E-03 0. -1.
</event>
<event>
 6   3  0.2312675E+03  0.9118800E+02  0.7818608E-02  0.1180000E+00
       11   -1    0    0    0    0  0.00000000000E+00  0.00000000000E+00  0.54999999763E+01  0.55000000000E+01  0.51109989000E-03 0.  1.
     -623   -1    0    0    0    0  0.00000000000E+00  0.00000000000E+00  0.93234578044E-11  0.17124000000E+03  0.17124000000E+03 0.  1.
       11    1    1    2    0    0 -0.45040801356E-02  0.56080788186E-02  0.35997940951E-01  0.36713080254E-01  0.51109989000E-03 0.  1.
     -623    1    1    2    0    0  0.68793020491E-02 -0.63394725110E-02  0.23980968184E-02  0.17124000027E+03  0.17124000000E+03 0.  1.
     -611    1    1    2    0    0 -0.49166396884E-01 -0.12955839113E-01  0.90858345896E+00  0.91000513815E+00  0.51109989000E-03 0. -1.
      611    1    1    2    0    0  0.46791174971E-01  0.13687232805E-01  0.45530204795E+01  0.45532815093E+01  0.51109989000E-03 0.  1.
</event>
<event>
 6   3  0.2312675E+03  0.9118800E+02  0.7818608E-02  0.1180000E+00
       11   -1    0    0    0    0  0.00000000000E+00  0.00000000000E+00  0.54999999763E+01  0.55000000000E+01  0.51109989000E-03 0.  1.
     -623   -1    0    0    0    0  0.00000000000E+00  0.00000000000E+00  0.93234578044E-11  0.17124000000E+03  0.17124000000E+03 0.  1.
       11    1    1    2    0    0  0.24013934507E-01 -0.20916532106E-01  0.10333134868E+01  0.10338042337E+01  0.51109989000E-03 0.  1.
     -623    1    1    2    0    0  0.70749990107E-02  0.12811303784E-01  0.10441005674E-02  0.17124000063E+03  0.17124000000E+03 0.  1.
     -611    1    1    2    0    0  0.18071135663E-01 -0.54184850261E-02  0.14303776554E+01  0.14305021581E+01  0.51109989000E-03 0.  1.
      611    1    1    2    0    0 -0.49160069181E-01  0.13523713349E-01  0.30352647334E+01  0.30356929796E+01  0.51109989000E-03 0. -1.
</event>
<event>
 6   3  0.2312675E+03  0.9118800E+02  0.7818608E-02  0.1180000E+00
       11   -1    0    0    0    0  0.00000000000E+00  0.00000000000E+00  0.54999999763E+01  0.55000000000E+01  0.51109989000E-03 0.  1.
     -623   -1    0    0    0    0  0.00000000000E+00  0.00000000000E+00  0.93234578044E-11  0.17124000000E+03  0.17124000000E+03 0. -1.
       11    1    1    2    0    0 -0.44245481965E-01 -0.17689508483E-01  0.10904668188E+01  0.10915075471E+01  0.51109989000E-03 0.  1.
     -623    1    1    2    0    0 -0.13737510216E-02 -0.38329174917E-04  0.13127021809E-02  0.17124000001E+03  0.17124000000E+03 0. -1.
     -611    1    1    2    0    0  0.15976101638E-01  0.61575656817E-02  0.14905746695E+01  0.14906730890E+01  0.51109989000E-03 0. -1.
      611    1    1    2    0    0  0.29643131349E-01  0.11570271976E-01  0.29176457858E+01  0.29178193534E+01  0.51109989000E-03 0.  1.
</event>
<event>
 6   3  0.2312675E+03  0.9118800E+02  0.7818608E-02  0.1180000E+00
       11   -1    0    0    0    0  0.00000000000E+00  0.00000000000E+00  0.54999999763E+01  0.55000000000E+01  0.51109989000E-03 0.  1.
     -623   -1    0    0    0    0  0.00000000000E+00  0.00000000000E+00  0.93234578044E-11  0.17124000000E+03  0.17124000000E+03 0.  1.
       11    1    1    2    0    0  0.11706863071E+00  0.12992454562E+00  0.32044173996E+00  0.36505975097E+00  0.51109989000E-03 0.  1.
     -623    1    1    2    0    0  0.49029905467E-02 -0.14327010733E+00  0.46150668432E-01  0.17124006622E+03  0.17124000000E+03 0.  1.
     -611    1    1    2    0    0 -0.51425345740E-01  0.56449556300E-02  0.21371820373E+01  0.21378081657E+01  0.51109989000E-03 0.  1.
      611    1    1    2    0    0 -0.70546275529E-01  0.77006060808E-02  0.29962255312E+01  0.29970658604E+01  0.51109989000E-03 0.  1.
</event>
<event>
 6   3  0.2312675E+03  0.9118800E+02  0.7818608E-02  0.1180000E+00
       11   -1    0    0    0    0  0.00000000000E+00  0.00000000000E+00  0.54999999763E+01  0.55000000000E+01  0.51109989000E-03 0.  1.
     -623   -1    0    0    0    0  0.00000000000E+00  0.00000000000E+00  0.93234578044E-11  0.17124000000E+03  0.17124000000E+03 0. -1.
       11    1    1    2    0    0 -0.17879920997E-01  0.14340013257E-01  0.14624450001E+00  0.14803054604E+00  0.51109989000E-03 0.  1.
     -623    1    1    2    0    0  0.30877959151E-01  0.78476651098E-02  0.33706296255E-02  0.17124000300E+03  0.17124000000E+03 0. -1.
     -611    1    1    2    0    0 -0.56195998151E-01  0.16869051779E-01  0.38572603101E+01  0.38577065617E+01  0.51109989000E-03 0.  1.
      611    1    1    2    0    0  0.43197959997E-01 -0.39056730146E-01  0.14931245365E+01  0.14942598953E+01  0.51109989000E-03 0. -1.
</event>
<event>
 6   3  0.2312675E+03  0.9118800E+02  0.7818608E-02  0.1180000E+00
       11   -1    0    0    0    0  0.00000000000E+00  0.00000000000E+00  0.54999999763E+01  0.55000000000E+01  0.51109989000E-03 0. -1.
     -623   -1    0    0    0    0  0.00000000000E+00  0.00000000000E+00  0.93234578044E-11  0.17124000000E+03  0.17124000000E+03 0. -1.
       11    1    1    2    0    0  0.70314195546E-01  0.30021865167E-01  0.97710096243E+00  0.98008772592E+00  0.51109989000E-03 0. -1.
     -623    1    1    2    0    0 -0.17414033550E-01  0.91666603715E-02  0.34689694180E-02  0.17124000117E+03  0.17124000000E+03 0. -1.
     -611    1    1    2    0    0 -0.16938381791E-01 -0.12618733017E-01  0.15685739747E+01  0.15687162639E+01  0.51109989000E-03 0.  1.
      611    1    1    2    0    0 -0.35961780199E-01 -0.26569792517E-01  0.29508560692E+01  0.29511948437E+01  0.51109989000E-03 0. -1.
</event>
<event>
 6   3  0.2312675E+03  0.9118800E+02  0.7818608E-02  0.1180000E+00
       11   -1    0    0    0    0  0.00000000000E+00  0.00000000000E+00  0.54999999763E+01  0.55000000000E+01  0.51109989000E-03 0.  1.
     -623   -1    0    0    0    0  0.00000000000E+00  0.00000000000E+00  0.93234578044E-11  0.17124000000E+03  0.17124000000E+03 0.  1.
       11    1    1    2    0    0 -0.25253741918E-02 -0.59049770262E-02  0.39431204105E-01  0.39954065485E-01  0.51109989000E-03 0.  1.
     -623    1    1    2    0    0  0.45543810438E-02  0.41694800230E-02  0.52766749384E-02  0.17124000019E+03  0.17124000000E+03 0.  1.
     -611    1    1    2    0    0  0.94796909562E-01  0.58569889117E-01  0.22032649065E+01  0.22060810038E+01  0.51109989000E-03 0. -1.
      611    1    1    2    0    0 -0.96825916414E-01 -0.56834392113E-01  0.32520271907E+01  0.32539647381E+01  0.51109989000E-03 0.  1.
</event>
<event>
 6   3  0.2312675E+03  0.9118800E+02  0.7818608E-02  0.1180000E+00
       11   -1    0    0    0    0  0.00000000000E+00  0.00000000000E+00  0.54999999763E+01  0.55000000000E+01  0.51109989000E-03 0.  1.
     -623   -1    0    0    0    0  0.00000000000E+00  0.00000000000E+00  0.93234578044E-11  0.17124000000E+03  0.17124000000E+03 0.  1.
       11    1    1    2    0    0  0.76396110906E-01  0.40165265645E-01  0.59353633853E+00  0.59977934335E+00  0.51109989000E-03 0.  1.
     -623    1    1    2    0    0  0.17694294727E-01  0.94093340122E-02  0.73988826368E-02  0.17124000133E+03  0.17124000000E+03 0.  1.
     -611    1    1    2    0    0 -0.35769412480E-01 -0.18615582192E-01  0.18893983907E+01  0.18898287041E+01  0.51109989000E-03 0. -1.
      611    1    1    2    0    0 -0.58320993139E-01 -0.30959017458E-01  0.30096663636E+01  0.30103906193E+01  0.51109989000E-03 0.  1.
</event>
<event>
 6   3  0.2312675E+03  0.9118800E+02  0.7818608E-02  0.1180000E+00
       11   -1    0    0    0    0  0.00000000000E+00  0.00000000000E+00  0.54999999763E+01  0.55000000000E+01  0.51109989000E-03 0.  1.
     -623   -1    0    0    0    0  0.00000000000E+00  0.00000000000E+00  0.93234578044E-11  0.17124000000E+03  0.17124000000E+03 0.  1.
       11    1    1    2    0    0  0.74888091966E-01 -0.84020416415E-02  0.74680158382E+00  0.75059422289E+00  0.51109989000E-03 0.  1.
     -623    1    1    2    0    0 -0.85745527441E-02 -0.91928060209E-02  0.43137390503E-02  0.17124000052E+03  0.17124000000E+03 0.  1.
     -611    1    1    2    0    0 -0.19824519273E-01  0.32648260418E-02  0.97564209862E+00  0.97584908489E+00  0.51109989000E-03 0. -1.
      611    1    1    2    0    0 -0.46489019949E-01  0.14330021621E-01  0.37732425548E+01  0.37735561765E+01  0.51109989000E-03 0.  1.
</event>
<event>
 6   3  0.2312675E+03  0.9118800E+02  0.7818608E-02  0.1180000E+00
       11   -1    0    0    0    0  0.00000000000E+00  0.00000000000E+00  0.54999999763E+01  0.55000000000E+01  0.51109989000E-03 0. -1.
     -623   -1    0    0    0    0  0.00000000000E+00  0.00000000000E+00  0.93234578044E-11  0.17124000000E+03  0.17124000000E+03 0.  1.
       11    1    1    2    0    0  0.19146833624E-01  0.34237607442E-01  0.97739873294E+00  0.97818574892E+00  0.51109989000E-03 0. -1.
     -623    1    1    2    0    0  0.98897473135E-03 -0.20647760603E-02  0.13093630648E-02  0.17124000002E+03  0.17124000000E+03 0.  1.
     -611    1    1    2    0    0 -0.39386715199E-01 -0.19438321208E-01  0.34074185928E+01  0.34077017020E+01  0.51109989000E-03 0. -1.
      611    1    1    2    0    0  0.19250906844E-01 -0.12734510174E-01  0.11138732875E+01  0.11141125288E+01  0.51109989000E-03 0.  1.
</event>
<event>
 6   3  0.2312675E+03  0.9118800E+02  0.7818608E-02  0.1180000E+00
       11   -1    0    0    0    0  0.00000000000E+00  0.00000000000E+00  0.54999999763E+01  0.55000000000E+01  0.51109989000E-03 0.  1.
     -623   -1    0    0    0    0  0.00000000000E+00  0.00000000000E+00  0.93234578044E-11  0.17124000000E+03  0.17124000000E+03 0. -1.
       11    1    1    2    0    0 -0.59296782131E-02  0.82536551999E-02  0.73459769530E+00  0.73466816936E+00  0.51109989000E-03 0.  1.
     -623    1    1    2    0    0  0.55279394349E-01 -0.28001333389E-01  0.37824496073E-03  0.17124001121E+03  0.17124000000E+03 0. -1.
     -611    1    1    2    0    0 -0.26653196236E-01  0.10843358940E-01  0.25820509419E+01  0.25822113196E+01  0.51109989000E-03 0.  1.
      611    1    1    2    0    0 -0.22696519925E-01  0.89043192637E-02  0.21829730967E+01  0.21831093012E+01  0.51109989000E-03 0.  1.
</event>
<event>
 6   3  0.2312675E+03  0.9118800E+02  0.7818608E-02  0.1180000E+00
       11   -1    0    0    0    0  0.00000000000E+00  0.00000000000E+00  0.54999999763E+01  0.55000000000E+01  0.51109989000E-03 0. -1.
     -623   -1    0    0    0    0  0.00000000000E+00  0.00000000000E+00  0.93234578044E-11  0.17124000000E+03  0.17124000000E+03 0.  1.
       11    1    1    2    0    0 -0.47773830222E-02  0.11718132731E-01  0.51253176655E+00  0.51268822004E+00  0.51109989000E-03 0. -1.
     -623    1    1    2    0    0  0.58276945811E-01 -0.97639356774E-01  0.12220920922E-02  0.17124003776E+03  0.17124000000E+03 0.  1.
     -611    1    1    2    0    0 -0.46940483435E-01  0.76404752204E-01  0.43955332384E+01  0.43964478624E+01  0.51109989000E-03 0. -1.
      611    1    1    2    0    0 -0.65590794712E-02  0.95164720370E-02  0.59071289031E+00  0.59082617136E+00  0.51109989000E-03 0. -1.
</event>
<event>
 6   3  0.2312675E+03  0.9118800E+02  0.7818608E-02  0.1180000E+00
       11   -1    0    0    0    0  0.00000000000E+00  0.00000000000E+00  0.54999999763E+01  0.55000000000E+01  0.51109989000E-03 0.  1.
     -623   -1    0    0    0    0  0.00000000000E+00  0.00000000000E+00  0.93234578044E-11  0.17124000000E+03  0.17124000000E+03 0.  1.
       11    1    1    2    0    0  0.45400511061E-02  0.66026209968E-02  0.76005567335E-02  0.11056055075E-01  0.51109989000E-03 0.  1.
     -623    1    1    2    0    0 -0.48365224373E-02 -0.89635232707E-02  0.65745845350E-02  0.17124000043E+03  0.17124000000E+03 0.  1.
     -611    1    1    2    0    0 -0.51742264194E-01 -0.72991048864E-01  0.21478477952E+01  0.21497105312E+01  0.51109989000E-03 0.  1.
      611    1    1    2    0    0  0.52038735525E-01  0.75351951138E-01  0.33379770398E+01  0.33392329847E+01  0.51109989000E-03 0. -1.
</event>
<event>
 6   3  0.2312675E+03  0.9118800E+02  0.7818608E-02  0.1180000E+00
       11   -1    0    0    0    0  0.00000000000E+00  0.00000000000E+00  0.54999999763E+01  0.55000000000E+01  0.51109989000E-03 0. -1.
     -623   -1    0    0    0    0  0.00000000000E+00  0.00000000000E+00  0.93234578044E-11  0.17124000000E+03  0.17124000000E+03 0. -1.
       11    1    1    2    0    0 -0.18568610112E-02 -0.67538752228E-02  0.19659479389E+00  0.19672019970E+00  0.51109989000E-03 0. -1.
     -623    1    1    2    0    0 -0.46005484857E-02  0.67655775077E-02  0.63858497366E-03  0.17124000020E+03  0.17124000000E+03 0. -1.
     -611    1    1    2    0    0  0.39593653217E-01  0.57982046960E-02  0.30163699065E+01  0.30166353692E+01  0.51109989000E-03 0. -1.
      611    1    1    2    0    0 -0.33136243720E-01 -0.58099069810E-02  0.22863966910E+01  0.22866442345E+01  0.51109989000E-03 0.  1.
</event>
<event>
 6   3  0.2312675E+03  0.9118800E+02  0.7818608E-02  0.1180000E+00
       11   -1    0    0    0    0  0.00000000000E+00  0.00000000000E+00  0.54999999763E+01  0.55000000000E+01  0.51109989000E-03 0. -1.
     -623   -1    0    0    0    0  0.00000000000E+00  0.00000000000E+00  0.93234578044E-11  0.17124000000E+03  0.17124000000E+03 0. -1.
       11    1    1    2    0    0  0.76788362026E-01 -0.12351509691E-01  0.10349724143E+01  0.10378907322E+01  0.51109989000E-03 0. -1.
     -623    1    1    2    0    0  0.46861523378E-03 -0.67269930915E-02  0.36326834530E-02  0.17124000017E+03  0.17124000000E+03 0. -1.
     -611    1    1    2    0    0 -0.57924464687E-01  0.12372181670E-01  0.32004523581E+01  0.32010004486E+01  0.51109989000E-03 0. -1.
      611    1    1    2    0    0 -0.19332512574E-01  0.67063211129E-02  0.12609425205E+01  0.12611086479E+01  0.51109989000E-03 0.  1.
</event>
<event>
 6   3  0.2312675E+03  0.9118800E+02  0.7818608E-02  0.1180000E+00
       11   -1    0    0    0    0  0.00000000000E+00  0.00000000000E+00  0.54999999763E+01  0.55000000000E+01  0.51109989000E-03 0. -1.
     -623   -1    0    0    0    0  0.00000000000E+00  0.00000000000E+00  0.93234578044E-11  0.17124000000E+03  0.17124000000E+03 0. -1.
       11    1    1    2    0    0  0.23168039293E-01 -0.28290584525E-01  0.59875369457E+00  0.59986945513E+00  0.51109989000E-03 0. -1.
     -623    1    1    2    0    0  0.50133777785E-02  0.70900669324E-04  0.17977860009E-02  0.17124000008E+03  0.17124000000E+03 0. -1.
     -611    1    1    2    0    0  0.16045994882E-01 -0.13268788030E-01  0.14371036102E+01  0.14372545294E+01  0.51109989000E-03 0.  1.
      611    1    1    2    0    0 -0.44227411954E-01  0.41488471885E-01  0.34623448855E+01  0.34628759326E+01  0.51109989000E-03 0. -1.
</event>
<event>
 6   3  0.2312675E+03  0.9118800E+02  0.7818608E-02  0.1180000E+00
       11   -1    0    0    0    0  0.00000000000E+00  0.00000000000E+00  0.54999999763E+01  0.55000000000E+01  0.51109989000E-03 0. -1.
     -623   -1    0    0    0    0  0.00000000000E+00  0.00000000000E+00  0.93234578044E-11  0.17124000000E+03  0.17124000000E+03 0.  1.
       11    1    1    2    0    0  0.11066160496E-01 -0.57311724687E-02  0.58175891652E+00  0.58189260557E+00  0.51109989000E-03 0. -1.
     -623    1    1    2    0    0  0.43484199623E-01  0.20546037216E-02  0.44539504259E-03  0.17124000553E+03  0.17124000000E+03 0.  1.
     -611    1    1    2    0    0 -0.11247571967E-01 -0.92470221730E-03  0.94630294550E+00  0.94637037614E+00  0.51109989000E-03 0.  1.
      611    1    1    2    0    0 -0.43302788147E-01  0.46012709641E-02  0.39714927187E+01  0.39717314838E+01  0.51109989000E-03 0. -1.
</event>
<event>
 6   3  0.2312675E+03  0.9118800E+02  0.7818608E-02  0.1180000E+00
       11   -1    0    0    0    0  0.00000000000E+00  0.00000000000E+00  0.54999999763E+01  0.55000000000E+01  0.51109989000E-03 0. -1.
     -623   -1    0    0    0    0  0.00000000000E+00  0.00000000000E+00  0.93234578044E-11  0.17124000000E+03  0.17124000000E+03 0.  1.
       11    1    1    2    0    0 -0.12514701827E-01  0.57962623712E-02  0.34571536683E+00  0.34599073760E+00  0.51109989000E-03 0. -1.
     -623    1    1    2    0    0  0.17731143445E-02  0.37974273631E-03  0.90811233632E-03  0.17124000001E+03  0.17124000000E+03 0.  1.
     -611    1    1    2    0    0 -0.29128279333E-01  0.15811479882E-01  0.16176360200E+01  0.16179755913E+01  0.51109989000E-03 0.  1.
      611    1    1    2    0    0  0.39869866815E-01 -0.21987484990E-01  0.35357404771E+01  0.35360336592E+01  0.51109989000E-03 0. -1.
</event>
<event>
 6   3  0.2312675E+03  0.9118800E+02  0.7818608E-02  0.1180000E+00
       11   -1    0    0    0    0  0.00000000000E+00  0.00000000000E+00  0.54999999763E+01  0.55000000000E+01  0.51109989000E-03 0.  1.
     -623   -1    0    0    0    0  0.00000000000E+00  0.00000000000E+00  0.93234578044E-11  0.17124000000E+03  0.17124000000E+03 0. -1.
       11    1    1    2    0    0  0.29693499684E-01  0.10722489336E-01  0.67122780968E+00  0.67197002121E+00  0.51109989000E-03 0.  1.
     -623    1    1    2    0    0  0.21415057467E-01  0.42813655970E-03  0.10337276688E-02  0.17124000134E+03  0.17124000000E+03 0. -1.
     -611    1    1    2    0    0 -0.33853968595E-01 -0.35363277335E-02  0.31776512207E+01  0.31778335605E+01  0.51109989000E-03 0.  1.
      611    1    1    2    0    0 -0.17254588555E-01 -0.76142981619E-02  0.16500872182E+01  0.16501950755E+01  0.51109989000E-03 0. -1.
</event>
<event>
 6   3  0.2312675E+03  0.9118800E+02  0.7818608E-02  0.1180000E+00
       11   -1    0    0    0    0  0.00000000000E+00  0.00000000000E+00  0.54999999763E+01  0.55000000000E+01  0.51109989000E-03 0.  1.
     -623   -1    0    0    0    0  0.00000000000E+00  0.00000000000E+00  0.93234578044E-11  0.17124000000E+03  0.17124000000E+03 0.  1.
       11    1    1    2    0    0  0.14849964082E-01 -0.79573667740E-02  0.23955070496E+00  0.24014296281E+00  0.51109989000E-03 0.  1.
     -623    1    1    2    0    0  0.29535196479E-02  0.13552097992E-01  0.23111290836E-02  0.17124000058E+03  0.17124000000E+03 0.  1.
     -611    1    1    2    0    0 -0.57740836300E-01 -0.17429358302E-01  0.46030529310E+01  0.46034480917E+01  0.51109989000E-03 0.  1.
      611    1    1    2    0    0  0.39937352571E-01  0.11834627083E-01  0.65508521133E+00  0.65640836821E+00  0.51109989000E-03 0. -1.
</event>
<event>
 6   3  0.2312675E+03  0.9118800E+02  0.7818608E-02  0.1180000E+00
       11   -1    0    0    0    0  0.00000000000E+00  0.00000000000E+00  0.54999999763E+01  0.55000000000E+01  0.51109989000E-03 0.  1.
     -623   -1    0    0    0    0  0.00000000000E+00  0.00000000000E+00  0.93234578044E-11  0.17124000000E+03  0.17124000000E+03 0. -1.
       11    1    1    2    0    0 -0.41455536906E-02 -0.15506838598E-01  0.21366316123E+00  0.21426585204E+00  0.51109989000E-03 0.  1.
     -623    1    1    2    0    0  0.12102487775E-02 -0.12935870331E-02  0.12378185895E-02  0.17124000001E+03  0.17124000000E+03 0. -1.
     -611    1    1    2    0    0 -0.27232420778E-01 -0.19929517247E-01  0.25303696558E+01  0.25305947219E+01  0.51109989000E-03 0. -1.
      611    1    1    2    0    0  0.30167725691E-01  0.36729942878E-01  0.27547293406E+01  0.27551394124E+01  0.51109989000E-03 0.  1.
</event>
<event>
 6   3  0.2312675E+03  0.9118800E+02  0.7818608E-02  0.1180000E+00
       11   -1    0    0    0    0  0.00000000000E+00  0.00000000000E+00  0.54999999763E+01  0.55000000000E+01  0.51109989000E-03 0. -1.
     -623   -1    0    0    0    0  0.00000000000E+00  0.00000000000E+00  0.93234578044E-11  0.17124000000E+03  0.17124000000E+03 0. -1.
       11    1    1    2    0    0  0.25226727951E-02  0.58227243684E-02  0.20005711417E+00  0.20015838266E+00  0.51109989000E-03 0. -1.
     -623    1    1    2    0    0 -0.50583544204E-03 -0.14357034183E-02  0.52004217767E-03  0.17124000001E+03  0.17124000000E+03 0. -1.
     -611    1    1    2    0    0  0.30923547043E-01  0.61320425289E-02  0.22016607856E+01  0.22018865420E+01  0.51109989000E-03 0. -1.
      611    1    1    2    0    0 -0.32940384396E-01 -0.10519063479E-01  0.30977620342E+01  0.30979550677E+01  0.51109989000E-03 0.  1.
</event>
<event>
 6   3  0.2312675E+03  0.9118800E+02  0.7818608E-02  0.1180000E+00
       11   -1    0    0    0    0  0.00000000000E+00  0.00000000000E+00  0.54999999763E+01  0.55000000000E+01  0.51109989000E-03 0.  1.
     -623   -1    0    0    0    0  0.00000000000E+00  0.00000000000E+00  0.93234578044E-11  0.17124000000E+03  0.17124000000E+03 0. -1.
       11    1    1    2    0    0 -0.20504752283E+00 -0.95987736183E-01  0.46169808177E+00  0.51422126760E+00  0.51109989000E-03 0.  1.
     -623    1    1    2    0    0  0.86457108773E-01  0.73957538352E-01  0.54039275407E-01  0.17124004632E+03  0.17124000000E+03 0. -1.
     -611    1    1    2    0    0  0.92411422577E-01  0.20791693279E-01  0.39914225988E+01  0.39925464041E+01  0.51109989000E-03 0.  1.
      611    1    1    2    0    0  0.26178991484E-01  0.12385045520E-02  0.99284002033E+00  0.99318600508E+00  0.51109989000E-03 0. -1.
</event>
<event>
 6   3  0.2312675E+03  0.9118800E+02  0.7818608E-02  0.1180000E+00
       11   -1    0    0    0    0  0.00000000000E+00  0.00000000000E+00  0.54999999763E+01  0.55000000000E+01  0.51109989000E-03 0.  1.
     -623   -1    0    0    0    0  0.00000000000E+00  0.00000000000E+00  0.93234578044E-11  0.17124000000E+03  0.17124000000E+03 0. -1.
       11    1    1    2    0    0 -0.11021420687E-01 -0.48007388419E-02  0.15952300008E+00  0.15997614692E+00  0.51109989000E-03 0.  1.
     -623    1    1    2    0    0  0.53326722397E-03 -0.59296983027E-03  0.95092147684E-03  0.17124000000E+03  0.17124000000E+03 0. -1.
     -611    1    1    2    0    0 -0.27418967606E-01 -0.13115449495E-01  0.19911094591E+01  0.19913414961E+01  0.51109989000E-03 0. -1.
      611    1    1    2    0    0  0.37907121069E-01  0.18509158167E-01  0.33484165955E+01  0.33486823524E+01  0.51109989000E-03 0.  1.
</event>
<event>
 6   3  0.2312675E+03  0.9118800E+02  0.7818608E-02  0.1180000E+00
       11   -1    0    0    0    0  0.00000000000E+00  0.00000000000E+00  0.54999999763E+01  0.55000000000E+01  0.51109989000E-03 0. -1.
     -623   -1    0    0    0    0  0.00000000000E+00  0.00000000000E+00  0.93234578044E-11  0.17124000000E+03  0.17124000000E+03 0. -1.
       11    1    1    2    0    0 -0.29568824909E-01  0.36137224860E-01  0.93388374441E+00  0.93505043914E+00  0.51109989000E-03 0. -1.
     -623    1    1    2    0    0  0.87012664007E-01  0.13882454694E-01  0.18250403355E-02  0.17124002268E+03  0.17124000000E+03 0. -1.
     -611    1    1    2    0    0 -0.27324184793E-01 -0.23709394203E-01  0.21461471257E+01  0.21464520709E+01  0.51109989000E-03 0. -1.
      611    1    1    2    0    0 -0.30119654320E-01 -0.26310285364E-01  0.24181440670E+01  0.24184748117E+01  0.51109989000E-03 0. -1.
</event>
<event>
 6   3  0.2312675E+03  0.9118800E+02  0.7818608E-02  0.1180000E+00
       11   -1    0    0    0    0  0.00000000000E+00  0.00000000000E+00  0.54999999763E+01  0.55000000000E+01  0.51109989000E-03 0.  1.
     -623   -1    0    0    0    0  0.00000000000E+00  0.00000000000E+00  0.93234578044E-11  0.17124000000E+03  0.17124000000E+03 0. -1.
       11    1    1    2    0    0  0.17856965768E-01 -0.99396464971E-03  0.48598687246E+00  0.48631611183E+00  0.51109989000E-03 0.  1.
     -623    1    1    2    0    0  0.63176714985E-02 -0.47359665283E-03  0.59572634274E-03  0.17124000012E+03  0.17124000000E+03 0. -1.
     -611    1    1    2    0    0  0.13348895394E-01 -0.35149140556E-02  0.12903127237E+01  0.12903866606E+01  0.51109989000E-03 0. -1.
      611    1    1    2    0    0 -0.37523532661E-01  0.49824753581E-02  0.37231046539E+01  0.37232971095E+01  0.51109989000E-03 0.  1.
</event>
<event>
 6   3  0.2312675E+03  0.9118800E+02  0.7818608E-02  0.1180000E+00
       11   -1    0    0    0    0  0.00000000000E+00  0.00000000000E+00  0.54999999763E+01  0.55000000000E+01  0.51109989000E-03 0. -1.
     -623   -1    0    0    0    0  0.00000000000E+00  0.00000000000E+00  0.93234578044E-11  0.17124000000E+03  0.17124000000E+03 0. -1.
       11    1    1    2    0    0  0.11069340194E-01  0.11665444487E-03  0.92113559089E-01  0.92777760761E-01  0.51109989000E-03 0. -1.
     -623    1    1    2    0    0  0.76277523224E-02 -0.51552192055E-02  0.12166740160E-02  0.17124000025E+03  0.17124000000E+03 0. -1.
     -611    1    1    2    0    0 -0.45053978862E-01  0.24239255645E-02  0.42933893084E+01  0.42936264103E+01  0.51109989000E-03 0. -1.
      611    1    1    2    0    0  0.26356886346E-01  0.26146391961E-02  0.11132804347E+01  0.11135955771E+01  0.51109989000E-03 0.  1.
</event>
<event>
 6   3  0.2312675E+03  0.9118800E+02  0.7818608E-02  0.1180000E+00
       11   -1    0    0    0    0  0.00000000000E+00  0.00000000000E+00  0.54999999763E+01  0.55000000000E+01  0.51109989000E-03 0.  1.
     -623   -1    0    0    0    0  0.00000000000E+00  0.00000000000E+00  0.93234578044E-11  0.17124000000E+03  0.17124000000E+03 0. -1.
       11    1    1    2    0    0  0.19269273554E-01  0.19231040992E-02  0.99765009142E+00  0.99783814788E+00  0.51109989000E-03 0.  1.
     -623    1    1    2    0    0 -0.84320338115E-01 -0.17129104997E-01  0.70584704232E-03  0.17124002162E+03  0.17124000000E+03 0. -1.
     -611    1    1    2    0    0  0.39409354469E-01  0.84423249342E-02  0.27530364208E+01  0.27533314667E+01  0.51109989000E-03 0.  1.
      611    1    1    2    0    0  0.25641710284E-01  0.67636760028E-02  0.17486076295E+01  0.17488087796E+01  0.51109989000E-03 0.  1.
</event>
<event>
 6   3  0.2312675E+03  0.9118800E+02  0.7818608E-02  0.1180000E+00
       11   -1    0    0    0    0  0.00000000000E+00  0.00000000000E+00  0.54999999763E+01  0.55000000000E+01  0.51109989000E-03 0. -1.
     -623   -1    0    0    0    0  0.00000000000E+00  0.00000000000E+00  0.93234578044E-11  0.17124000000E+03  0.17124000000E+03 0.  1.
       11    1    1    2    0    0  0.63022122349E-03  0.13918155355E-01  0.31982780323E+00  0.32013153105E+00  0.51109989000E-03 0. -1.
     -623    1    1    2    0    0  0.16088960671E-01 -0.56205753570E-02  0.14667185898E-02  0.17124000085E+03  0.17124000000E+03 0.  1.
     -611    1    1    2    0    0 -0.46322480391E-01 -0.40472493041E-01  0.22692215675E+01  0.22700551928E+01  0.51109989000E-03 0.  1.
      611    1    1    2    0    0  0.29603298496E-01  0.32174913043E-01  0.29094838870E+01  0.29098124218E+01  0.51109989000E-03 0. -1.
</event>
<event>
 6   3  0.2312675E+03  0.9118800E+02  0.7818608E-02  0.1180000E+00
       11   -1    0    0    0    0  0.00000000000E+00  0.00000000000E+00  0.54999999763E+01  0.55000000000E+01  0.51109989000E-03 0. -1.
     -623   -1    0    0    0    0  0.00000000000E+00  0.00000000000E+00  0.93234578044E-11  0.17124000000E+03  0.17124000000E+03 0.  1.
       11    1    1    2    0    0 -0.24289211385E-02 -0.11091391256E-01  0.39023961341E+00  0.39040509182E+00  0.51109989000E-03 0. -1.
     -623    1    1    2    0    0  0.12346304162E+00  0.10921070427E+00  0.26274482712E-02  0.17124007935E+03  0.17124000000E+03 0.  1.
     -611    1    1    2    0    0 -0.72894382219E-01 -0.58136865531E-01  0.29277465252E+01  0.29292308654E+01  0.51109989000E-03 0. -1.
      611    1    1    2    0    0 -0.48139738243E-01 -0.39982447463E-01  0.21793863886E+01  0.21802846884E+01  0.51109989000E-03 0.  1.
</event>
<event>
 6   3  0.2312675E+03  0.9118800E+02  0.7818608E-02  0.1180000E+00
       11   -1    0    0    0    0  0.00000000000E+00  0.00000000000E+00  0.54999999763E+01  0.55000000000E+01  0.51109989000E-03 0. -1.
     -623   -1    0    0    0    0  0.00000000000E+00  0.00000000000E+00  0.93234578044E-11  0.17124000000E+03  0.17124000000E+03 0. -1.
       11    1    1    2    0    0 -0.18533460752E-02 -0.18301834820E-02  0.12729008346E-01  0.13002820457E-01  0.51109989000E-03 0. -1.
     -623    1    1    2    0    0  0.66381637903E-03  0.33798864474E-02  0.11396305718E-02  0.17124000004E+03  0.17124000000E+03 0. -1.
     -611    1    1    2    0    0  0.44478979332E-01  0.15182073545E-01  0.19757386028E+01  0.19762975897E+01  0.51109989000E-03 0.  1.
      611    1    1    2    0    0 -0.43289449636E-01 -0.16731776511E-01  0.35103927345E+01  0.35106995514E+01  0.51109989000E-03 0. -1.
</event>
<event>
 6   3  0.2312675E+03  0.9118800E+02  0.7818608E-02  0.1180000E+00
       11   -1    0    0    0    0  0.00000000000E+00  0.00000000000E+00  0.54999999763E+01  0.55000000000E+01  0.51109989000E-03 0. -1.
     -623   -1    0    0    0    0  0.00000000000E+00  0.00000000000E+00  0.93234578044E-11  0.17124000000E+03  0.17124000000E+03 0.  1.
       11    1    1    2    0    0 -0.55725967277E-01  0.10343682876E-01  0.94121472117E+00  0.94291982044E+00  0.51109989000E-03 0. -1.
     -623    1    1    2    0    0  0.97716562352E-02 -0.20151068031E-02  0.19448645201E-02  0.17124000030E+03  0.17124000000E+03 0.  1.
     -611    1    1    2    0    0  0.29482073059E-01 -0.51657096090E-02  0.29426844906E+01  0.29428367521E+01  0.51109989000E-03 0. -1.
      611    1    1    2    0    0  0.16472237879E-01 -0.31628664451E-02  0.16141558897E+01  0.16142431154E+01  0.51109989000E-03 0. -1.
</event>
<event>
 6   3  0.2312675E+03  0.9118800E+02  0.7818608E-02  0.1180000E+00
       11   -1    0    0    0    0  0.00000000000E+00  0.00000000000E+00  0.54999999763E+01  0.55000000000E+01  0.51109989000E-03 0.  1.
     -623   -1    0    0    0    0  0.00000000000E+00  0.00000000000E+00  0.93234578044E-11  0.17124000000E+03  0.17124000000E+03 0.  1.
       11    1    1    2    0    0  0.22137349189E-01  0.90633360436E-03  0.69894975434E+00  0.69930101100E+00  0.51109989000E-03 0.  1.
     -623    1    1    2    0    0  0.79556385645E-03  0.50910072604E-02  0.10677992501E-02  0.17124000008E+03  0.17124000000E+03 0.  1.
     -611    1    1    2    0    0  0.29132410274E-01  0.47977471678E-02  0.18903274308E+01  0.18905580585E+01  0.51109989000E-03 0. -1.
      611    1    1    2    0    0 -0.52065323319E-01 -0.10795088033E-01  0.29096549919E+01  0.29101408496E+01  0.51109989000E-03 0.  1.
</event>
<event>
 6   3  0.2312675E+03  0.9118800E+02  0.7818608E-02  0.1180000E+00
       11   -1    0    0    0    0  0.00000000000E+00  0.00000000000E+00  0.54999999763E+01  0.55000000000E+01  0.51109989000E-03 0.  1.
     -623   -1    0    0    0    0  0.00000000000E+00  0.00000000000E+00  0.93234578044E-11  0.17124000000E+03  0.17124000000E+03 0. -1.
       11    1    1    2    0    0 -0.38342634439E-02  0.14475826486E-01  0.35723850688E+00  0.35755260194E+00  0.51109989000E-03 0.  1.
     -623    1    1    2    0    0  0.53706538406E-02 -0.85304726613E-02  0.32571462610E-02  0.17124000033E+03  0.17124000000E+03 0. -1.
     -611    1    1    2    0    0 -0.63044187209E-01 -0.27710105764E-01  0.42480441928E+01  0.42486023755E+01  0.51109989000E-03 0.  1.
      611    1    1    2    0    0  0.61507796812E-01  0.21764751939E-01  0.89146013032E+00  0.89384469494E+00  0.51109989000E-03 0. -1.
</event>
<event>
 6   3  0.2312675E+03  0.9118800E+02  0.7818608E-02  0.1180000E+00
       11   -1    0    0    0    0  0.00000000000E+00  0.00000000000E+00  0.54999999763E+01  0.55000000000E+01  0.51109989000E-03 0.  1.
     -623   -1    0    0    0    0  0.00000000000E+00  0.00000000000E+00  0.93234578044E-11  0.17124000000E+03  0.17124000000E+03 0. -1.
       11    1    1    2    0    0  0.40513615001E-02 -0.11810133440E-01  0.12380536976E+00  0.12443441480E+00  0.51109989000E-03 0.  1.
     -623    1    1    2    0    0  0.65051983512E-01  0.24249747021E-01  0.11020338072E-02  0.17124001408E+03  0.17124000000E+03 0. -1.
     -611    1    1    2    0    0 -0.30956233184E-01 -0.52970651373E-02  0.23443919568E+01  0.23446023662E+01  0.51109989000E-03 0. -1.
      611    1    1    2    0    0 -0.38147111854E-01 -0.71425484480E-02  0.30307006178E+01  0.30309491441E+01  0.51109989000E-03 0.  1.
</event>
<event>
 6   3  0.2312675E+03  0.9118800E+02  0.7818608E-02  0.1180000E+00
       11   -1    0    0    0    0  0.00000000000E+00  0.00000000000E+00  0.54999999763E+01  0.55000000000E+01  0.51109989000E-03 0. -1.
     -623   -1    0    0    0    0  0.00000000000E+00  0.00000000000E+00  0.93234578044E-11  0.17124000000E+03  0.17124000000E+03 0.  1.
       11    1    1    2    0    0 -0.23244184230E-01  0.54504845569E-01  0.59141097718E+00  0.59437216914E+00  0.51109989000E-03 0. -1.
     -623    1    1    2    0    0 -0.72438298059E-02 -0.22201554536E-02  0.40615159229E-02  0.17124000022E+03  0.17124000000E+03 0.  1.
     -611    1    1    2    0    0  0.54840902678E-01 -0.49202119625E-01  0.42521150144E+01  0.42527533117E+01  0.51109989000E-03 0. -1.
      611    1    1    2    0    0 -0.24352888643E-01 -0.30825704904E-02  0.65241246876E+00  0.65287430340E+00  0.51109989000E-03 0.  1.
</event>
<event>
 6   3  0.2312675E+03  0.9118800E+02  0.7818608E-02  0.1180000E+00
       11   -1    0    0    0    0  0.00000000000E+00  0.00000000000E+00  0.54999999763E+01  0.55000000000E+01  0.51109989000E-03 0.  1.
     -623   -1    0    0    0    0  0.00000000000E+00  0.00000000000E+00  0.93234578044E-11  0.17124000000E+03  0.17124000000E+03 0.  1.
       11    1    1    2    0    0 -0.56870117525E-01  0.90108764643E-03  0.82969945957E+00  0.83164684612E+00  0.51109989000E-03 0.  1.
     -623    1    1    2    0    0 -0.61595029486E-02  0.65787056332E-02  0.23794193405E-02  0.17124000025E+03  0.17124000000E+03 0.  1.
     -611    1    1    2    0    0  0.39376899357E-01 -0.49605707786E-02  0.28779500639E+01  0.28782237542E+01  0.51109989000E-03 0.  1.
      611    1    1    2    0    0  0.23652721081E-01 -0.25192224967E-02  0.17899710307E+01  0.17901291433E+01  0.51109989000E-03 0.  1.
</event>
<event>
 6   3  0.2312675E+03  0.9118800E+02  0.7818608E-02  0.1180000E+00
       11   -1    0    0    0    0  0.00000000000E+00  0.00000000000E+00  0.54999999763E+01  0.55000000000E+01  0.51109989000E-03 0.  1.
     -623   -1    0    0    0    0  0.00000000000E+00  0.00000000000E+00  0.93234578044E-11  0.17124000000E+03  0.17124000000E+03 0. -1.
       11    1    1    2    0    0  0.32612193104E-03  0.13484984590E-02  0.13655025417E-02  0.20126161822E-02  0.51109989000E-03 0.  1.
     -623    1    1    2    0    0  0.96518593648E-03 -0.18564779950E-02  0.40159120551E-02  0.17124000006E+03  0.17124000000E+03 0. -1.
     -611    1    1    2    0    0 -0.64023256780E-01 -0.54848598411E-01  0.40966508382E+01  0.40975182364E+01  0.51109989000E-03 0.  1.
      611    1    1    2    0    0  0.62731948912E-01  0.55356577948E-01  0.13979677234E+01  0.14004690875E+01  0.51109989000E-03 0. -1.
</event>
<event>
 6   3  0.2312675E+03  0.9118800E+02  0.7818608E-02  0.1180000E+00
       11   -1    0    0    0    0  0.00000000000E+00  0.00000000000E+00  0.54999999763E+01  0.55000000000E+01  0.51109989000E-03 0.  1.
     -623   -1    0    0    0    0  0.00000000000E+00  0.00000000000E+00  0.93234578044E-11  0.17124000000E+03  0.17124000000E+03 0.  1.
       11    1    1    2    0    0  0.70117675312E-01  0.79714938259E-01  0.96767462282E+00  0.97348107154E+00  0.51109989000E-03 0.  1.
     -623    1    1    2    0    0 -0.21464310548E-01  0.27717014990E-01  0.73904228202E-02  0.17124000375E+03  0.17124000000E+03 0.  1.
     -611    1    1    2    0    0 -0.41691793330E-01 -0.84249221315E-01  0.38463028129E+01  0.38474513287E+01  0.51109989000E-03 0.  1.
      611    1    1    2    0    0 -0.69615714343E-02 -0.23182731934E-01  0.67863211768E+00  0.67906385186E+00  0.51109989000E-03 0. -1.
</event>
<event>
 6   3  0.2312675E+03  0.9118800E+02  0.7818608E-02  0.1180000E+00
       11   -1    0    0    0    0  0.00000000000E+00  0.00000000000E+00  0.54999999763E+01  0.55000000000E+01  0.51109989000E-03 0. -1.
     -623   -1    0    0    0    0  0.00000000000E+00  0.00000000000E+00  0.93234578044E-11  0.17124000000E+03  0.17124000000E+03 0. -1.
       11    1    1    2    0    0  0.51076758406E-02 -0.21760153466E-02  0.30838495084E-01  0.31338433232E-01  0.51109989000E-03 0. -1.
     -623    1    1    2    0    0 -0.80935547041E-02  0.10279610970E-01  0.27466446888E-02  0.17124000052E+03  0.17124000000E+03 0. -1.
     -611    1    1    2    0    0  0.40136172737E-01 -0.71607755820E-01  0.31976339311E+01  0.31986874811E+01  0.51109989000E-03 0.  1.
      611    1    1    2    0    0 -0.37150293873E-01  0.63504160197E-01  0.22687809054E+01  0.22699735639E+01  0.51109989000E-03 0. -1.
</event>
<event>
 6   3  0.2312675E+03  0.9118800E+02  0.7818608E-02  0.1180000E+00
       11   -1    0    0    0    0  0.00000000000E+00  0.00000000000E+00  0.54999999763E+01  0.55000000000E+01  0.51109989000E-03 0.  1.
     -623   -1    0    0    0    0  0.00000000000E+00  0.00000000000E+00  0.93234578044E-11  0.17124000000E+03  0.17124000000E+03 0.  1.
       11    1    1    2    0    0 -0.11014508204E-01  0.70594286717E-02  0.37983087890E+00  0.38005645991E+00  0.51109989000E-03 0.  1.
     -623    1    1    2    0    0  0.64699907017E-02 -0.92145898581E-02  0.84984295061E-03  0.17124000037E+03  0.17124000000E+03 0.  1.
     -611    1    1    2    0    0 -0.37471098861E-01 -0.14433423265E-02  0.22075349618E+01  0.22078534905E+01  0.51109989000E-03 0.  1.
      611    1    1    2    0    0  0.42015616364E-01  0.35985035128E-02  0.29117842926E+01  0.29120896773E+01  0.51109989000E-03 0. -1.
</event>
<event>
 6   3  0.2312675E+03  0.9118800E+02  0.7818608E-02  0.1180000E+00
       11   -1    0    0    0    0  0.00000000000E+00  0.00000000000E+00  0.54999999763E+01  0.55000000000E+01  0.51109989000E-03 0.  1.
     -623   -1    0    0    0    0  0.00000000000E+00  0.00000000000E+00  0.93234578044E-11  0.17124000000E+03  0.17124000000E+03 0. -1.
       11    1    1    2    0    0 -0.98210303488E-02  0.25254302341E-02  0.49850121130E+00  0.49860460219E+00  0.51109989000E-03 0.  1.
     -623    1    1    2    0    0  0.73183646750E-01 -0.31461904968E-02  0.52099016138E-03  0.17124001567E+03  0.17124000000E+03 0. -1.
     -611    1    1    2    0    0 -0.48167233560E-01  0.40111355892E-03  0.37339650901E+01  0.37342758065E+01  0.51109989000E-03 0.  1.
      611    1    1    2    0    0 -0.15195382702E-01  0.21964669830E-03  0.12670126742E+01  0.12671039127E+01  0.51109989000E-03 0. -1.
</event>
<event>
 6   3  0.2312675E+03  0.9118800E+02  0.7818608E-02  0.1180000E+00
       11   -1    0    0    0    0  0.00000000000E+00  0.00000000000E+00  0.54999999763E+01  0.55000000000E+01  0.51109989000E-03 0. -1.
     -623   -1    0    0    0    0  0.00000000000E+00  0.00000000000E+00  0.93234578044E-11  0.17124000000E+03  0.17124000000E+03 0.  1.
       11    1    1    2    0    0  0.15179953618E-01 -0.47680003454E-02  0.95303438883E+00  0.95316733700E+00  0.51109989000E-03 0. -1.
     -623    1    1    2    0    0 -0.11375095740E+00  0.46906811830E-01  0.14412210699E-02  0.17124004421E+03  0.17124000000E+03 0.  1.
     -611    1    1    2    0    0  0.76692186456E-01 -0.32755959678E-01  0.35335996230E+01  0.35345835966E+01  0.51109989000E-03 0. -1.
      611    1    1    2    0    0  0.21878817463E-01 -0.93828518612E-02  0.10119247497E+01  0.10122048612E+01  0.51109989000E-03 0. -1.
</event>
<event>
 6   3  0.2312675E+03  0.9118800E+02  0.7818608E-02  0.1180000E+00
       11   -1    0    0    0    0  0.00000000000E+00  0.00000000000E+00  0.54999999763E+01  0.55000000000E+01  0.51109989000E-03 0.  1.
     -623   -1    0    0    0    0  0.00000000000E+00  0.00000000000E+00  0.93234578044E-11  0.17124000000E+03  0.17124000000E+03 0. -1.
       11    1    1    2    0    0 -0.60792065146E-01 -0.31494840517E-01  0.76310240813E+00  0.76616783193E+00  0.51109989000E-03 0.  1.
     -623    1    1    2    0    0  0.31666243967E-02 -0.22432318733E-02  0.35541818142E-02  0.17124000008E+03  0.17124000000E+03 0. -1.
     -611    1    1    2    0    0  0.43426851463E-01  0.31350472116E-01  0.38016479562E+01  0.38020252745E+01  0.51109989000E-03 0.  1.
      611    1    1    2    0    0  0.14198589285E-01  0.23876002742E-02  0.93169543002E+00  0.93180681266E+00  0.51109989000E-03 0. -1.
</event>
<event>
 6   3  0.2312675E+03  0.9118800E+02  0.7818608E-02  0.1180000E+00
       11   -1    0    0    0    0  0.00000000000E+00  0.00000000000E+00  0.54999999763E+01  0.55000000000E+01  0.51109989000E-03 0. -1.
     -623   -1    0    0    0    0  0.00000000000E+00  0.00000000000E+00  0.93234578044E-11  0.17124000000E+03  0.17124000000E+03 0.  1.
       11    1    1    2    0    0 -0.39008571331E-01  0.46259235227E-01  0.10219250958E+01  0.10237151694E+01  0.51109989000E-03 0. -1.
     -623    1    1    2    0    0  0.38296436457E-02 -0.14627482256E+00  0.47840879190E-02  0.17124006258E+03  0.17124000000E+03 0.  1.
     -611    1    1    2    0    0 -0.44554539957E-01  0.49719980333E-01  0.20957155978E+01  0.20967787941E+01  0.51109989000E-03 0.  1.
      611    1    1    2    0    0  0.79733467642E-01  0.50295606998E-01  0.23775751948E+01  0.23794434521E+01  0.51109989000E-03 0. -1.
</event>
<event>
 6   3  0.2312675E+03  0.9118800E+02  0.7818608E-02  0.1180000E+00
       11   -1    0    0    0    0  0.00000000000E+00  0.00000000000E+00  0.54999999763E+01  0.55000000000E+01  0.51109989000E-03 0.  1.
     -623   -1    0    0    0    0  0.00000000000E+00  0.00000000000E+00  0.93234578044E-11  0.17124000000E+03  0.17124000000E+03 0. -1.
       11    1    1    2    0    0 -0.39831333086E-02  0.19006228598E-01  0.24702810603E+00  0.24779073523E+00  0.51109989000E-03 0.  1.
     -623    1    1    2    0    0  0.47164980674E-01  0.24728835262E-01  0.13171487859E-02  0.17124000829E+03  0.17124000000E+03 0. -1.
     -611    1    1    2    0    0 -0.51797882909E-01 -0.41972198517E-01  0.44819014175E+01  0.44823972675E+01  0.51109989000E-03 0.  1.
      611    1    1    2    0    0  0.86160355430E-02 -0.17628653437E-02  0.76975330398E+00  0.76980371133E+00  0.51109989000E-03 0. -1.
</event>
<event>
 6   3  0.2312675E+03  0.9118800E+02  0.7818608E-02  0.1180000E+00
       11   -1    0    0    0    0  0.00000000000E+00  0.00000000000E+00  0.54999999763E+01  0.55000000000E+01  0.51109989000E-03 0. -1.
     -623   -1    0    0    0    0  0.00000000000E+00  0.00000000000E+00  0.93234578044E-11  0.17124000000E+03  0.17124000000E+03 0. -1.
       11    1    1    2    0    0 -0.65015086812E-03  0.31515649666E-02  0.51986712198E-01  0.52088717839E-01  0.51109989000E-03 0. -1.
     -623    1    1    2    0    0 -0.31849381449E-02 -0.96042298666E-03  0.10597700015E-02  0.17124000004E+03  0.17124000000E+03 0. -1.
     -611    1    1    2    0    0 -0.45789976851E-01  0.16125930111E-01  0.29264283235E+01  0.29268310100E+01  0.51109989000E-03 0.  1.
      611    1    1    2    0    0  0.49625065864E-01 -0.18317072091E-01  0.25205251706E+01  0.25210802366E+01  0.51109989000E-03 0. -1.
</event>
<event>
 6   3  0.2312675E+03  0.9118800E+02  0.7818608E-02  0.1180000E+00
       11   -1    0    0    0    0  0.00000000000E+00  0.00000000000E+00  0.54999999763E+01  0.55000000000E+01  0.51109989000E-03 0. -1.
     -623   -1    0    0    0    0  0.00000000000E+00  0.00000000000E+00  0.93234578044E-11  0.17124000000E+03  0.17124000000E+03 0. -1.
       11    1    1    2    0    0 -0.28136832238E-01  0.82013266473E-02  0.33676452558E+00  0.33803779375E+00  0.51109989000E-03 0. -1.
     -623    1    1    2    0    0 -0.27362922724E-01 -0.52942823655E-01  0.18170295021E-02  0.17124001038E+03  0.17124000000E+03 0. -1.
     -611    1    1    2    0    0  0.40283156312E-01  0.23928462226E-01  0.38030959511E+01  0.38033845951E+01  0.51109989000E-03 0. -1.
      611    1    1    2    0    0  0.15216598650E-01  0.20813034781E-01  0.13583224701E+01  0.13585672310E+01  0.51109989000E-03 0.  1.
</event>
<event>
 6   3  0.2312675E+03  0.9118800E+02  0.7818608E-02  0.1180000E+00
       11   -1    0    0    0    0  0.00000000000E+00  0.00000000000E+00  0.54999999763E+01  0.55000000000E+01  0.51109989000E-03 0. -1.
     -623   -1    0    0    0    0  0.00000000000E+00  0.00000000000E+00  0.93234578044E-11  0.17124000000E+03  0.17124000000E+03 0. -1.
       11    1    1    2    0    0 -0.13439854739E-01  0.75840988881E-02  0.21980914018E-01  0.26862056056E-01  0.51109989000E-03 0. -1.
     -623    1    1    2    0    0 -0.21112175217E-02 -0.72614039256E-02  0.65572262038E-02  0.17124000029E+03  0.17124000000E+03 0. -1.
     -611    1    1    2    0    0 -0.56008386883E-01  0.12436498343E-01  0.31963231922E+01  0.31968380967E+01  0.51109989000E-03 0.  1.
      611    1    1    2    0    0  0.71559459144E-01 -0.12759193305E-01  0.22751386438E+01  0.22762995547E+01  0.51109989000E-03 0. -1.
</event>
<event>
 6   3  0.2312675E+03  0.9118800E+02  0.7818608E-02  0.1180000E+00
       11   -1    0    0    0    0  0.00000000000E+00  0.00000000000E+00  0.54999999763E+01  0.55000000000E+01  0.51109989000E-03 0.  1.
     -623   -1    0    0    0    0  0.00000000000E+00  0.00000000000E+00  0.93234578044E-11  0.17124000000E+03  0.17124000000E+03 0.  1.
       11    1    1    2    0    0 -0.17448159716E-01  0.56610198289E-02  0.10650766600E+01  0.10652347339E+01  0.51109989000E-03 0.  1.
     -623    1    1    2    0    0  0.74113222052E-01 -0.30316475652E-01  0.60758606967E-03  0.17124001872E+03  0.17124000000E+03 0.  1.
     -611    1    1    2    0    0 -0.27885984852E-01  0.12605127374E-01  0.21763148693E+01  0.21765300799E+01  0.51109989000E-03 0.  1.
      611    1    1    2    0    0 -0.28779077426E-01  0.12050328427E-01  0.22580008569E+01  0.22582164592E+01  0.51109989000E-03 0.  1.
</event>
<event>
 6   3  0.2312675E+03  0.9118800E+02  0.7818608E-02  0.1180000E+00
       11   -1    0    0    0    0  0.00000000000E+00  0.00000000000E+00  0.54999999763E+01  0.55000000000E+01  0.51109989000E-03 0. -1.
     -623   -1    0    0    0    0  0.00000000000E+00  0.00000000000E+00  0.93234578044E-11  0.17124000000E+03  0.17124000000E+03 0. -1.
       11    1    1    2    0    0  0.17373416071E-03  0.50581145756E-02  0.10281084609E+01  0.10281210450E+01  0.51109989000E-03 0. -1.
     -623    1    1    2    0    0  0.50746859646E-01 -0.37980573777E-01  0.46777304546E-03  0.17124001173E+03  0.17124000000E+03 0. -1.
     -611    1    1    2    0    0 -0.29892825057E-01  0.27418973524E-01  0.25866992355E+01  0.25870173129E+01  0.51109989000E-03 0. -1.
      611    1    1    2    0    0 -0.21027768746E-01  0.55034856747E-02  0.18847245064E+01  0.18848499096E+01  0.51109989000E-03 0.  1.
</event>
<event>
 6   3  0.2312675E+03  0.9118800E+02  0.7818608E-02  0.1180000E+00
       11   -1    0    0    0    0  0.00000000000E+00  0.00000000000E+00  0.54999999763E+01  0.55000000000E+01  0.51109989000E-03 0.  1.
     -623   -1    0    0    0    0  0.00000000000E+00  0.00000000000E+00  0.93234578044E-11  0.17124000000E+03  0.17124000000E+03 0. -1.
       11    1    1    2    0    0 -0.19196903825E-01 -0.28900097154E-02  0.43133965770E+00  0.43177660289E+00  0.51109989000E-03 0.  1.
     -623    1    1    2    0    0 -0.18540152743E-01  0.15202912494E-02  0.11616878941E-02  0.17124000101E+03  0.17124000000E+03 0. -1.
     -611    1    1    2    0    0 -0.16101522570E-01 -0.21733814618E-01  0.15705783628E+01  0.15708113421E+01  0.51109989000E-03 0.  1.
      611    1    1    2    0    0  0.53838579138E-01  0.23103533084E-01  0.34969202678E+01  0.34974110405E+01  0.51109989000E-03 0. -1.
</event>
<event>
 6   3  0.2312675E+03  0.9118800E+02  0.7818608E-02  0.1180000E+00
       11   -1    0    0    0    0  0.00000000000E+00  0.00000000000E+00  0.54999999763E+01  0.55000000000E+01  0.51109989000E-03 0.  1.
     -623   -1    0    0    0    0  0.00000000000E+00  0.00000000000E+00  0.93234578044E-11  0.17124000000E+03  0.17124000000E+03 0. -1.
       11    1    1    2    0    0  0.14206952354E-01 -0.90062181771E-02  0.41063252762E+00  0.41097722981E+00  0.51109989000E-03 0.  1.
     -623    1    1    2    0    0  0.67401362565E-02 -0.18532441114E-03  0.11128436684E-02  0.17124000014E+03  0.17124000000E+03 0. -1.
     -611    1    1    2    0    0  0.23431874079E-01 -0.21708964318E-01  0.13561350531E+01  0.13565112883E+01  0.51109989000E-03 0. -1.
      611    1    1    2    0    0 -0.44378962690E-01  0.30900506906E-01  0.37321195517E+01  0.37325113454E+01  0.51109989000E-03 0.  1.
</event>
<event>
 6   3  0.2312675E+03  0.9118800E+02  0.7818608E-02  0.1180000E+00
       11   -1    0    0    0    0  0.00000000000E+00  0.00000000000E+00  0.54999999763E+01  0.55000000000E+01  0.51109989000E-03 0.  1.
     -623   -1    0    0    0    0  0.00000000000E+00  0.00000000000E+00  0.93234578044E-11  0.17124000000E+03  0.17124000000E+03 0. -1.
       11    1    1    2    0    0 -0.54771002046E-02  0.12686960066E-02  0.39832988936E-01  0.40231038352E-01  0.51109989000E-03 0.  1.
     -623    1    1    2    0    0 -0.53498357415E-01  0.20735884971E-02  0.72631833865E-03  0.17124000837E+03  0.17124000000E+03 0. -1.
     -611    1    1    2    0    0  0.34035622506E-01 -0.27416068828E-02  0.31319691035E+01  0.31321552749E+01  0.51109989000E-03 0.  1.
      611    1    1    2    0    0  0.24939835114E-01 -0.60067762102E-03  0.23274715655E+01  0.23276053157E+01  0.51109989000E-03 0. -1.
</event>
<event>
 6   3  0.2312675E+03  0.9118800E+02  0.7818608E-02  0.1180000E+00
       11   -1    0    0    0    0  0.00000000000E+00  0.00000000000E+00  0.54999999763E+01  0.55000000000E+01  0.51109989000E-03 0. -1.
     -623   -1    0    0    0    0  0.00000000000E+00  0.00000000000E+00  0.93234578044E-11  0.17124000000E+03  0.17124000000E+03 0. -1.
       11    1    1    2    0    0 -0.10934675262E-01 -0.12169506590E-02  0.30627951008E+00  0.30647748304E+00  0.51109989000E-03 0. -1.
     -623    1    1    2    0    0 -0.52021436602E-01 -0.10057678404E-01  0.60043783791E-03  0.17124000820E+03  0.17124000000E+03 0. -1.
     -611    1    1    2    0    0  0.39255234545E-01  0.67091686636E-02  0.33033831993E+01  0.33036232849E+01  0.51109989000E-03 0. -1.
      611    1    1    2    0    0  0.23700877355E-01  0.45654604056E-02  0.18897368320E+01  0.18898910366E+01  0.51109989000E-03 0. -1.
</event>
<event>
 6   3  0.2312675E+03  0.9118800E+02  0.7818608E-02  0.1180000E+00
       11   -1    0    0    0    0  0.00000000000E+00  0.00000000000E+00  0.54999999763E+01  0.55000000000E+01  0.51109989000E-03 0. -1.
     -623   -1    0    0    0    0  0.00000000000E+00  0.00000000000E+00  0.93234578044E-11  0.17124000000E+03  0.17124000000E+03 0. -1.
       11    1    1    2    0    0  0.46923350821E-02  0.18481135669E-01  0.85264743464E+00  0.85286076202E+00  0.51109989000E-03 0. -1.
     -623    1    1    2    0    0  0.12693632664E-01 -0.73105044163E-02  0.11031392654E-02  0.17124000063E+03  0.17124000000E+03 0. -1.
     -611    1    1    2    0    0 -0.51203580791E-01  0.81697497030E-02  0.25496599005E+01  0.25501871345E+01  0.51109989000E-03 0. -1.
      611    1    1    2    0    0  0.33817613045E-01 -0.19340380955E-01  0.20965895017E+01  0.20969514733E+01  0.51109989000E-03 0.  1.
</event>
<event>
 6   3  0.2312675E+03  0.9118800E+02  0.7818608E-02  0.1180000E+00
       11   -1    0    0    0    0  0.00000000000E+00  0.00000000000E+00  0.54999999763E+01  0.55000000000E+01  0.51109989000E-03 0. -1.
     -623   -1    0    0    0    0  0.00000000000E+00  0.00000000000E+00  0.93234578044E-11  0.17124000000E+03  0.17124000000E+03 0.  1.
       11    1    1    2    0    0  0.17393959244E-01 -0.14608696676E-01  0.10495347338E+01  0.10497806354E+01  0.51109989000E-03 0. -1.
     -623    1    1    2    0    0  0.89687367967E-02  0.44278543279E-02  0.53171826689E-03  0.17124000029E+03  0.17124000000E+03 0.  1.
     -611    1    1    2    0    0 -0.37794370898E-01  0.92902637530E-02  0.33953314051E+01  0.33955544960E+01  0.51109989000E-03 0.  1.
      611    1    1    2    0    0  0.11431674858E-01  0.89057859568E-03  0.10546021188E+01  0.10546645753E+01  0.51109989000E-03 0. -1.
</event>
<event>
 6   3  0.2312675E+03  0.9118800E+02  0.7818608E-02  0.1180000E+00
       11   -1    0    0    0    0  0.00000000000E+00  0.00000000000E+00  0.54999999763E+01  0.55000000000E+01  0.51109989000E-03 0.  1.
     -623   -1    0    0    0    0  0.00000000000E+00  0.00000000000E+00  0.93234578044E-11  0.17124000000E+03  0.17124000000E+03 0. -1.
       11    1    1    2    0    0  0.13524706149E-01  0.18558579734E-03  0.98599645483E+00  0.98608935816E+00  0.51109989000E-03 0.  1.
     -623    1    1    2    0    0  0.45361045959E-02  0.88582639060E-02  0.48775393434E-03  0.17124000029E+03  0.17124000000E+03 0. -1.
     -611    1    1    2    0    0  0.18689328495E-01  0.63069238072E-02  0.16336118255E+01  0.16337309833E+01  0.51109989000E-03 0. -1.
      611    1    1    2    0    0 -0.36750139239E-01 -0.15350773510E-01  0.28799039418E+01  0.28801793684E+01  0.51109989000E-03 0.  1.
</event>
<event>
 6   3  0.2312675E+03  0.9118800E+02  0.7818608E-02  0.1180000E+00
       11   -1    0    0    0    0  0.00000000000E+00  0.00000000000E+00  0.54999999763E+01  0.55000000000E+01  0.51109989000E-03 0. -1.
     -623   -1    0    0    0    0  0.00000000000E+00  0.00000000000E+00  0.93234578044E-11  0.17124000000E+03  0.17124000000E+03 0.  1.
       11    1    1    2    0    0 -0.66776611464E-02  0.14218699721E-03  0.36255512665E+00  0.36261700520E+00  0.51109989000E-03 0. -1.
     -623    1    1    2    0    0  0.83484932083E-01 -0.30100892691E-01  0.74661214637E-03  0.17124002300E+03  0.17124000000E+03 0.  1.
     -611    1    1    2    0    0 -0.47263728891E-01  0.18532288194E-01  0.31336130356E+01  0.31340242857E+01  0.51109989000E-03 0. -1.
      611    1    1    2    0    0 -0.29543542231E-01  0.11426417567E-01  0.20030852141E+01  0.20033357233E+01  0.51109989000E-03 0.  1.
</event>
<event>
 6   3  0.3849968E+03  0.9118800E+02  0.7818608E-02  0.1180000E+00
       11   -1    0    0    0    0  0.00000000000E+00  0.00000000000E+00  0.54999999763E+01  0.55000000000E+01  0.51109989000E-03 0.  1.
     -623   -1    0    0    0    0  0.00000000000E+00  0.00000000000E+00  0.93234578044E-11  0.17124000000E+03  0.17124000000E+03 0.  1.
       11    1    1    2    0    0  0.36929135225E-03 -0.50905153133E-03 -0.53623917573E-04  0.81216266012E-03  0.51109989000E-03 0.  1.
     -623    1    1    2    0    0 -0.25143975004E-02 -0.75916682511E-03  0.19744224582E-02  0.17124000003E+03  0.17124000000E+03 0.  1.
     -611    1    1    2    0    0 -0.45642073237E-01  0.67674723183E-02  0.41395827466E+01  0.41398399214E+01  0.51109989000E-03 0.  1.
      611    1    1    2    0    0  0.47787179385E-01 -0.54992539619E-02  0.13584964312E+01  0.13593478845E+01  0.51109989000E-03 0. -1.
</event>
<event>
 6   3  0.2312675E+03  0.9118800E+02  0.7818608E-02  0.1180000E+00
       11   -1    0    0    0    0  0.00000000000E+00  0.00000000000E+00  0.54999999763E+01  0.55000000000E+01  0.51109989000E-03 0.  1.
     -623   -1    0    0    0    0  0.00000000000E+00  0.00000000000E+00  0.93234578044E-11  0.17124000000E+03  0.17124000000E+03 0.  1.
       11    1    1    2    0    0  0.42012762804E-01  0.26014503274E-01  0.10675759631E+01  0.10687191048E+01  0.51109989000E-03 0.  1.
     -623    1    1    2    0    0  0.76456049348E-02 -0.20628855260E-02  0.14865716645E-02  0.17124000019E+03  0.17124000000E+03 0.  1.
     -611    1    1    2    0    0 -0.11011086481E-01 -0.57486440448E-02  0.10071004007E+01  0.10071771290E+01  0.51109989000E-03 0. -1.
      611    1    1    2    0    0 -0.38647281296E-01 -0.18202973721E-01  0.34238370442E+01  0.34241035801E+01  0.51109989000E-03 0.  1.
</event>
<event>
 6   3  0.2312675E+03  0.9118800E+02  0.7818608E-02  0.1180000E+00
       11   -1    0    0    0    0  0.00000000000E+00  0.00000000000E+00  0.54999999763E+01  0.55000000000E+01  0.51109989000E-03 0. -1.
     -623   -1    0    0    0    0  0.00000000000E+00  0.00000000000E+00  0.93234578044E-11  0.17124000000E+03  0.17124000000E+03 0.  1.
       11    1    1    2    0    0  0.50472055408E-02  0.37969567875E-02  0.98335795521E-01  0.98539743599E-01  0.51109989000E-03 0. -1.
     -623    1    1    2    0    0 -0.11311170496E-02  0.11317277067E-03  0.60760745541E-03  0.17124000000E+03  0.17124000000E+03 0.  1.
     -611    1    1    2    0    0  0.30135982930E-01  0.56459444433E-02  0.25132833905E+01  0.25134704526E+01  0.51109989000E-03 0.  1.
      611    1    1    2    0    0 -0.34052071421E-01 -0.95560740014E-02  0.28877731829E+01  0.28879897990E+01  0.51109989000E-03 0. -1.
</event>
<event>
 6   3  0.2312675E+03  0.9118800E+02  0.7818608E-02  0.1180000E+00
       11   -1    0    0    0    0  0.00000000000E+00  0.00000000000E+00  0.54999999763E+01  0.55000000000E+01  0.51109989000E-03 0.  1.
     -623   -1    0    0    0    0  0.00000000000E+00  0.00000000000E+00  0.93234578044E-11  0.17124000000E+03  0.17124000000E+03 0. -1.
       11    1    1    2    0    0 -0.20095656218E-01 -0.12172766100E-01  0.82568002589E+00  0.82601439334E+00  0.51109989000E-03 0.  1.
     -623    1    1    2    0    0  0.10050675469E+00 -0.50008381634E-02  0.10873820819E-02  0.17124002957E+03  0.17124000000E+03 0. -1.
     -611    1    1    2    0    0 -0.32292048973E-01  0.68071378587E-02  0.18929359531E+01  0.18932236786E+01  0.51109989000E-03 0.  1.
      611    1    1    2    0    0 -0.48119049559E-01  0.10366466419E-01  0.27802966186E+01  0.27807323595E+01  0.51109989000E-03 0.  1.
</event>
<event>
 6   3  0.2312675E+03  0.9118800E+02  0.7818608E-02  0.1180000E+00
       11   -1    0    0    0    0  0.00000000000E+00  0.00000000000E+00  0.54999999763E+01  0.55000000000E+01  0.51109989000E-03 0. -1.
     -623   -1    0    0    0    0  0.00000000000E+00  0.00000000000E+00  0.93234578044E-11  0.17124000000E+03  0.17124000000E+03 0.  1.
       11    1    1    2    0    0  0.12133306367E-01  0.24351826623E-01  0.73362651708E+00  0.73413102125E+00  0.51109989000E-03 0. -1.
     -623    1    1    2    0    0  0.84419953899E-03 -0.34553934863E-01  0.49022037363E-02  0.17124000356E+03  0.17124000000E+03 0.  1.
     -611    1    1    2    0    0 -0.85233885300E-01 -0.45794079145E-01  0.15025101826E+01  0.15056224703E+01  0.51109989000E-03 0. -1.
      611    1    1    2    0    0  0.72256379394E-01  0.55996187385E-01  0.32589610728E+01  0.32602429500E+01  0.51109989000E-03 0.  1.
</event>
<event>
 6   3  0.2312675E+03  0.9118800E+02  0.7818608E-02  0.1180000E+00
       11   -1    0    0    0    0  0.00000000000E+00  0.00000000000E+00  0.54999999763E+01  0.55000000000E+01  0.51109989000E-03 0.  1.
     -623   -1    0    0    0    0  0.00000000000E+00  0.00000000000E+00  0.93234578044E-11  0.17124000000E+03  0.17124000000E+03 0.  1.
       11    1    1    2    0    0 -0.11103378192E+00 -0.19233737870E-01  0.25650388736E+00  0.28016592022E+00  0.51109989000E-03 0.  1.
     -623    1    1    2    0    0 -0.32812351198E-01  0.11787260406E-01  0.25657383700E-01  0.17124000547E+03  0.17124000000E+03 0.  1.
     -611    1    1    2    0    0  0.31960553151E-01  0.24587168654E-03  0.11111545984E+01  0.11116142947E+01  0.51109989000E-03 0. -1.
      611    1    1    2    0    0  0.11188557997E+00  0.72006057779E-02  0.41066841069E+01  0.41082143137E+01  0.51109989000E-03 0.  1.
</event>
<event>
 6   3  0.2312675E+03  0.9118800E+02  0.7818608E-02  0.1180000E+00
       11   -1    0    0    0    0  0.00000000000E+00  0.00000000000E+00  0.54999999763E+01  0.55000000000E+01  0.51109989000E-03 0. -1.
     -623   -1    0    0    0    0  0.00000000000E+00  0.00000000000E+00  0.93234578044E-11  0.17124000000E+03  0.17124000000E+03 0. -1.
       11    1    1    2    0    0  0.98128091930E-02  0.55911693870E-01  0.81004357817E+00  0.81203033718E+00  0.51109989000E-03 0. -1.
     -623    1    1    2    0    0 -0.61142007196E-02 -0.60376109151E-01  0.40902754419E-02  0.17124001080E+03  0.17124000000E+03 0. -1.
     -611    1    1    2    0    0  0.62914360636E-01  0.22222821408E-01  0.28894391771E+01  0.28902095236E+01  0.51109989000E-03 0. -1.
      611    1    1    2    0    0 -0.66612969109E-01 -0.17758406127E-01  0.17964269455E+01  0.17977493375E+01  0.51109989000E-03 0.  1.
</event>
<event>
 6   3  0.2312675E+03  0.9118800E+02  0.7818608E-02  0.1180000E+00
       11   -1    0    0    0    0  0.00000000000E+00  0.00000000000E+00  0.54999999763E+01  0.55000000000E+01  0.51109989000E-03 0.  1.
     -623   -1    0    0    0    0  0.00000000000E+00  0.00000000000E+00  0.93234578044E-11  0.17124000000E+03  0.17124000000E+03 0.  1.
       11    1    1    2    0    0 -0.14927042441E-02 -0.12085919410E-02  0.62024239046E-02  0.65130749903E-02  0.51109989000E-03 0.  1.
     -623    1    1    2    0    0 -0.24596506861E-02  0.23941418527E-02  0.68913313637E-03  0.17124000004E+03  0.17124000000E+03 0.  1.
     -611    1    1    2    0    0  0.32172794437E-01 -0.11565865316E-01  0.26964113059E+01  0.26966280889E+01  0.51109989000E-03 0. -1.
      611    1    1    2    0    0 -0.28220439507E-01  0.10380315404E-01  0.27966971134E+01  0.27968588004E+01  0.51109989000E-03 0.  1.
</event>
<event>
 6   3  0.2312675E+03  0.9118800E+02  0.7818608E-02  0.1180000E+00
       11   -1    0    0    0    0  0.00000000000E+00  0.00000000000E+00  0.54999999763E+01  0.55000000000E+01  0.51109989000E-03 0. -1.
     -623   -1    0    0    0    0  0.00000000000E+00  0.00000000000E+00  0.93234578044E-11  0.17124000000E+03  0.17124000000E+03 0. -1.
       11    1    1    2    0    0 -0.61656804601E-01 -0.17023878932E-01  0.10035365581E+01  0.10055730996E+01  0.51109989000E-03 0. -1.
     -623    1    1    2    0    0  0.77340617012E-02  0.42462285085E-02  0.23788374089E-02  0.17124000024E+03  0.17124000000E+03 0. -1.
     -611    1    1    2    0    0  0.89533265527E-02  0.26564665187E-02  0.75341146932E+00  0.75346952307E+00  0.51109989000E-03 0. -1.
      611    1    1    2    0    0  0.44969416372E-01  0.10121183910E-01  0.37406731135E+01  0.37409571355E+01  0.51109989000E-03 0. -1.
</event>
<event>
 6   3  0.2312675E+03  0.9118800E+02  0.7818608E-02  0.1180000E+00
       11   -1    0    0    0    0  0.00000000000E+00  0.00000000000E+00  0.54999999763E+01  0.55000000000E+01  0.51109989000E-03 0. -1.
     -623   -1    0    0    0    0  0.00000000000E+00  0.00000000000E+00  0.93234578044E-11  0.17124000000E+03  0.17124000000E+03 0. -1.
       11    1    1    2    0    0  0.48988514721E-01 -0.10462841092E+00  0.10651183908E+01  0.10713656830E+01  0.51109989000E-03 0. -1.
     -623    1    1    2    0    0  0.14770630337E-01 -0.43210081697E-02  0.80480281848E-02  0.17124000088E+03  0.17124000000E+03 0. -1.
     -611    1    1    2    0    0 -0.50608775232E-01  0.85451938503E-01  0.34732781420E+01  0.34746977703E+01  0.51109989000E-03 0. -1.
      611    1    1    2    0    0 -0.13150369811E-01  0.23497480558E-01  0.95355541427E+00  0.95393566508E+00  0.51109989000E-03 0. -1.
</event>
<event>
 6   3  0.2312675E+03  0.9118800E+02  0.7818608E-02  0.1180000E+00
       11   -1    0    0    0    0  0.00000000000E+00  0.00000000000E+00  0.54999999763E+01  0.55000000000E+01  0.51109989000E-03 0. -1.
     -623   -1    0    0    0    0  0.00000000000E+00  0.00000000000E+00  0.93234578044E-11  0.17124000000E+03  0.17124000000E+03 0. -1.
       11    1    1    2    0    0 -0.19512482001E-02  0.86191904964E-04  0.10443821094E+00  0.10445772315E+00  0.51109989000E-03 0.  1.
     -623    1    1    2    0    0  0.67763869446E-01 -0.24004683845E-01  0.49505272074E-03  0.17124001509E+03  0.17124000000E+03 0. -1.
     -611    1    1    2    0    0 -0.13987928122E-01  0.18742638319E-02  0.11624570754E+01  0.11625428544E+01  0.51109989000E-03 0. -1.
      611    1    1    2    0    0 -0.51824693223E-01  0.22044228143E-01  0.42326096452E+01  0.42329843393E+01  0.51109989000E-03 0.  1.
</event>
<event>
 6   3  0.2312675E+03  0.9118800E+02  0.7818608E-02  0.1180000E+00
       11   -1    0    0    0    0  0.00000000000E+00  0.00000000000E+00  0.54999999763E+01  0.55000000000E+01  0.51109989000E-03 0.  1.
     -623   -1    0    0    0    0  0.00000000000E+00  0.00000000000E+00  0.93234578044E-11  0.17124000000E+03  0.17124000000E+03 0.  1.
       11    1    1    2    0    0 -0.14205503669E-01  0.81863546648E-02  0.59487201044E-01  0.61707382446E-01  0.51109989000E-03 0.  1.
     -623    1    1    2    0    0  0.91475610817E-01 -0.41526971521E-01  0.29009991590E-02  0.17124002949E+03  0.17124000000E+03 0.  1.
     -611    1    1    2    0    0 -0.33859021879E-01  0.14171369198E-01  0.23722330170E+01  0.23725170198E+01  0.51109989000E-03 0.  1.
      611    1    1    2    0    0 -0.43411085293E-01  0.19169247669E-01  0.30653787608E+01  0.30657461068E+01  0.51109989000E-03 0. -1.
</event>
<event>
 6   3  0.2312675E+03  0.9118800E+02  0.7818608E-02  0.1180000E+00
       11   -1    0    0    0    0  0.00000000000E+00  0.00000000000E+00  0.54999999763E+01  0.55000000000E+01  0.51109989000E-03 0.  1.
     -623   -1    0    0    0    0  0.00000000000E+00  0.00000000000E+00  0.93234578044E-11  0.17124000000E+03  0.17124000000E+03 0.  1.
       11    1    1    2    0    0 -0.80096174307E-01 -0.20179287441E-01  0.65224776796E+00  0.65745723269E+00  0.51109989000E-03 0.  1.
     -623    1    1    2    0    0  0.15673131500E-01 -0.37063037676E-01  0.59841931940E-02  0.17124000483E+03  0.17124000000E+03 0.  1.
     -611    1    1    2    0    0  0.23855962518E-01  0.21962352145E-01  0.16836440747E+01  0.16839563782E+01  0.51109989000E-03 0. -1.
      611    1    1    2    0    0  0.40567080293E-01  0.35279972976E-01  0.31581239406E+01  0.31585815567E+01  0.51109989000E-03 0.  1.
</event>
<event>
 6   3  0.2312675E+03  0.9118800E+02  0.7818608E-02  0.1180000E+00
       11   -1    0    0    0    0  0.00000000000E+00  0.00000000000E+00  0.54999999763E+01  0.55000000000E+01  0.51109989000E-03 0. -1.
     -623   -1    0    0    0    0  0.00000000000E+00  0.00000000000E+00  0.93234578044E-11  0.17124000000E+03  0.17124000000E+03 0. -1.
       11    1    1    2    0    0 -0.92598612003E-02  0.52095039762E-02 -0.66899321403E-02  0.12565841646E-01  0.51109989000E-03 0. -1.
     -623    1    1    2    0    0  0.97248295349E-02  0.21121912099E-01  0.23435098220E-01  0.17124000318E+03  0.17124000000E+03 0. -1.
     -611    1    1    2    0    0 -0.77392916073E-01  0.60148500428E-01  0.23748357267E+01  0.23768576936E+01  0.51109989000E-03 0.  1.
      611    1    1    2    0    0  0.76927947739E-01 -0.86479916503E-01  0.31084190835E+01  0.31105732824E+01  0.51109989000E-03 0. -1.
</event>
<event>
 6   3  0.2312675E+03  0.9118800E+02  0.7818608E-02  0.1180000E+00
       11   -1    0    0    0    0  0.00000000000E+00  0.00000000000E+00  0.54999999763E+01  0.55000000000E+01  0.51109989000E-03 0. -1.
     -623   -1    0    0    0    0  0.00000000000E+00  0.00000000000E+00  0.93234578044E-11  0.17124000000E+03  0.17124000000E+03 0.  1.
       11    1    1    2    0    0 -0.34414816322E-03  0.84078545266E-03  0.14272674561E-01  0.14310689025E-01  0.51109989000E-03 0. -1.
     -623    1    1    2    0    0  0.10628379050E+00 -0.30201743344E-01  0.11758216827E-02  0.17124003565E+03  0.17124000000E+03 0.  1.
     -611    1    1    2    0    0 -0.81049354385E-01  0.22403383315E-01  0.41501160785E+01  0.41509679155E+01  0.51109989000E-03 0. -1.
      611    1    1    2    0    0 -0.24890287895E-01  0.69575745605E-02  0.13344353987E+01  0.13346857416E+01  0.51109989000E-03 0.  1.
</event>
<event>
 6   3  0.2312675E+03  0.9118800E+02  0.7818608E-02  0.1180000E+00
       11   -1    0    0    0    0  0.00000000000E+00  0.00000000000E+00  0.54999999763E+01  0.55000000000E+01  0.51109989000E-03 0. -1.
     -623   -1    0    0    0    0  0.00000000000E+00  0.00000000000E+00  0.93234578044E-11  0.17124000000E+03  0.17124000000E+03 0.  1.
       11    1    1    2    0    0 -0.96131942234E-02 -0.72395738585E-02  0.73980661995E+00  0.73990467026E+00  0.51109989000E-03 0. -1.
     -623    1    1    2    0    0 -0.80905328336E-04 -0.35751789440E-02  0.54808627181E-03  0.17124000004E+03  0.17124000000E+03 0.  1.
     -611    1    1    2    0    0 -0.23552259275E-01  0.18245501348E-01  0.17086637668E+01  0.17089235607E+01  0.51109989000E-03 0.  1.
      611    1    1    2    0    0  0.33246358827E-01 -0.74307485456E-02  0.30509815034E+01  0.30511717309E+01  0.51109989000E-03 0. -1.
</event>
<event>
 6   3  0.2312675E+03  0.9118800E+02  0.7818608E-02  0.1180000E+00
       11   -1    0    0    0    0  0.00000000000E+00  0.00000000000E+00  0.54999999763E+01  0.55000000000E+01  0.51109989000E-03 0.  1.
     -623   -1    0    0    0    0  0.00000000000E+00  0.00000000000E+00  0.93234578044E-11  0.17124000000E+03  0.17124000000E+03 0. -1.
       11    1    1    2    0    0  0.30302126015E-02 -0.16156879160E-02  0.58423238236E-02  0.67960728815E-02  0.51109989000E-03 0.  1.
     -623    1    1    2    0    0 -0.72479022025E-02  0.60554767358E-03  0.25947516906E-02  0.17124000017E+03  0.17124000000E+03 0. -1.
     -611    1    1    2    0    0  0.52158138172E-01 -0.35224144207E-01  0.17001948581E+01  0.17013594648E+01  0.51109989000E-03 0. -1.
      611    1    1    2    0    0 -0.47940448571E-01  0.36234284450E-01  0.37913680426E+01  0.37918442881E+01  0.51109989000E-03 0.  1.
</event>
<event>
 6   3  0.2312675E+03  0.9118800E+02  0.7818608E-02  0.1180000E+00
       11   -1    0    0    0    0  0.00000000000E+00  0.00000000000E+00  0.54999999763E+01  0.55000000000E+01  0.51109989000E-03 0. -1.
     -623   -1    0    0    0    0  0.00000000000E+00  0.00000000000E+00  0.93234578044E-11  0.17124000000E+03  0.17124000000E+03 0. -1.
       11    1    1    2    0    0 -0.26485524236E-02 -0.11825918599E-02  0.76064025234E+00  0.76064595448E+00  0.51109989000E-03 0. -1.
     -623    1    1    2    0    0 -0.53475255541E-01 -0.26769294262E-01  0.43207594473E-03  0.17124001044E+03  0.17124000000E+03 0. -1.
     -611    1    1    2    0    0  0.20015699814E-01  0.86031233348E-02  0.15779709269E+01  0.15781213988E+01  0.51109989000E-03 0.  1.
      611    1    1    2    0    0  0.36108108143E-01  0.19348762783E-01  0.31609567206E+01  0.31612222037E+01  0.51109989000E-03 0. -1.
</event>
<event>
 6   3  0.2312675E+03  0.9118800E+02  0.7818608E-02  0.1180000E+00
       11   -1    0    0    0    0  0.00000000000E+00  0.00000000000E+00  0.54999999763E+01  0.55000000000E+01  0.51109989000E-03 0.  1.
     -623   -1    0    0    0    0  0.00000000000E+00  0.00000000000E+00  0.93234578044E-11  0.17124000000E+03  0.17124000000E+03 0. -1.
       11    1    1    2    0    0  0.29583040271E-03 -0.27083674588E-01  0.71418793443E-01  0.76384018124E-01  0.51109989000E-03 0.  1.
     -623    1    1    2    0    0 -0.65294043061E-02  0.38849942401E-01  0.71784883381E-02  0.17124000468E+03  0.17124000000E+03 0. -1.
     -611    1    1    2    0    0  0.53121125363E-01 -0.64446738006E-01  0.26768827995E+01  0.26781853967E+01  0.51109989000E-03 0. -1.
      611    1    1    2    0    0 -0.46887551460E-01  0.52680470192E-01  0.27445198950E+01  0.27454259032E+01  0.51109989000E-03 0.  1.
</event>
<event>
 6   3  0.6965172E+03  0.9118800E+02  0.7818608E-02  0.1180000E+00
       11   -1    0    0    0    0  0.00000000000E+00  0.00000000000E+00  0.54999999763E+01  0.55000000000E+01  0.51109989000E-03 0. -1.
     -623   -1    0    0    0    0  0.00000000000E+00  0.00000000000E+00  0.93234578044E-11  0.17124000000E+03  0.17124000000E+03 0.  1.
       11    1    1    2    0    0  0.35911830304E-05  0.32054598557E-03  0.20166095769E-03  0.63612330949E-03  0.51109989000E-03 0.  1.
     -623    1    1    2    0    0  0.22582548631E-03  0.87103660322E-03  0.84284589391E-03  0.17124000000E+03  0.17124000000E+03 0.  1.
     -611    1    1    2    0    0 -0.32798584584E-01 -0.72052091580E-02  0.30334181042E+01  0.30336040147E+01  0.51109989000E-03 0.  1.
      611    1    1    2    0    0  0.32569167915E-01  0.60136265692E-02  0.24655373652E+01  0.24657598575E+01  0.51109989000E-03 0. -1.
</event>
<event>
 6   3  0.2312675E+03  0.9118800E+02  0.7818608E-02  0.1180000E+00
       11   -1    0    0    0    0  0.00000000000E+00  0.00000000000E+00  0.54999999763E+01  0.55000000000E+01  0.51109989000E-03 0.  1.
     -623   -1    0    0    0    0  0.00000000000E+00  0.00000000000E+00  0.93234578044E-11  0.17124000000E+03  0.17124000000E+03 0. -1.
       11    1    1    2    0    0  0.21643709359E-01 -0.52381157383E-02  0.91770885713E+00  0.91797913685E+00  0.51109989000E-03 0.  1.
     -623    1    1    2    0    0  0.16591689673E-02 -0.86843889027E-03  0.85099922977E-03  0.17124000001E+03  0.17124000000E+03 0. -1.
     -611    1    1    2    0    0 -0.46122705811E-01  0.13584437541E-01  0.27094070457E+01  0.27098336926E+01  0.51109989000E-03 0. -1.
      611    1    1    2    0    0  0.22819827485E-01 -0.74778829125E-02  0.18720330741E+01  0.18721871581E+01  0.51109989000E-03 0.  1.
</event>
<event>
 6   3  0.2312675E+03  0.9118800E+02  0.7818608E-02  0.1180000E+00
       11   -1    0    0    0    0  0.00000000000E+00  0.00000000000E+00  0.54999999763E+01  0.55000000000E+01  0.51109989000E-03 0.  1.
     -623   -1    0    0    0    0  0.00000000000E+00  0.00000000000E+00  0.93234578044E-11  0.17124000000E+03  0.17124000000E+03 0. -1.
       11    1    1    2    0    0 -0.15029082143E-01  0.50457431199E-02  0.48283871378E+00  0.48309917986E+00  0.51109989000E-03 0.  1.
     -623    1    1    2    0    0  0.53679261049E-03  0.27529421887E-02  0.75018143046E-03  0.17124000002E+03  0.17124000000E+03 0. -1.
     -611    1    1    2    0    0 -0.26826369161E-01 -0.61332356566E-02  0.15655347486E+01  0.15657766702E+01  0.51109989000E-03 0.  1.
      611    1    1    2    0    0  0.41318658693E-01 -0.16654496520E-02  0.34508763326E+01  0.34511241254E+01  0.51109989000E-03 0. -1.
</event>
<event>
 6   3  0.2312675E+03  0.9118800E+02  0.7818608E-02  0.1180000E+00
       11   -1    0    0    0    0  0.00000000000E+00  0.00000000000E+00  0.54999999763E+01  0.55000000000E+01  0.51109989000E-03 0. -1.
     -623   -1    0    0    0    0  0.00000000000E+00  0.00000000000E+00  0.93234578044E-11  0.17124000000E+03  0.17124000000E+03 0.  1.
       11    1    1    2    0    0  0.18741011039E-01 -0.17363809833E-01  0.63909362159E+00  0.63960428842E+00  0.51109989000E-03 0. -1.
     -623    1    1    2    0    0  0.36533112772E-01 -0.17593060017E-01  0.95653879552E-03  0.17124000480E+03  0.17124000000E+03 0.  1.
     -611    1    1    2    0    0 -0.88282524704E-02  0.44934048660E-02  0.70224846101E+00  0.70231851104E+00  0.51109989000E-03 0.  1.
      611    1    1    2    0    0 -0.46445871359E-01  0.30463464995E-01  0.41577013564E+01  0.41580723986E+01  0.51109989000E-03 0. -1.
</event>
<event>
 6   3  0.2312675E+03  0.9118800E+02  0.7818608E-02  0.1180000E+00
       11   -1    0    0    0    0  0.00000000000E+00  0.00000000000E+00  0.54999999763E+01  0.55000000000E+01  0.51109989000E-03 0.  1.
     -623   -1    0    0    0    0  0.00000000000E+00  0.00000000000E+00  0.93234578044E-11  0.17124000000E+03  0.17124000000E+03 0. -1.
       11    1    1    2    0    0 -0.19970362536E-01  0.96204331112E-02  0.22691715832E+00  0.22799786420E+00  0.51109989000E-03 0.  1.
     -623    1    1    2    0    0  0.72524439493E-02 -0.25212086422E-02  0.27833252663E-02  0.17124000019E+03  0.17124000000E+03 0. -1.
     -611    1    1    2    0    0  0.56783686762E-01 -0.45265944179E-01  0.23543299069E+01  0.23554496311E+01  0.51109989000E-03 0. -1.
      611    1    1    2    0    0 -0.44065768175E-01  0.38166719710E-01  0.29159695857E+01  0.29165523099E+01  0.51109989000E-03 0.  1.
</event>
<event>
 6   3  0.2312675E+03  0.9118800E+02  0.7818608E-02  0.1180000E+00
       11   -1    0    0    0    0  0.00000000000E+00  0.00000000000E+00  0.54999999763E+01  0.55000000000E+01  0.51109989000E-03 0.  1.
     -623   -1    0    0    0    0  0.00000000000E+00  0.00000000000E+00  0.93234578044E-11  0.17124000000E+03  0.17124000000E+03 0.  1.
       11    1    1    2    0    0 -0.61168960381E-02 -0.19087837781E-03  0.76571442325E+00  0.76573904958E+00  0.51109989000E-03 0.  1.
     -623    1    1    2    0    0  0.59559942233E-01 -0.31387581236E-02  0.33859350541E-03  0.17124001039E+03  0.17124000000E+03 0.  1.
     -611    1    1    2    0    0 -0.31921746148E-01  0.30936373081E-02  0.28796839275E+01  0.28798625578E+01  0.51109989000E-03 0.  1.
      611    1    1    2    0    0 -0.21521300107E-01  0.23599919660E-03  0.18542630375E+01  0.18543880110E+01  0.51109989000E-03 0. -1.
</event>
<event>
 6   3  0.2312675E+03  0.9118800E+02  0.7818608E-02  0.1180000E+00
       11   -1    0    0    0    0  0.00000000000E+00  0.00000000000E+00  0.54999999763E+01  0.55000000000E+01  0.51109989000E-03 0.  1.
     -623   -1    0    0    0    0  0.00000000000E+00  0.00000000000E+00  0.93234578044E-11  0.17124000000E+03  0.17124000000E+03 0.  1.
       11    1    1    2    0    0 -0.32108814353E-02 -0.54615567554E-02  0.35275062128E-01  0.35843124766E-01  0.51109989000E-03 0.  1.
     -623    1    1    2    0    0  0.45225930419E-02 -0.26165042866E-02  0.11539741808E-02  0.17124000008E+03  0.17124000000E+03 0.  1.
     -611    1    1    2    0    0  0.34635593910E-01  0.21646736332E-01  0.31840898130E+01  0.31843518028E+01  0.51109989000E-03 0. -1.
      611    1    1    2    0    0 -0.35947305517E-01 -0.13568675290E-01  0.22794811271E+01  0.22798049889E+01  0.51109989000E-03 0.  1.
</event>
<event>
 6   3  0.2312675E+03  0.9118800E+02  0.7818608E-02  0.1180000E+00
       11   -1    0    0    0    0  0.00000000000E+00  0.00000000000E+00  0.54999999763E+01  0.55000000000E+01  0.51109989000E-03 0. -1.
     -623   -1    0    0    0    0  0.00000000000E+00  0.00000000000E+00  0.93234578044E-11  0.17124000000E+03  0.17124000000E+03 0. -1.
       11    1    1    2    0    0 -0.74056784704E-01 -0.26951775395E-01  0.10848055350E+01  0.10876645235E+01  0.51109989000E-03 0. -1.
     -623    1    1    2    0    0  0.26666463605E-02 -0.14189292556E-01  0.36292720417E-02  0.17124000065E+03  0.17124000000E+03 0. -1.
     -611    1    1    2    0    0  0.34115432278E-01  0.19025897258E-01  0.20934073621E+01  0.20937718339E+01  0.51109989000E-03 0. -1.
      611    1    1    2    0    0  0.37274706110E-01  0.22115170719E-01  0.23181578099E+01  0.23185629983E+01  0.51109989000E-03 0. -1.
</event>
<event>
 6   3  0.2312675E+03  0.9118800E+02  0.7818608E-02  0.1180000E+00
       11   -1    0    0    0    0  0.00000000000E+00  0.00000000000E+00  0.54999999763E+01  0.55000000000E+01  0.51109989000E-03 0. -1.
     -623   -1    0    0    0    0  0.00000000000E+00  0.00000000000E+00  0.93234578044E-11  0.17124000000E+03  0.17124000000E+03 0.  1.
       11    1    1    2    0    0  0.21197715148E-01 -0.53508464653E-02  0.23119408156E-01  0.31823622389E-01  0.51109989000E-03 0. -1.
     -623    1    1    2    0    0 -0.14866217956E-01  0.28351682128E-01  0.11125957527E-01  0.17124000335E+03  0.17124000000E+03 0.  1.
     -611    1    1    2    0    0 -0.60362552138E-01  0.31137615678E-01  0.13498953402E+01  0.13516030777E+01  0.51109989000E-03 0. -1.
      611    1    1    2    0    0  0.54031054946E-01 -0.54138451341E-01  0.41158592704E+01  0.41165699461E+01  0.51109989000E-03 0.  1.
</event>
<event>
 6   3  0.2312675E+03  0.9118800E+02  0.7818608E-02  0.1180000E+00
       11   -1    0    0    0    0  0.00000000000E+00  0.00000000000E+00  0.54999999763E+01  0.55000000000E+01  0.51109989000E-03 0. -1.
     -623   -1    0    0    0    0  0.00000000000E+00  0.00000000000E+00  0.93234578044E-11  0.17124000000E+03  0.17124000000E+03 0. -1.
       11    1    1    2    0    0  0.37144549318E-01  0.23267816459E-01  0.94809786152E+00  0.94911059686E+00  0.51109989000E-03 0. -1.
     -623    1    1    2    0    0  0.26702346543E-02 -0.22558874993E-01  0.68900767886E-02  0.17124000165E+03  0.17124000000E+03 0. -1.
     -611    1    1    2    0    0  0.82278702620E-01 -0.43510624697E-01  0.13175480832E+01  0.13208316214E+01  0.51109989000E-03 0.  1.
      611    1    1    2    0    0 -0.12209348659E+00  0.42801683232E-01  0.32274639547E+01  0.32300561363E+01  0.51109989000E-03 0. -1.
</event>
<event>
 6   3  0.2312675E+03  0.9118800E+02  0.7818608E-02  0.1180000E+00
       11   -1    0    0    0    0  0.00000000000E+00  0.00000000000E+00  0.54999999763E+01  0.55000000000E+01  0.51109989000E-03 0. -1.
     -623   -1    0    0    0    0  0.00000000000E+00  0.00000000000E+00  0.93234578044E-11  0.17124000000E+03  0.17124000000E+03 0.  1.
       11    1    1    2    0    0 -0.22906261497E-01  0.18842646145E-01  0.28042060041E+00  0.28198531253E+00  0.51109989000E-03 0. -1.
     -623    1    1    2    0    0  0.24577566825E-01  0.98456977021E-02  0.52353832262E-02  0.17124000213E+03  0.17124000000E+03 0.  1.
     -611    1    1    2    0    0 -0.92387826354E-01 -0.45797697514E-01  0.26340412543E+01  0.26360589011E+01  0.51109989000E-03 0.  1.
      611    1    1    2    0    0  0.90716521025E-01  0.17109353667E-01  0.25803027383E+01  0.25819536595E+01  0.51109989000E-03 0. -1.
</event>
<event>
 6   3  0.2312675E+03  0.9118800E+02  0.7818608E-02  0.1180000E+00
       11   -1    0    0    0    0  0.00000000000E+00  0.00000000000E+00  0.54999999763E+01  0.55000000000E+01  0.51109989000E-03 0.  1.
     -623   -1    0    0    0    0  0.00000000000E+00  0.00000000000E+00  0.93234578044E-11  0.17124000000E+03  0.17124000000E+03 0.  1.
       11    1    1    2    0    0 -0.66246195103E-02  0.51039508224E-02  0.23403199255E-01  0.24857732321E-01  0.51109989000E-03 0.  1.
     -623    1    1    2    0    0  0.26600189342E-02  0.81854950855E-04  0.19276244937E-02  0.17124000003E+03  0.17124000000E+03 0.  1.
     -611    1    1    2    0    0 -0.33900882413E-01 -0.30997024250E-02  0.26038989624E+01  0.26041215305E+01  0.51109989000E-03 0. -1.
      611    1    1    2    0    0  0.37865482989E-01 -0.20861033482E-02  0.28707701901E+01  0.28710207057E+01  0.51109989000E-03 0.  1.
</event>
<event>
 6   3  0.2312675E+03  0.9118800E+02  0.7818608E-02  0.1180000E+00
       11   -1    0    0    0    0  0.00000000000E+00  0.00000000000E+00  0.54999999763E+01  0.55000000000E+01  0.51109989000E-03 0. -1.
     -623   -1    0    0    0    0  0.00000000000E+00  0.00000000000E+00  0.93234578044E-11  0.17124000000E+03  0.17124000000E+03 0.  1.
       11    1    1    2    0    0  0.73884138414E-02  0.85516972668E-03  0.70683467433E-01  0.71075549705E-01  0.51109989000E-03 0. -1.
     -623    1    1    2    0    0 -0.85708030069E-02  0.67416588968E-02  0.17262798262E-02  0.17124000036E+03  0.17124000000E+03 0.  1.
     -611    1    1    2    0    0  0.55952402063E-01 -0.27078400031E-01  0.27336108876E+01  0.27343175852E+01  0.51109989000E-03 0. -1.
      611    1    1    2    0    0 -0.54770012897E-01  0.19481571408E-01  0.26939793415E+01  0.26946065092E+01  0.51109989000E-03 0.  1.
</event>
<event>
 6   3  0.2312675E+03  0.9118800E+02  0.7818608E-02  0.1180000E+00
       11   -1    0    0    0    0  0.00000000000E+00  0.00000000000E+00  0.54999999763E+01  0.55000000000E+01  0.51109989000E-03 0.  1.
     -623   -1    0    0    0    0  0.00000000000E+00  0.00000000000E+00  0.93234578044E-11  0.17124000000E+03  0.17124000000E+03 0.  1.
       11    1    1    2    0    0 -0.19041050503E-01 -0.18314833528E-02  0.68614717811E+00  0.68641396197E+00  0.51109989000E-03 0.  1.
     -623    1    1    2    0    0 -0.13754265466E-02  0.75464666457E-02  0.60268709841E-03  0.17124000017E+03  0.17124000000E+03 0.  1.
     -611    1    1    2    0    0 -0.17363228262E-01  0.28315300922E-02  0.12198659215E+01  0.12199928799E+01  0.51109989000E-03 0. -1.
      611    1    1    2    0    0  0.37779705311E-01 -0.85465133854E-02  0.35933841898E+01  0.35935929855E+01  0.51109989000E-03 0.  1.
</event>
<event>
 6   3  0.2312675E+03  0.9118800E+02  0.7818608E-02  0.1180000E+00
       11   -1    0    0    0    0  0.00000000000E+00  0.00000000000E+00  0.54999999763E+01  0.55000000000E+01  0.51109989000E-03 0. -1.
     -623   -1    0    0    0    0  0.00000000000E+00  0.00000000000E+00  0.93234578044E-11  0.17124000000E+03  0.17124000000E+03 0. -1.
       11    1    1    2    0    0  0.17960491916E-01  0.96893407675E-02  0.11974579775E+00  0.12147337114E+00  0.51109989000E-03 0. -1.
     -623    1    1    2    0    0  0.52524493936E-03  0.10644851672E-01  0.21078367464E-02  0.17124000034E+03  0.17124000000E+03 0. -1.
     -611    1    1    2    0    0  0.20786611332E-01 -0.48609288677E-02  0.15465464896E+01  0.15466938991E+01  0.51109989000E-03 0.  1.
      611    1    1    2    0    0 -0.39272348188E-01 -0.15473263571E-01  0.38315998521E+01  0.38318323851E+01  0.51109989000E-03 0. -1.
</event>
<event>
 6   3  0.2312675E+03  0.9118800E+02  0.7818608E-02  0.1180000E+00
       11   -1    0    0    0    0  0.00000000000E+00  0.00000000000E+00  0.54999999763E+01  0.55000000000E+01  0.51109989000E-03 0. -1.
     -623   -1    0    0    0    0  0.00000000000E+00  0.00000000000E+00  0.93234578044E-11  0.17124000000E+03  0.17124000000E+03 0.  1.
       11    1    1    2    0    0 -0.67586803092E-01 -0.11262424931E-01  0.78282302829E+00  0.78581611909E+00  0.51109989000E-03 0. -1.
     -623    1    1    2    0    0 -0.12486882749E-02 -0.10925094742E-01  0.35484400069E-02  0.17124000039E+03  0.17124000000E+03 0.  1.
     -611    1    1    2    0    0  0.48588397541E-01  0.15398384761E-01  0.33117797241E+01  0.33121719679E+01  0.51109989000E-03 0. -1.
      611    1    1    2    0    0  0.20247093839E-01  0.67891349163E-02  0.14018487847E+01  0.14020115241E+01  0.51109989000E-03 0. -1.
</event>
<event>
 6   3  0.2312675E+03  0.9118800E+02  0.7818608E-02  0.1180000E+00
       11   -1    0    0    0    0  0.00000000000E+00  0.00000000000E+00  0.54999999763E+01  0.55000000000E+01  0.51109989000E-03 0. -1.
     -623   -1    0    0    0    0  0.00000000000E+00  0.00000000000E+00  0.93234578044E-11  0.17124000000E+03  0.17124000000E+03 0. -1.
       11    1    1    2    0    0  0.13413751994E-01  0.18629179914E-01  0.41486476626E+00  0.41549971191E+00  0.51109989000E-03 0. -1.
     -623    1    1    2    0    0 -0.33223123105E-02 -0.18377944032E-02  0.15103720157E-02  0.17124000005E+03  0.17124000000E+03 0. -1.
     -611    1    1    2    0    0  0.37328083785E-01  0.86334566192E-02  0.26752517873E+01  0.26755261742E+01  0.51109989000E-03 0. -1.
      611    1    1    2    0    0 -0.47419523468E-01 -0.25424842130E-01  0.24083730508E+01  0.24089740652E+01  0.51109989000E-03 0.  1.
</event>
<event>
 6   3  0.2312675E+03  0.9118800E+02  0.7818608E-02  0.1180000E+00
       11   -1    0    0    0    0  0.00000000000E+00  0.00000000000E+00  0.54999999763E+01  0.55000000000E+01  0.51109989000E-03 0. -1.
     -623   -1    0    0    0    0  0.00000000000E+00  0.00000000000E+00  0.93234578044E-11  0.17124000000E+03  0.17124000000E+03 0.  1.
       11    1    1    2    0    0  0.42556023676E-02  0.31770152610E-02  0.25909173033E-01  0.26452789037E-01  0.51109989000E-03 0. -1.
     -623    1    1    2    0    0 -0.61423744502E-02 -0.40130738484E-02  0.10441850168E-02  0.17124000016E+03  0.17124000000E+03 0.  1.
     -611    1    1    2    0    0  0.35798921315E-01  0.12717173512E-01  0.26831372711E+01  0.26834062618E+01  0.51109989000E-03 0. -1.
      611    1    1    2    0    0 -0.33912149232E-01 -0.11881114924E-01  0.27899093472E+01  0.27901407888E+01  0.51109989000E-03 0.  1.
</event>
<event>
 6   3  0.2312675E+03  0.9118800E+02  0.7818608E-02  0.1180000E+00
       11   -1    0    0    0    0  0.00000000000E+00  0.00000000000E+00  0.54999999763E+01  0.55000000000E+01  0.51109989000E-03 0.  1.
     -623   -1    0    0    0    0  0.00000000000E+00  0.00000000000E+00  0.93234578044E-11  0.17124000000E+03  0.17124000000E+03 0. -1.
       11    1    1    2    0    0 -0.14530488198E-01 -0.50109970704E-02  0.79440362953E+00  0.79455247342E+00  0.51109989000E-03 0.  1.
     -623    1    1    2    0    0  0.64879018681E-01  0.39277876504E-01  0.56154251133E-03  0.17124001680E+03  0.17124000000E+03 0. -1.
     -611    1    1    2    0    0 -0.13596050338E-01 -0.10852330929E-01  0.12537585026E+01  0.12538792883E+01  0.51109989000E-03 0. -1.
      611    1    1    2    0    0 -0.36752480102E-01 -0.23414548478E-01  0.34512762980E+01  0.34515514384E+01  0.51109989000E-03 0.  1.
</event>
<event>
 6   3  0.2312675E+03  0.9118800E+02  0.7818608E-02  0.1180000E+00
       11   -1    0    0    0    0  0.00000000000E+00  0.00000000000E+00  0.54999999763E+01  0.55000000000E+01  0.51109989000E-03 0. -1.
     -623   -1    0    0    0    0  0.00000000000E+00  0.00000000000E+00  0.93234578044E-11  0.17124000000E+03  0.17124000000E+03 0.  1.
       11    1    1    2    0    0  0.61334981860E-02 -0.35080111025E-01  0.42363932393E+00  0.42513382834E+00  0.51109989000E-03 0. -1.
     -623    1    1    2    0    0  0.18049898549E-01  0.28968635974E-01  0.19463010890E-02  0.17124000341E+03  0.17124000000E+03 0.  1.
     -611    1    1    2    0    0  0.19429777587E-01  0.84029296775E-02  0.10647635243E+01  0.10649740604E+01  0.51109989000E-03 0.  1.
      611    1    1    2    0    0 -0.43613174322E-01 -0.22914546258E-02  0.40096508270E+01  0.40098886986E+01  0.51109989000E-03 0. -1.
</event>
<event>
 6   3  0.2312675E+03  0.9118800E+02  0.7818608E-02  0.1180000E+00
       11   -1    0    0    0    0  0.00000000000E+00  0.00000000000E+00  0.54999999763E+01  0.55000000000E+01  0.51109989000E-03 0. -1.
     -623   -1    0    0    0    0  0.00000000000E+00  0.00000000000E+00  0.93234578044E-11  0.17124000000E+03  0.17124000000E+03 0.  1.
       11    1    1    2    0    0  0.37755303928E-01  0.81903573213E-02  0.45767658409E+00  0.45930454143E+00  0.51109989000E-03 0. -1.
     -623    1    1    2    0    0 -0.12008888737E+00 -0.51721342153E-01  0.25391572476E-02  0.17124004994E+03  0.17124000000E+03 0.  1.
     -611    1    1    2    0    0  0.24663982122E-01  0.12107107744E-01  0.15354151865E+01  0.15356610792E+01  0.51109989000E-03 0.  1.
      611    1    1    2    0    0  0.57669601332E-01  0.31423877095E-01  0.35043690493E+01  0.35049844419E+01  0.51109989000E-03 0. -1.
</event>
<event>
 6   3  0.2312675E+03  0.9118800E+02  0.7818608E-02  0.1180000E+00
       11   -1    0    0    0    0  0.00000000000E+00  0.00000000000E+00  0.54999999763E+01  0.55000000000E+01  0.51109989000E-03 0.  1.
     -623   -1    0    0    0    0  0.00000000000E+00  0.00000000000E+00  0.93234578044E-11  0.17124000000E+03  0.17124000000E+03 0.  1.
       11    1    1    2    0    0  0.53153693565E-02  0.12390055433E-01  0.93566790342E-01  0.94534502183E-01  0.51109989000E-03 0.  1.
     -623    1    1    2    0    0 -0.49071667973E-02 -0.12582877062E-02  0.19140241219E-02  0.17124000009E+03  0.17124000000E+03 0.  1.
     -611    1    1    2    0    0 -0.45577286212E-01 -0.91243120192E-02  0.15930538777E+01  0.15937319287E+01  0.51109989000E-03 0. -1.
      611    1    1    2    0    0  0.45169083653E-01 -0.20074557079E-02  0.38114652840E+01  0.38117334834E+01  0.51109989000E-03 0.  1.
</event>
<event>
 6   3  0.2312675E+03  0.9118800E+02  0.7818608E-02  0.1180000E+00
       11   -1    0    0    0    0  0.00000000000E+00  0.00000000000E+00  0.54999999763E+01  0.55000000000E+01  0.51109989000E-03 0. -1.
     -623   -1    0    0    0    0  0.00000000000E+00  0.00000000000E+00  0.93234578044E-11  0.17124000000E+03  0.17124000000E+03 0.  1.
       11    1    1    2    0    0  0.18857889153E-01  0.97449771597E-02  0.20560657767E+00  0.20670004975E+00  0.51109989000E-03 0. -1.
     -623    1    1    2    0    0  0.57283042821E-01 -0.75825824710E-02  0.16910664709E-02  0.17124000976E+03  0.17124000000E+03 0.  1.
     -611    1    1    2    0    0 -0.57497823448E-01 -0.20304644262E-02  0.45034743940E+01  0.45038419157E+01  0.51109989000E-03 0. -1.
      611    1    1    2    0    0 -0.18643108525E-01 -0.13193026247E-03  0.78922793804E+00  0.78944827716E+00  0.51109989000E-03 0.  1.
</event>
<event>
 6   3  0.2312675E+03  0.9118800E+02  0.7818608E-02  0.1180000E+00
       11   -1    0    0    0    0  0.00000000000E+00  0.00000000000E+00  0.54999999763E+01  0.55000000000E+01  0.51109989000E-03 0.  1.
     -623   -1    0    0    0    0  0.00000000000E+00  0.00000000000E+00  0.93234578044E-11  0.17124000000E+03  0.17124000000E+03 0. -1.
       11    1    1    2    0    0 -0.22937862989E-01  0.11383434877E-02  0.92864267341E+00  0.92892675571E+00  0.51109989000E-03 0.  1.
     -623    1    1    2    0    0  0.82082677054E-01 -0.31665060676E-03  0.68672438619E-03  0.17124001967E+03  0.17124000000E+03 0. -1.
     -611    1    1    2    0    0 -0.48429222376E-01 -0.61461871688E-03  0.37178172561E+01  0.37181327542E+01  0.51109989000E-03 0.  1.
      611    1    1    2    0    0 -0.10715591588E-01 -0.20707416360E-03  0.85285331511E+00  0.85292080823E+00  0.51109989000E-03 0.  1.
</event>
<event>
 6   3  0.2312675E+03  0.9118800E+02  0.7818608E-02  0.1180000E+00
       11   -1    0    0    0    0  0.00000000000E+00  0.00000000000E+00  0.54999999763E+01  0.55000000000E+01  0.51109989000E-03 0.  1.
     -623   -1    0    0    0    0  0.00000000000E+00  0.00000000000E+00  0.93234578044E-11  0.17124000000E+03  0.17124000000E+03 0. -1.
       11    1    1    2    0    0  0.44284878733E-01 -0.13288735201E-01  0.80912370451E+00  0.81044381137E+00  0.51109989000E-03 0.  1.
     -623    1    1    2    0    0  0.13160583321E-01  0.41700433005E-01  0.17641461959E-02  0.17124000559E+03  0.17124000000E+03 0. -1.
     -611    1    1    2    0    0 -0.30698280235E-01 -0.15739164977E-01  0.24603546218E+01  0.24605965195E+01  0.51109989000E-03 0.  1.
      611    1    1    2    0    0 -0.26747181813E-01 -0.12672532823E-01  0.22287575032E+01  0.22289540763E+01  0.51109989000E-03 0.  1.
</event>
<event>
 6   3  0.2312675E+03  0.9118800E+02  0.7818608E-02  0.1180000E+00
       11   -1    0    0    0    0  0.00000000000E+00  0.00000000000E+00  0.54999999763E+01  0.55000000000E+01  0.51109989000E-03 0. -1.
     -623   -1    0    0    0    0  0.00000000000E+00  0.00000000000E+00  0.93234578044E-11  0.17124000000E+03  0.17124000000E+03 0. -1.
       11    1    1    2    0    0  0.98100196503E-02  0.73983371944E-02  0.13390112248E+00  0.13446465596E+00  0.51109989000E-03 0. -1.
     -623    1    1    2    0    0 -0.83608017087E-02  0.16324515190E-02  0.99180304582E-03  0.17124000021E+03  0.17124000000E+03 0. -1.
     -611    1    1    2    0    0 -0.32571787631E-01 -0.14246621064E-01  0.24662152100E+01  0.24664714899E+01  0.51109989000E-03 0.  1.
      611    1    1    2    0    0  0.31122569689E-01  0.52158323502E-02  0.28988918407E+01  0.28990636393E+01  0.51109989000E-03 0. -1.
</event>
<event>
 6   3  0.2312675E+03  0.9118800E+02  0.7818608E-02  0.1180000E+00
       11   -1    0    0    0    0  0.00000000000E+00  0.00000000000E+00  0.54999999763E+01  0.55000000000E+01  0.51109989000E-03 0.  1.
     -623   -1    0    0    0    0  0.00000000000E+00  0.00000000000E+00  0.93234578044E-11  0.17124000000E+03  0.17124000000E+03 0.  1.
       11    1    1    2    0    0 -0.15369770816E-02 -0.21422446701E-02  0.16045228948E-01  0.16268438950E-01  0.51109989000E-03 0.  1.
     -623    1    1    2    0    0 -0.12631200118E-02  0.16648052688E-02  0.57744623241E-03  0.17124000001E+03  0.17124000000E+03 0.  1.
     -611    1    1    2    0    0 -0.29598001766E-01  0.27864297254E-02  0.24562781659E+01  0.24564581200E+01  0.51109989000E-03 0.  1.
      611    1    1    2    0    0  0.32398098860E-01 -0.23089903243E-02  0.30270991355E+01  0.30272734277E+01  0.51109989000E-03 0. -1.
</event>
<event>
 6   3  0.2312675E+03  0.9118800E+02  0.7818608E-02  0.1180000E+00
       11   -1    0    0    0    0  0.00000000000E+00  0.00000000000E+00  0.54999999763E+01  0.55000000000E+01  0.51109989000E-03 0.  1.
     -623   -1    0    0    0    0  0.00000000000E+00  0.00000000000E+00  0.93234578044E-11  0.17124000000E+03  0.17124000000E+03 0. -1.
       11    1    1    2    0    0 -0.18997106276E-03 -0.45694790856E-01  0.68227576990E+00  0.68380445846E+00  0.51109989000E-03 0.  1.
     -623    1    1    2    0    0  0.37096255213E-01  0.11541883637E+00  0.30549433857E-02  0.17124004294E+03  0.17124000000E+03 0. -1.
     -611    1    1    2    0    0  0.28094011237E-01 -0.34493025331E-01  0.15041191343E+01  0.15047769515E+01  0.51109989000E-03 0.  1.
      611    1    1    2    0    0 -0.65000295387E-01 -0.35231020179E-01  0.33105501287E+01  0.33113756475E+01  0.51109989000E-03 0. -1.
</event>
<event>
 6   3  0.2312675E+03  0.9118800E+02  0.7818608E-02  0.1180000E+00
       11   -1    0    0    0    0  0.00000000000E+00  0.00000000000E+00  0.54999999763E+01  0.55000000000E+01  0.51109989000E-03 0.  1.
     -623   -1    0    0    0    0  0.00000000000E+00  0.00000000000E+00  0.93234578044E-11  0.17124000000E+03  0.17124000000E+03 0. -1.
       11    1    1    2    0    0  0.97456001981E-01 -0.11497967055E+00  0.72493325419E+00  0.74043668279E+00  0.51109989000E-03 0.  1.
     -623    1    1    2    0    0 -0.17649824736E-01  0.74940163735E-03  0.20506713978E-01  0.17124000214E+03  0.17124000000E+03 0. -1.
     -611    1    1    2    0    0  0.46351560445E-01  0.14822230399E-02  0.13545991026E+01  0.13553928043E+01  0.51109989000E-03 0.  1.
      611    1    1    2    0    0 -0.12615773769E+00  0.11274804587E+00  0.33999609055E+01  0.34041683738E+01  0.51109989000E-03 0. -1.
</event>
<event>
 6   3  0.2312675E+03  0.9118800E+02  0.7818608E-02  0.1180000E+00
       11   -1    0    0    0    0  0.00000000000E+00  0.00000000000E+00  0.54999999763E+01  0.55000000000E+01  0.51109989000E-03 0.  1.
     -623   -1    0    0    0    0  0.00000000000E+00  0.00000000000E+00  0.93234578044E-11  0.17124000000E+03  0.17124000000E+03 0.  1.
       11    1    1    2    0    0  0.16157991730E-01  0.21243350109E-02  0.38967608184E+00  0.39001705537E+00  0.51109989000E-03 0.  1.
     -623    1    1    2    0    0  0.36170839794E-01 -0.47648607555E-01  0.82277332882E-03  0.17124001045E+03  0.17124000000E+03 0.  1.
     -611    1    1    2    0    0 -0.20309562074E-01  0.16907127279E-01  0.20176870584E+01  0.20178601677E+01  0.51109989000E-03 0.  1.
      611    1    1    2    0    0 -0.32019269453E-01  0.28617145268E-01  0.30918140630E+01  0.30921123259E+01  0.51109989000E-03 0.  1.
</event>
<event>
 6   3  0.2312675E+03  0.9118800E+02  0.7818608E-02  0.1180000E+00
       11   -1    0    0    0    0  0.00000000000E+00  0.00000000000E+00  0.54999999763E+01  0.55000000000E+01  0.51109989000E-03 0. -1.
     -623   -1    0    0    0    0  0.00000000000E+00  0.00000000000E+00  0.93234578044E-11  0.17124000000E+03  0.17124000000E+03 0.  1.
       11    1    1    2    0    0 -0.48828329380E-02  0.13227019051E-04  0.18212268419E+00  0.18218884585E+00  0.51109989000E-03 0. -1.
     -623    1    1    2    0    0  0.49658059531E-02  0.18887378280E-02  0.52428939171E-03  0.17124000008E+03  0.17124000000E+03 0.  1.
     -611    1    1    2    0    0 -0.34895951691E-01 -0.19014566567E-02  0.27402933490E+01  0.27405162365E+01  0.51109989000E-03 0. -1.
      611    1    1    2    0    0  0.34812978676E-01 -0.50819021837E-06  0.25770596534E+01  0.25772948341E+01  0.51109989000E-03 0.  1.
</event>
<event>
 6   3  0.2312675E+03  0.9118800E+02  0.7818608E-02  0.1180000E+00
       11   -1    0    0    0    0  0.00000000000E+00  0.00000000000E+00  0.54999999763E+01  0.55000000000E+01  0.51109989000E-03 0. -1.
     -623   -1    0    0    0    0  0.00000000000E+00  0.00000000000E+00  0.93234578044E-11  0.17124000000E+03  0.17124000000E+03 0.  1.
       11    1    1    2    0    0  0.36031921250E-01  0.12814829199E-01  0.97605015342E+00  0.97679920270E+00  0.51109989000E-03 0. -1.
     -623    1    1    2    0    0  0.29451141392E-01 -0.14373971212E-01  0.12270360956E-02  0.17124000314E+03  0.17124000000E+03 0.  1.
     -611    1    1    2    0    0 -0.16339111146E-01  0.54405767257E-03  0.10730134021E+01  0.10731380549E+01  0.51109989000E-03 0.  1.
      611    1    1    2    0    0 -0.49143951495E-01  0.10150843402E-02  0.34497093845E+01  0.34500596020E+01  0.51109989000E-03 0. -1.
</event>
<event>
 6   3  0.2312675E+03  0.9118800E+02  0.7818608E-02  0.1180000E+00
       11   -1    0    0    0    0  0.00000000000E+00  0.00000000000E+00  0.54999999763E+01  0.55000000000E+01  0.51109989000E-03 0. -1.
     -623   -1    0    0    0    0  0.00000000000E+00  0.00000000000E+00  0.93234578044E-11  0.17124000000E+03  0.17124000000E+03 0. -1.
       11    1    1    2    0    0  0.60876941619E-01  0.46165951962E-01  0.56830708476E+00  0.57342000397E+00  0.51109989000E-03 0. -1.
     -623    1    1    2    0    0  0.11529153194E-01 -0.18185827466E-01  0.10074212403E-01  0.17124000165E+03  0.17124000000E+03 0. -1.
     -611    1    1    2    0    0 -0.12998958887E+00  0.15226959338E-02  0.42147896720E+01  0.42167940253E+01  0.51109989000E-03 0. -1.
      611    1    1    2    0    0  0.57583494060E-01 -0.29502820430E-01  0.70682900712E+00  0.70978432058E+00  0.51109989000E-03 0.  1.
</event>
<event>
 6   3  0.2312675E+03  0.9118800E+02  0.7818608E-02  0.1180000E+00
       11   -1    0    0    0    0  0.00000000000E+00  0.00000000000E+00  0.54999999763E+01  0.55000000000E+01  0.51109989000E-03 0.  1.
     -623   -1    0    0    0    0  0.00000000000E+00  0.00000000000E+00  0.93234578044E-11  0.17124000000E+03  0.17124000000E+03 0. -1.
       11    1    1    2    0    0  0.83622064550E-01 -0.89374278711E-01  0.51785233934E+00  0.53212002214E+00  0.51109989000E-03 0.  1.
     -623    1    1    2    0    0  0.26501637521E-01 -0.12132850568E-02  0.16339349712E-01  0.17124000283E+03  0.17124000000E+03 0. -1.
     -611    1    1    2    0    0 -0.30624602116E-01  0.26949810781E-01  0.12051678397E+01  0.12058581764E+01  0.51109989000E-03 0. -1.
      611    1    1    2    0    0 -0.79499099954E-01  0.63637752987E-01  0.37606404475E+01  0.37620189669E+01  0.51109989000E-03 0.  1.
</event>
<event>
 6   3  0.2312675E+03  0.9118800E+02  0.7818608E-02  0.1180000E+00
       11   -1    0    0    0    0  0.00000000000E+00  0.00000000000E+00  0.54999999763E+01  0.55000000000E+01  0.51109989000E-03 0. -1.
     -623   -1    0    0    0    0  0.00000000000E+00  0.00000000000E+00  0.93234578044E-11  0.17124000000E+03  0.17124000000E+03 0.  1.
       11    1    1    2    0    0 -0.15069609979E-01 -0.10805356800E-01  0.35149487635E+00  0.35198403118E+00  0.51109989000E-03 0. -1.
     -623    1    1    2    0    0  0.70456681845E-01 -0.58911537241E-02  0.83755010918E-03  0.17124001460E+03  0.17124000000E+03 0.  1.
     -611    1    1    2    0    0 -0.22381888299E-01  0.28721453565E-02  0.22352569278E+01  0.22353708848E+01  0.51109989000E-03 0.  1.
      611    1    1    2    0    0 -0.33005183565E-01  0.13824365167E-01  0.29124106218E+01  0.29126304857E+01  0.51109989000E-03 0. -1.
</event>
<event>
 6   3  0.2312675E+03  0.9118800E+02  0.7818608E-02  0.1180000E+00
       11   -1    0    0    0    0  0.00000000000E+00  0.00000000000E+00  0.54999999763E+01  0.55000000000E+01  0.51109989000E-03 0. -1.
     -623   -1    0    0    0    0  0.00000000000E+00  0.00000000000E+00  0.93234578044E-11  0.17124000000E+03  0.17124000000E+03 0.  1.
       11    1    1    2    0    0  0.28969850375E-02 -0.29494644669E-03  0.13930639799E+00  0.13933776681E+00  0.51109989000E-03 0. -1.
     -623    1    1    2    0    0  0.59422279598E-01 -0.17362945429E-01  0.43420361692E-03  0.17124001119E+03  0.17124000000E+03 0.  1.
     -611    1    1    2    0    0 -0.29175283852E-01  0.74485458787E-02  0.24902177676E+01  0.24903998613E+01  0.51109989000E-03 0. -1.
      611    1    1    2    0    0 -0.33143980708E-01  0.10209345976E-01  0.28700416006E+01  0.28702511745E+01  0.51109989000E-03 0. -1.
</event>
<event>
 6   3  0.2312675E+03  0.9118800E+02  0.7818608E-02  0.1180000E+00
       11   -1    0    0    0    0  0.00000000000E+00  0.00000000000E+00  0.54999999763E+01  0.55000000000E+01  0.51109989000E-03 0.  1.
     -623   -1    0    0    0    0  0.00000000000E+00  0.00000000000E+00  0.93234578044E-11  0.17124000000E+03  0.17124000000E+03 0.  1.
       11    1    1    2    0    0 -0.81738254599E-02  0.65110526070E-02  0.12771861095E+00  0.12814643981E+00  0.51109989000E-03 0.  1.
     -623    1    1    2    0    0 -0.33415223347E-02 -0.72802503560E-02  0.13612067747E-02  0.17124000019E+03  0.17124000000E+03 0.  1.
     -611    1    1    2    0    0 -0.32193837810E-01 -0.32067666205E-01  0.24786621159E+01  0.24790786442E+01  0.51109989000E-03 0. -1.
      611    1    1    2    0    0  0.43709185605E-01  0.32836863954E-01  0.28922580427E+01  0.28927747233E+01  0.51109989000E-03 0.  1.
</event>
<event>
 6   3  0.2312675E+03  0.9118800E+02  0.7818608E-02  0.1180000E+00
       11   -1    0    0    0    0  0.00000000000E+00  0.00000000000E+00  0.54999999763E+01  0.55000000000E+01  0.51109989000E-03 0.  1.
     -623   -1    0    0    0    0  0.00000000000E+00  0.00000000000E+00  0.93234578044E-11  0.17124000000E+03  0.17124000000E+03 0.  1.
       11    1    1    2    0    0  0.58913805825E-01 -0.52100885734E-01  0.40091213164E+00  0.40855371413E+00  0.51109989000E-03 0.  1.
     -623    1    1    2    0    0 -0.95753555964E-02 -0.15229808807E-01  0.94042448636E-02  0.17124000120E+03  0.17124000000E+03 0.  1.
     -611    1    1    2    0    0 -0.81176955882E-01  0.39781118747E-01  0.37965259593E+01  0.37976021193E+01  0.51109989000E-03 0.  1.
      611    1    1    2    0    0  0.31838505653E-01  0.27549575794E-01  0.12931576404E+01  0.12938429634E+01  0.51109989000E-03 0. -1.
</event>
<event>
 6   3  0.2312675E+03  0.9118800E+02  0.7818608E-02  0.1180000E+00
       11   -1    0    0    0    0  0.00000000000E+00  0.00000000000E+00  0.54999999763E+01  0.55000000000E+01  0.51109989000E-03 0.  1.
     -623   -1    0    0    0    0  0.00000000000E+00  0.00000000000E+00  0.93234578044E-11  0.17124000000E+03  0.17124000000E+03 0. -1.
       11    1    1    2    0    0  0.53391569975E-01  0.18039166287E-01  0.50232198265E+00  0.50547374486E+00  0.51109989000E-03 0.  1.
     -623    1    1    2    0    0 -0.11849210638E-01  0.99689565704E-03  0.34772844738E-02  0.17124000045E+03  0.17124000000E+03 0. -1.
     -611    1    1    2    0    0  0.59673384260E-02 -0.35948478572E-02  0.55288822038E+00  0.55293234443E+00  0.51109989000E-03 0. -1.
      611    1    1    2    0    0 -0.47509697763E-01 -0.15441214087E-01  0.44413124888E+01  0.44415934625E+01  0.51109989000E-03 0.  1.
</event>
<event>
 6   3  0.2312675E+03  0.9118800E+02  0.7818608E-02  0.1180000E+00
       11   -1    0    0    0    0  0.00000000000E+00  0.00000000000E+00  0.54999999763E+01  0.55000000000E+01  0.51109989000E-03 0. -1.
     -623   -1    0    0    0    0  0.00000000000E+00  0.00000000000E+00  0.93234578044E-11  0.17124000000E+03  0.17124000000E+03 0.  1.
       11    1    1    2    0    0 -0.34911231850E-01  0.43772467189E-01  0.95177021037E+00  0.95341576323E+00  0.51109989000E-03 0. -1.
     -623    1    1    2    0    0 -0.11892244663E-01 -0.34406526564E-03  0.20944650246E-02  0.17124000043E+03  0.17124000000E+03 0.  1.
     -611    1    1    2    0    0  0.30339870195E-01 -0.27721803010E-01  0.29292627389E+01  0.29295510682E+01  0.51109989000E-03 0. -1.
      611    1    1    2    0    0  0.16463606357E-01 -0.15706598950E-01  0.16168725658E+01  0.16170327463E+01  0.51109989000E-03 0. -1.
</event>
<event>
 6   3  0.2312675E+03  0.9118800E+02  0.7818608E-02  0.1180000E+00
       11   -1    0    0    0    0  0.00000000000E+00  0.00000000000E+00  0.54999999763E+01  0.55000000000E+01  0.51109989000E-03 0.  1.
     -623   -1    0    0    0    0  0.00000000000E+00  0.00000000000E+00  0.93234578044E-11  0.17124000000E+03  0.17124000000E+03 0. -1.
       11    1    1    2    0    0  0.76724929513E-01  0.42618756408E-01  0.10296226009E+01  0.10333566832E+01  0.51109989000E-03 0.  1.
     -623    1    1    2    0    0  0.34713093990E-01 -0.28555256559E-01  0.51526965306E-02  0.17124000598E+03  0.17124000000E+03 0. -1.
     -611    1    1    2    0    0 -0.56883325796E-01 -0.75068294893E-02  0.22828345882E+01  0.22835555793E+01  0.51109989000E-03 0.  1.
      611    1    1    2    0    0 -0.54554697634E-01 -0.65566703509E-02  0.21823900876E+01  0.21830817577E+01  0.51109989000E-03 0.  1.
</event>
<event>
 6   3  0.2312675E+03  0.9118800E+02  0.7818608E-02  0.1180000E+00
       11   -1    0    0    0    0  0.00000000000E+00  0.00000000000E+00  0.54999999763E+01  0.55000000000E+01  0.51109989000E-03 0.  1.
     -623   -1    0    0    0    0  0.00000000000E+00  0.00000000000E+00  0.93234578044E-11  0.17124000000E+03  0.17124000000E+03 0. -1.
       11    1    1    2    0    0  0.19103965693E-01  0.91152217057E-02  0.30694051142E+00  0.30766993279E+00  0.51109989000E-03 0.  1.
     -623    1    1    2    0    0 -0.15292022018E-02  0.11268317328E-02  0.12905586566E-02  0.17124000002E+03  0.17124000000E+03 0. -1.
     -611    1    1    2    0    0  0.27952630618E-01 -0.53754083244E-02  0.14372706052E+01  0.14375525376E+01  0.51109989000E-03 0. -1.
      611    1    1    2    0    0 -0.45527394108E-01 -0.48666451141E-02  0.37544983011E+01  0.37547775143E+01  0.51109989000E-03 0.  1.
</event>
<event>
 6   3  0.2312675E+03  0.9118800E+02  0.7818608E-02  0.1180000E+00
       11   -1    0    0    0    0  0.00000000000E+00  0.00000000000E+00  0.54999999763E+01  0.55000000000E+01  0.51109989000E-03 0.  1.
     -623   -1    0    0    0    0  0.00000000000E+00  0.00000000000E+00  0.93234578044E-11  0.17124000000E+03  0.17124000000E+03 0.  1.
       11    1    1    2    0    0 -0.18565511657E-01 -0.30294594926E-01  0.20451044616E+00  0.20757462397E+00  0.51109989000E-03 0.  1.
     -623    1    1    2    0    0 -0.10678686113E-01  0.66750159965E-01  0.45724826809E-02  0.17124001340E+03  0.17124000000E+03 0.  1.
     -611    1    1    2    0    0 -0.39786123974E-01 -0.31091187498E-01  0.14686673307E+01  0.14695351602E+01  0.51109989000E-03 0. -1.
      611    1    1    2    0    0  0.69030321744E-01 -0.53643775403E-02  0.38222497167E+01  0.38228768121E+01  0.51109989000E-03 0.  1.
</event>
<event>
 6   3  0.2312675E+03  0.9118800E+02  0.7818608E-02  0.1180000E+00
       11   -1    0    0    0    0  0.00000000000E+00  0.00000000000E+00  0.54999999763E+01  0.55000000000E+01  0.51109989000E-03 0.  1.
     -623   -1    0    0    0    0  0.00000000000E+00  0.00000000000E+00  0.93234578044E-11  0.17124000000E+03  0.17124000000E+03 0. -1.
       11    1    1    2    0    0  0.84430915211E-01  0.19701977116E+00  0.98658359288E+00  0.10096003252E+01  0.51109989000E-03 0.  1.
     -623    1    1    2    0    0 -0.20244646774E-01 -0.22601032385E-01  0.26869526531E-01  0.17124000480E+03  0.17124000000E+03 0. -1.
     -611    1    1    2    0    0 -0.37669808147E-01 -0.10313005386E+00  0.26436800040E+01  0.26459590034E+01  0.51109989000E-03 0.  1.
      611    1    1    2    0    0 -0.26516460410E-01 -0.71288685245E-01  0.18428668612E+01  0.18444358835E+01  0.51109989000E-03 0.  1.
</event>
<event>
 6   3  0.2312675E+03  0.9118800E+02  0.7818608E-02  0.1180000E+00
       11   -1    0    0    0    0  0.00000000000E+00  0.00000000000E+00  0.54999999763E+01  0.55000000000E+01  0.51109989000E-03 0. -1.
     -623   -1    0    0    0    0  0.00000000000E+00  0.00000000000E+00  0.93234578044E-11  0.17124000000E+03  0.17124000000E+03 0. -1.
       11    1    1    2    0    0  0.52429423269E-01 -0.54405525592E-01  0.21070561536E+00  0.22384352394E+00  0.51109989000E-03 0. -1.
     -623    1    1    2    0    0  0.13238716549E-02 -0.90738302266E-02  0.13794612233E-01  0.17124000080E+03  0.17124000000E+03 0. -1.
     -611    1    1    2    0    0 -0.24057881578E-01  0.27921718638E-01  0.23131422234E+01  0.23134358886E+01  0.51109989000E-03 0.  1.
      611    1    1    2    0    0 -0.29695413327E-01  0.35557637157E-01  0.29623575233E+01  0.29627197843E+01  0.51109989000E-03 0. -1.
</event>
<event>
 6   3  0.2312675E+03  0.9118800E+02  0.7818608E-02  0.1180000E+00
       11   -1    0    0    0    0  0.00000000000E+00  0.00000000000E+00  0.54999999763E+01  0.55000000000E+01  0.51109989000E-03 0. -1.
     -623   -1    0    0    0    0  0.00000000000E+00  0.00000000000E+00  0.93234578044E-11  0.17124000000E+03  0.17124000000E+03 0.  1.
       11    1    1    2    0    0 -0.39233123496E-03 -0.88569198908E-03  0.69656651997E-02  0.70512473272E-02  0.51109989000E-03 0.  1.
     -623    1    1    2    0    0  0.56281753546E-02 -0.51125642218E-02  0.11692887417E-02  0.17124000017E+03  0.17124000000E+03 0.  1.
     -611    1    1    2    0    0  0.46645304835E-01  0.72953739509E-02  0.14920628396E+01  0.14928096950E+01  0.51109989000E-03 0.  1.
      611    1    1    2    0    0 -0.51881148955E-01 -0.12971177400E-02  0.39998021827E+01  0.40001388849E+01  0.51109989000E-03 0. -1.
</event>
<event>
 6   3  0.2312675E+03  0.9118800E+02  0.7818608E-02  0.1180000E+00
       11   -1    0    0    0    0  0.00000000000E+00  0.00000000000E+00  0.54999999763E+01  0.55000000000E+01  0.51109989000E-03 0. -1.
     -623   -1    0    0    0    0  0.00000000000E+00  0.00000000000E+00  0.93234578044E-11  0.17124000000E+03  0.17124000000E+03 0. -1.
       11    1    1    2    0    0 -0.44757734164E-01 -0.67227261856E-03  0.67789875966E+00  0.67937522496E+00  0.51109989000E-03 0. -1.
     -623    1    1    2    0    0 -0.85634242453E-02 -0.56234312692E-02  0.17760450243E-02  0.17124000032E+03  0.17124000000E+03 0. -1.
     -611    1    1    2    0    0  0.75031099296E-02  0.10222787089E-02  0.69928861606E+00  0.69932980166E+00  0.51109989000E-03 0. -1.
      611    1    1    2    0    0  0.45818048458E-01  0.52734251763E-02  0.41210365535E+01  0.41212946557E+01  0.51109989000E-03 0. -1.
</event>
<event>
 6   3  0.2312675E+03  0.9118800E+02  0.7818608E-02  0.1180000E+00
       11   -1    0    0    0    0  0.00000000000E+00  0.00000000000E+00  0.54999999763E+01  0.55000000000E+01  0.51109989000E-03 0. -1.
     -623   -1    0    0    0    0  0.00000000000E+00  0.00000000000E+00  0.93234578044E-11  0.17124000000E+03  0.17124000000E+03 0.  1.
       11    1    1    2    0    0 -0.46556736444E-01  0.60223005455E-02  0.79161964648E+00  0.79301054452E+00  0.51109989000E-03 0. -1.
     -623    1    1    2    0    0 -0.18023345096E-02  0.52811270106E-03  0.16440849747E-02  0.17124000002E+03  0.17124000000E+03 0.  1.
     -611    1    1    2    0    0  0.19469020751E-01 -0.30906279706E-02  0.18902415551E+01  0.18903444111E+01  0.51109989000E-03 0. -1.
      611    1    1    2    0    0  0.28890050155E-01 -0.34597852696E-02  0.28164946850E+01  0.28166450215E+01  0.51109989000E-03 0. -1.
</event>
<event>
 6   3  0.2312675E+03  0.9118800E+02  0.7818608E-02  0.1180000E+00
       11   -1    0    0    0    0  0.00000000000E+00  0.00000000000E+00  0.54999999763E+01  0.55000000000E+01  0.51109989000E-03 0.  1.
     -623   -1    0    0    0    0  0.00000000000E+00  0.00000000000E+00  0.93234578044E-11  0.17124000000E+03  0.17124000000E+03 0. -1.
       11    1    1    2    0    0 -0.38828576755E-01 -0.65630027071E-01  0.32439322310E+00  0.33323592730E+00  0.51109989000E-03 0.  1.
     -623    1    1    2    0    0 -0.16845833578E-01 -0.18347527338E-01  0.98291141085E-02  0.17124000209E+03  0.17124000000E+03 0. -1.
     -611    1    1    2    0    0  0.43112346465E-01  0.67597908391E-01  0.41528005873E+01  0.41535745005E+01  0.51109989000E-03 0.  1.
      611    1    1    2    0    0  0.12562063877E-01  0.16379646031E-01  0.10129770525E+01  0.10131874794E+01  0.51109989000E-03 0. -1.
</event>
<event>
 6   3  0.2312675E+03  0.9118800E+02  0.7818608E-02  0.1180000E+00
       11   -1    0    0    0    0  0.00000000000E+00  0.00000000000E+00  0.54999999763E+01  0.55000000000E+01  0.51109989000E-03 0.  1.
     -623   -1    0    0    0    0  0.00000000000E+00  0.00000000000E+00  0.93234578044E-11  0.17124000000E+03  0.17124000000E+03 0.  1.
       11    1    1    2    0    0 -0.63115143845E-02  0.13793557234E-01  0.84212215705E-01  0.85569012686E-01  0.51109989000E-03 0.  1.
     -623    1    1    2    0    0  0.74449417897E-02 -0.27234354587E-01  0.24855602177E-02  0.17124000235E+03  0.17124000000E+03 0.  1.
     -611    1    1    2    0    0 -0.38119091562E-01  0.40775829892E-01  0.18840525292E+01  0.18848792872E+01  0.51109989000E-03 0. -1.
      611    1    1    2    0    0  0.36985664157E-01 -0.27335032539E-01  0.35292496712E+01  0.35295493545E+01  0.51109989000E-03 0.  1.
</event>
<event>
 6   3  0.2312675E+03  0.9118800E+02  0.7818608E-02  0.1180000E+00
       11   -1    0    0    0    0  0.00000000000E+00  0.00000000000E+00  0.54999999763E+01  0.55000000000E+01  0.51109989000E-03 0. -1.
     -623   -1    0    0    0    0  0.00000000000E+00  0.00000000000E+00  0.93234578044E-11  0.17124000000E+03  0.17124000000E+03 0. -1.
       11    1    1    2    0    0 -0.11619179401E-01  0.24517784600E-02  0.14627739317E+00  0.14675950914E+00  0.51109989000E-03 0. -1.
     -623    1    1    2    0    0  0.82670088551E-02 -0.89787134490E-02  0.10189424780E-02  0.17124000044E+03  0.17124000000E+03 0. -1.
     -611    1    1    2    0    0 -0.27794569639E-01 -0.20249377205E-01  0.26827178817E+01  0.26829383276E+01  0.51109989000E-03 0.  1.
      611    1    1    2    0    0  0.31146740185E-01  0.26776312194E-01  0.26699857588E+01  0.26703017252E+01  0.51109989000E-03 0. -1.
</event>
<event>
 6   3  0.2312675E+03  0.9118800E+02  0.7818608E-02  0.1180000E+00
       11   -1    0    0    0    0  0.00000000000E+00  0.00000000000E+00  0.54999999763E+01  0.55000000000E+01  0.51109989000E-03 0. -1.
     -623   -1    0    0    0    0  0.00000000000E+00  0.00000000000E+00  0.93234578044E-11  0.17124000000E+03  0.17124000000E+03 0. -1.
       11    1    1    2    0    0  0.10304709042E+00 -0.73379712671E-01  0.54411090418E+00  0.55862350680E+00  0.51109989000E-03 0. -1.
     -623    1    1    2    0    0 -0.97632432384E-02 -0.14404927628E-02  0.16662146163E-01  0.17124000110E+03  0.17124000000E+03 0. -1.
     -611    1    1    2    0    0 -0.10925278013E-01 -0.18278507245E-01  0.78896377847E+00  0.78925127208E+00  0.51109989000E-03 0.  1.
      611    1    1    2    0    0 -0.82358569169E-01  0.93098712679E-01  0.41502631474E+01  0.41521241261E+01  0.51109989000E-03 0. -1.
</event>
<event>
 6   3  0.2312675E+03  0.9118800E+02  0.7818608E-02  0.1180000E+00
       11   -1    0    0    0    0  0.00000000000E+00  0.00000000000E+00  0.54999999763E+01  0.55000000000E+01  0.51109989000E-03 0. -1.
     -623   -1    0    0    0    0  0.00000000000E+00  0.00000000000E+00  0.93234578044E-11  0.17124000000E+03  0.17124000000E+03 0.  1.
       11    1    1    2    0    0 -0.10512976478E-01 -0.22106126458E-01  0.19496877465E+00  0.19650009622E+00  0.51109989000E-03 0. -1.
     -623    1    1    2    0    0  0.15965171540E-01  0.17352877569E-01  0.22080090656E-02  0.17124000164E+03  0.17124000000E+03 0.  1.
     -611    1    1    2    0    0 -0.38139849512E-01  0.24270313585E-01  0.33385603705E+01  0.33388664701E+01  0.51109989000E-03 0.  1.
      611    1    1    2    0    0  0.32687654450E-01 -0.19517064696E-01  0.19642628221E+01  0.19646317960E+01  0.51109989000E-03 0. -1.
</event>
<event>
 6   3  0.2312675E+03  0.9118800E+02  0.7818608E-02  0.1180000E+00
       11   -1    0    0    0    0  0.00000000000E+00  0.00000000000E+00  0.54999999763E+01  0.55000000000E+01  0.51109989000E-03 0. -1.
     -623   -1    0    0    0    0  0.00000000000E+00  0.00000000000E+00  0.93234578044E-11  0.17124000000E+03  0.17124000000E+03 0.  1.
       11    1    1    2    0    0 -0.28895568688E-01  0.38297669728E-01  0.25857196742E+00  0.26298552994E+00  0.51109989000E-03 0. -1.
     -623    1    1    2    0    0 -0.33646417872E-01  0.69305650147E-01  0.59227372743E-02  0.17124001743E+03  0.17124000000E+03 0.  1.
     -611    1    1    2    0    0  0.52403137998E-01 -0.84699997712E-01  0.43289650120E+01  0.43301106816E+01  0.51109989000E-03 0. -1.
      611    1    1    2    0    0  0.10138848561E-01 -0.22903322162E-01  0.90654025955E+00  0.90688635552E+00  0.51109989000E-03 0.  1.
</event>
<event>
 6   3  0.2312675E+03  0.9118800E+02  0.7818608E-02  0.1180000E+00
       11   -1    0    0    0    0  0.00000000000E+00  0.00000000000E+00  0.54999999763E+01  0.55000000000E+01  0.51109989000E-03 0.  1.
     -623   -1    0    0    0    0  0.00000000000E+00  0.00000000000E+00  0.93234578044E-11  0.17124000000E+03  0.17124000000E+03 0.  1.
       11    1    1    2    0    0 -0.22413012348E-02 -0.17235653912E-02  0.22789494161E+00  0.22791305304E+00  0.51109989000E-03 0.  1.
     -623    1    1    2    0    0  0.71817582953E-02  0.30471507526E-02  0.12763084754E-02  0.17124000018E+03  0.17124000000E+03 0.  1.
     -611    1    1    2    0    0  0.49946739860E-01  0.20413933675E-01  0.30302026809E+01  0.30306830837E+01  0.51109989000E-03 0.  1.
      611    1    1    2    0    0 -0.54887196920E-01 -0.21737519036E-01  0.22406260453E+01  0.22414036808E+01  0.51109989000E-03 0. -1.
</event>
<event>
 6   3  0.2312675E+03  0.9118800E+02  0.7818608E-02  0.1180000E+00
       11   -1    0    0    0    0  0.00000000000E+00  0.00000000000E+00  0.54999999763E+01  0.55000000000E+01  0.51109989000E-03 0. -1.
     -623   -1    0    0    0    0  0.00000000000E+00  0.00000000000E+00  0.93234578044E-11  0.17124000000E+03  0.17124000000E+03 0. -1.
       11    1    1    2    0    0  0.48844375385E-02 -0.72253758102E-02  0.21479774909E+00  0.21497534283E+00  0.51109989000E-03 0. -1.
     -623    1    1    2    0    0 -0.43414829286E-02 -0.34807987025E-02  0.59342597268E-03  0.17124000009E+03  0.17124000000E+03 0. -1.
     -611    1    1    2    0    0 -0.32585594628E-01  0.10263744045E-01  0.26023144882E+01  0.26025387840E+01  0.51109989000E-03 0.  1.
      611    1    1    2    0    0  0.32042640018E-01  0.44243046773E-03  0.26822943130E+01  0.26824857818E+01  0.51109989000E-03 0. -1.
</event>
<event>
 6   3  0.2312675E+03  0.9118800E+02  0.7818608E-02  0.1180000E+00
       11   -1    0    0    0    0  0.00000000000E+00  0.00000000000E+00  0.54999999763E+01  0.55000000000E+01  0.51109989000E-03 0.  1.
     -623   -1    0    0    0    0  0.00000000000E+00  0.00000000000E+00  0.93234578044E-11  0.17124000000E+03  0.17124000000E+03 0. -1.
       11    1    1    2    0    0  0.15461905728E-02  0.10168127518E-01  0.14748352418E-01  0.17987680357E-01  0.51109989000E-03 0.  1.
     -623    1    1    2    0    0  0.83979142627E-02 -0.41859541960E-02  0.47214560608E-02  0.17124000032E+03  0.17124000000E+03 0. -1.
     -611    1    1    2    0    0  0.42280689306E-01  0.35095682029E-01  0.33364180991E+01  0.33368705934E+01  0.51109989000E-03 0.  1.
      611    1    1    2    0    0 -0.52224794142E-01 -0.41077855351E-01  0.21441120687E+01  0.21451414041E+01  0.51109989000E-03 0. -1.
</event>
<event>
 6   3  0.2312675E+03  0.9118800E+02  0.7818608E-02  0.1180000E+00
       11   -1    0    0    0    0  0.00000000000E+00  0.00000000000E+00  0.54999999763E+01  0.55000000000E+01  0.51109989000E-03 0.  1.
     -623   -1    0    0    0    0  0.00000000000E+00  0.00000000000E+00  0.93234578044E-11  0.17124000000E+03  0.17124000000E+03 0. -1.
       11    1    1    2    0    0  0.78871348890E-02 -0.30154458911E-02  0.51455552222E+00  0.51462505427E+00  0.51109989000E-03 0.  1.
     -623    1    1    2    0    0 -0.14160156353E+00  0.27163446319E-01  0.19902908867E-02  0.17124006071E+03  0.17124000000E+03 0. -1.
     -611    1    1    2    0    0  0.26112740130E-01 -0.68149518522E-02  0.88855327914E+00  0.88896316564E+00  0.51109989000E-03 0. -1.
      611    1    1    2    0    0  0.10760168848E+00 -0.17333048570E-01  0.40949008829E+01  0.40963510665E+01  0.51109989000E-03 0.  1.
</event>
<event>
 6   3  0.2312675E+03  0.9118800E+02  0.7818608E-02  0.1180000E+00
       11   -1    0    0    0    0  0.00000000000E+00  0.00000000000E+00  0.54999999763E+01  0.55000000000E+01  0.51109989000E-03 0. -1.
     -623   -1    0    0    0    0  0.00000000000E+00  0.00000000000E+00  0.93234578044E-11  0.17124000000E+03  0.17124000000E+03 0. -1.
       11    1    1    2    0    0 -0.62986447294E-01  0.12917105068E-01  0.10272622938E+01  0.10292726683E+01  0.51109989000E-03 0. -1.
     -623    1    1    2    0    0 -0.48523733612E-01  0.18896179172E-01  0.35227226829E-02  0.17124000795E+03  0.17124000000E+03 0. -1.
     -611    1    1    2    0    0  0.76188181291E-01 -0.22301086661E-01  0.30676942474E+01  0.30687212702E+01  0.51109989000E-03 0. -1.
      611    1    1    2    0    0  0.35321999732E-01 -0.95121976123E-02  0.14015207171E+01  0.14019981124E+01  0.51109989000E-03 0. -1.
</event>
<event>
 6   3  0.2312675E+03  0.9118800E+02  0.7818608E-02  0.1180000E+00
       11   -1    0    0    0    0  0.00000000000E+00  0.00000000000E+00  0.54999999763E+01  0.55000000000E+01  0.51109989000E-03 0. -1.
     -623   -1    0    0    0    0  0.00000000000E+00  0.00000000000E+00  0.93234578044E-11  0.17124000000E+03  0.17124000000E+03 0. -1.
       11    1    1    2    0    0 -0.60290949718E-01 -0.16364560514E-01  0.71070062529E+00  0.71344126421E+00  0.51109989000E-03 0. -1.
     -623    1    1    2    0    0  0.19093946984E-02  0.73575058094E-03  0.31370016328E-02  0.17124000004E+03  0.17124000000E+03 0. -1.
     -611    1    1    2    0    0  0.27258745135E-01  0.75246592125E-02  0.17859435356E+01  0.17861674707E+01  0.51109989000E-03 0.  1.
      611    1    1    2    0    0  0.31122809885E-01  0.81041507209E-02  0.30002188138E+01  0.30003912242E+01  0.51109989000E-03 0. -1.
</event>
<event>
 6   3  0.2312675E+03  0.9118800E+02  0.7818608E-02  0.1180000E+00
       11   -1    0    0    0    0  0.00000000000E+00  0.00000000000E+00  0.54999999763E+01  0.55000000000E+01  0.51109989000E-03 0.  1.
     -623   -1    0    0    0    0  0.00000000000E+00  0.00000000000E+00  0.93234578044E-11  0.17124000000E+03  0.17124000000E+03 0. -1.
       11    1    1    2    0    0 -0.24780909528E-03  0.29806200339E-02  0.95271557205E-05  0.30342740481E-02  0.51109989000E-03 0.  1.
     -623    1    1    2    0    0 -0.45868275149E-02 -0.34403157674E-02  0.39899893745E-02  0.17124000014E+03  0.17124000000E+03 0. -1.
     -611    1    1    2    0    0 -0.36747954689E-01 -0.31071807338E-01  0.32658179784E+01  0.32661725611E+01  0.51109989000E-03 0. -1.
      611    1    1    2    0    0  0.41582591299E-01  0.31531503071E-01  0.22301824813E+01  0.22307930224E+01  0.51109989000E-03 0.  1.
</event>
<event>
 6   3  0.2312675E+03  0.9118800E+02  0.7818608E-02  0.1180000E+00
       11   -1    0    0    0    0  0.00000000000E+00  0.00000000000E+00  0.54999999763E+01  0.55000000000E+01  0.51109989000E-03 0. -1.
     -623   -1    0    0    0    0  0.00000000000E+00  0.00000000000E+00  0.93234578044E-11  0.17124000000E+03  0.17124000000E+03 0. -1.
       11    1    1    2    0    0 -0.14234928072E-02 -0.42196027591E-03  0.11435736773E-01  0.11543036034E-01  0.51109989000E-03 0. -1.
     -623    1    1    2    0    0  0.42729490704E-03 -0.46527628411E-03  0.78174004098E-03  0.17124000000E+03  0.17124000000E+03 0. -1.
     -611    1    1    2    0    0 -0.36514222971E-01 -0.18292598367E-01  0.34301005879E+01  0.34303437454E+01  0.51109989000E-03 0. -1.
      611    1    1    2    0    0  0.37510420871E-01  0.19179834927E-01  0.20576819114E+01  0.20581132154E+01  0.51109989000E-03 0.  1.
</event>
<event>
 6   3  0.2312675E+03  0.9118800E+02  0.7818608E-02  0.1180000E+00
       11   -1    0    0    0    0  0.00000000000E+00  0.00000000000E+00  0.54999999763E+01  0.55000000000E+01  0.51109989000E-03 0.  1.
     -623   -1    0    0    0    0  0.00000000000E+00  0.00000000000E+00  0.93234578044E-11  0.17124000000E+03  0.17124000000E+03 0. -1.
       11    1    1    2    0    0  0.15057684069E-02 -0.34096825045E-04  0.26693644864E+00  0.26694118704E+00  0.51109989000E-03 0.  1.
     -623    1    1    2    0    0  0.60628448581E-01 -0.36828814938E-01  0.51854295253E-03  0.17124001469E+03  0.17124000000E+03 0. -1.
     -611    1    1    2    0    0 -0.38535735004E-01  0.21920067220E-01  0.32300683761E+01  0.32303726515E+01  0.51109989000E-03 0.  1.
      611    1    1    2    0    0 -0.23598481979E-01  0.14942844541E-01  0.20024766082E+01  0.20026714669E+01  0.51109989000E-03 0.  1.
</event>
<event>
 6   3  0.2312675E+03  0.9118800E+02  0.7818608E-02  0.1180000E+00
       11   -1    0    0    0    0  0.00000000000E+00  0.00000000000E+00  0.54999999763E+01  0.55000000000E+01  0.51109989000E-03 0. -1.
     -623   -1    0    0    0    0  0.00000000000E+00  0.00000000000E+00  0.93234578044E-11  0.17124000000E+03  0.17124000000E+03 0.  1.
       11    1    1    2    0    0  0.21165369998E-02 -0.22861783875E-02  0.17930829736E-01  0.18206653141E-01  0.51109989000E-03 0. -1.
     -623    1    1    2    0    0 -0.16222223318E-02  0.10522608984E-02  0.13702868584E-02  0.17124000002E+03  0.17124000000E+03 0.  1.
     -611    1    1    2    0    0  0.46400316973E-01  0.17457696713E-01  0.39014361178E+01  0.39017511201E+01  0.51109989000E-03 0. -1.
      611    1    1    2    0    0 -0.46894631641E-01 -0.16223779224E-01  0.15792627418E+01  0.15800422103E+01  0.51109989000E-03 0.  1.
</event>
<event>
 6   3  0.2312675E+03  0.9118800E+02  0.7818608E-02  0.1180000E+00
       11   -1    0    0    0    0  0.00000000000E+00  0.00000000000E+00  0.54999999763E+01  0.55000000000E+01  0.51109989000E-03 0.  1.
     -623   -1    0    0    0    0  0.00000000000E+00  0.00000000000E+00  0.93234578044E-11  0.17124000000E+03  0.17124000000E+03 0.  1.
       11    1    1    2    0    0  0.37510278079E-01  0.23835331729E-01  0.48007038850E+00  0.48212341069E+00  0.51109989000E-03 0.  1.
     -623    1    1    2    0    0 -0.69132546275E-03 -0.44123540470E-02  0.42703282983E-02  0.17124000011E+03  0.17124000000E+03 0.  1.
     -611    1    1    2    0    0  0.46439258314E-01  0.27092883625E-01  0.17762580763E+01  0.17770716485E+01  0.51109989000E-03 0.  1.
      611    1    1    2    0    0 -0.83258210929E-01 -0.46515861307E-01  0.32394011832E+01  0.32408048293E+01  0.51109989000E-03 0. -1.
</event>
<event>
 6   3  0.2312675E+03  0.9118800E+02  0.7818608E-02  0.1180000E+00
       11   -1    0    0    0    0  0.00000000000E+00  0.00000000000E+00  0.54999999763E+01  0.55000000000E+01  0.51109989000E-03 0.  1.
     -623   -1    0    0    0    0  0.00000000000E+00  0.00000000000E+00  0.93234578044E-11  0.17124000000E+03  0.17124000000E+03 0. -1.
       11    1    1    2    0    0  0.77945726128E-02  0.39022318856E-03  0.20766252743E-01  0.22190225606E-01  0.51109989000E-03 0.  1.
     -623    1    1    2    0    0  0.12175290228E-02 -0.33490783445E-02  0.39467073142E-02  0.17124000008E+03  0.17124000000E+03 0. -1.
     -611    1    1    2    0    0 -0.87342166562E-01  0.43298533891E-02  0.30841529472E+01  0.30853925301E+01  0.51109989000E-03 0. -1.
      611    1    1    2    0    0  0.78330064926E-01 -0.13709982331E-02  0.23911340689E+01  0.23924171617E+01  0.51109989000E-03 0.  1.
</event>
<event>
 6   3  0.2312675E+03  0.9118800E+02  0.7818608E-02  0.1180000E+00
       11   -1    0    0    0    0  0.00000000000E+00  0.00000000000E+00  0.54999999763E+01  0.55000000000E+01  0.51109989000E-03 0. -1.
     -623   -1    0    0    0    0  0.00000000000E+00  0.00000000000E+00  0.93234578044E-11  0.17124000000E+03  0.17124000000E+03 0.  1.
       11    1    1    2    0    0  0.82876260004E-01  0.24778568129E-01  0.94234166023E+00  0.94630360759E+00  0.51109989000E-03 0. -1.
     -623    1    1    2    0    0  0.23634626635E-01 -0.95104994461E-03  0.52719716285E-02  0.17124000171E+03  0.17124000000E+03 0.  1.
     -611    1    1    2    0    0 -0.47033746305E-01 -0.10837735957E-01  0.20164021191E+01  0.20169797711E+01  0.51109989000E-03 0. -1.
      611    1    1    2    0    0 -0.59477140228E-01 -0.12989782203E-01  0.25359842208E+01  0.25367149020E+01  0.51109989000E-03 0. -1.
</event>
<event>
 6   3  0.2312675E+03  0.9118800E+02  0.7818608E-02  0.1180000E+00
       11   -1    0    0    0    0  0.00000000000E+00  0.00000000000E+00  0.54999999763E+01  0.55000000000E+01  0.51109989000E-03 0. -1.
     -623   -1    0    0    0    0  0.00000000000E+00  0.00000000000E+00  0.93234578044E-11  0.17124000000E+03  0.17124000000E+03 0. -1.
       11    1    1    2    0    0  0.36411796988E-01 -0.20055442267E-01  0.28252564181E+00  0.28556792402E+00  0.51109989000E-03 0. -1.
     -623    1    1    2    0    0  0.41119777850E-01 -0.45469169218E-01  0.40418202894E-02  0.17124001102E+03  0.17124000000E+03 0. -1.
     -611    1    1    2    0    0 -0.47413931620E-01  0.40991707936E-01  0.32368140463E+01  0.32374208612E+01  0.51109989000E-03 0. -1.
      611    1    1    2    0    0 -0.30117643188E-01  0.24532903524E-01  0.19766184659E+01  0.19770001914E+01  0.51109989000E-03 0.  1.
</event>
<event>
 6   3  0.2312675E+03  0.9118800E+02  0.7818608E-02  0.1180000E+00
       11   -1    0    0    0    0  0.00000000000E+00  0.00000000000E+00  0.54999999763E+01  0.55000000000E+01  0.51109989000E-03 0.  1.
     -623   -1    0    0    0    0  0.00000000000E+00  0.00000000000E+00  0.93234578044E-11  0.17124000000E+03  0.17124000000E+03 0.  1.
       11    1    1    2    0    0  0.11011660398E+00 -0.14394732772E+00  0.45148234664E+00  0.48650084294E+00  0.51109989000E-03 0.  1.
     -623    1    1    2    0    0 -0.46928338173E-01  0.28610960160E-02  0.37461321735E-01  0.17124001055E+03  0.17124000000E+03 0.  1.
     -611    1    1    2    0    0 -0.14443536771E-01  0.38903682426E-01  0.10643909558E+01  0.10651997373E+01  0.51109989000E-03 0. -1.
      611    1    1    2    0    0 -0.48744729035E-01  0.10218254927E+00  0.39466653521E+01  0.39482888679E+01  0.51109989000E-03 0.  1.
</event>
<event>
 6   3  0.2312675E+03  0.9118800E+02  0.7818608E-02  0.1180000E+00
       11   -1    0    0    0    0  0.00000000000E+00  0.00000000000E+00  0.54999999763E+01  0.55000000000E+01  0.51109989000E-03 0.  1.
     -623   -1    0    0    0    0  0.00000000000E+00  0.00000000000E+00  0.93234578044E-11  0.17124000000E+03  0.17124000000E+03 0.  1.
       11    1    1    2    0    0  0.72420684997E-03  0.15279346992E-02  0.23803598363E-03  0.17823984498E-02  0.51109989000E-03 0.  1.
     -623    1    1    2    0    0 -0.50310065016E-02  0.21678509214E-03  0.23223123287E-02  0.17124000009E+03  0.17124000000E+03 0.  1.
     -611    1    1    2    0    0 -0.43404378987E-01 -0.10945619355E-02  0.21562651293E+01  0.21567022760E+01  0.51109989000E-03 0. -1.
      611    1    1    2    0    0  0.47711178639E-01 -0.65015785589E-03  0.33411744987E+01  0.33415152358E+01  0.51109989000E-03 0.  1.
</event>
<event>
 6   3  0.2312675E+03  0.9118800E+02  0.7818608E-02  0.1180000E+00
       11   -1    0    0    0    0  0.00000000000E+00  0.00000000000E+00  0.54999999763E+01  0.55000000000E+01  0.51109989000E-03 0. -1.
     -623   -1    0    0    0    0  0.00000000000E+00  0.00000000000E+00  0.93234578044E-11  0.17124000000E+03  0.17124000000E+03 0.  1.
       11    1    1    2    0    0  0.44583458782E-01 -0.19057630502E-02  0.13238309880E+00  0.13970276590E+00  0.51109989000E-03 0. -1.
     -623    1    1    2    0    0  0.26689271500E-01  0.57327349422E-01  0.80926778440E-02  0.17124001187E+03  0.17124000000E+03 0.  1.
     -611    1    1    2    0    0 -0.60079178624E-01 -0.47545670668E-01  0.45820924729E+01  0.45827330044E+01  0.51109989000E-03 0. -1.
      611    1    1    2    0    0 -0.11193551637E-01 -0.78759156878E-02  0.77743172521E+00  0.77755236109E+00  0.51109989000E-03 0. -1.
</event>
<event>
 6   3  0.2312675E+03  0.9118800E+02  0.7818608E-02  0.1180000E+00
       11   -1    0    0    0    0  0.00000000000E+00  0.00000000000E+00  0.54999999763E+01  0.55000000000E+01  0.51109989000E-03 0. -1.
     -623   -1    0    0    0    0  0.00000000000E+00  0.00000000000E+00  0.93234578044E-11  0.17124000000E+03  0.17124000000E+03 0.  1.
       11    1    1    2    0    0 -0.63423534427E-01  0.12942753325E-01  0.37813935582E+00  0.38364005685E+00  0.51109989000E-03 0. -1.
     -623    1    1    2    0    0 -0.30874723346E-02 -0.79526658307E-02  0.59360968768E-02  0.17124000032E+03  0.17124000000E+03 0.  1.
     -611    1    1    2    0    0  0.56259748099E-01 -0.46620992830E-02  0.43282307859E+01  0.43285989525E+01  0.51109989000E-03 0. -1.
      611    1    1    2    0    0  0.10251258680E-01 -0.32798821304E-03  0.78769373904E+00  0.78776067662E+00  0.51109989000E-03 0.  1.
</event>
<event>
 6   3  0.2312675E+03  0.9118800E+02  0.7818608E-02  0.1180000E+00
       11   -1    0    0    0    0  0.00000000000E+00  0.00000000000E+00  0.54999999763E+01  0.55000000000E+01  0.51109989000E-03 0.  1.
     -623   -1    0    0    0    0  0.00000000000E+00  0.00000000000E+00  0.93234578044E-11  0.17124000000E+03  0.17124000000E+03 0. -1.
       11    1    1    2    0    0 -0.19192257758E-01  0.33319038451E-01  0.50844114624E+00  0.50989328441E+00  0.51109989000E-03 0.  1.
     -623    1    1    2    0    0  0.32278547222E-01  0.94800019371E-02  0.19211657888E-02  0.17124000332E+03  0.17124000000E+03 0. -1.
     -611    1    1    2    0    0 -0.32219094363E-01 -0.33659140594E-01  0.31782588359E+01  0.31786003991E+01  0.51109989000E-03 0. -1.
      611    1    1    2    0    0  0.19132804899E-01 -0.91398997939E-02  0.18113788283E+01  0.18115030011E+01  0.51109989000E-03 0.  1.
</event>
<event>
 6   3  0.2312675E+03  0.9118800E+02  0.7818608E-02  0.1180000E+00
       11   -1    0    0    0    0  0.00000000000E+00  0.00000000000E+00  0.54999999763E+01  0.55000000000E+01  0.51109989000E-03 0. -1.
     -623   -1    0    0    0    0  0.00000000000E+00  0.00000000000E+00  0.93234578044E-11  0.17124000000E+03  0.17124000000E+03 0. -1.
       11    1    1    2    0    0 -0.89004000504E-01  0.41276641203E-01  0.23042443388E+00  0.25044191775E+00  0.51109989000E-03 0. -1.
     -623    1    1    2    0    0 -0.20510214814E-01  0.34900609956E-01  0.21719116040E-01  0.17124000616E+03  0.17124000000E+03 0. -1.
     -611    1    1    2    0    0  0.74031731252E-01 -0.51931336311E-01  0.35648417348E+01  0.35659885608E+01  0.51109989000E-03 0. -1.
      611    1    1    2    0    0  0.35482483937E-01 -0.24245914759E-01  0.16830146854E+01  0.16835633530E+01  0.51109989000E-03 0. -1.
</event>
<event>
 6   3  0.2312675E+03  0.9118800E+02  0.7818608E-02  0.1180000E+00
       11   -1    0    0    0    0  0.00000000000E+00  0.00000000000E+00  0.54999999763E+01  0.55000000000E+01  0.51109989000E-03 0. -1.
     -623   -1    0    0    0    0  0.00000000000E+00  0.00000000000E+00  0.93234578044E-11  0.17124000000E+03  0.17124000000E+03 0.  1.
       11    1    1    2    0    0 -0.59103590835E-02  0.13892971469E-01  0.63140281361E-01  0.64922287038E-01  0.51109989000E-03 0. -1.
     -623    1    1    2    0    0 -0.85642757045E-02 -0.52718027770E-02  0.42054707091E-02  0.17124000035E+03  0.17124000000E+03 0.  1.
     -611    1    1    2    0    0 -0.30648864842E-01  0.61980832510E-01  0.15803766248E+01  0.15818885909E+01  0.51109989000E-03 0.  1.
      611    1    1    2    0    0  0.45123499629E-01 -0.70602001202E-01  0.38522775994E+01  0.38531887752E+01  0.51109989000E-03 0. -1.
</event>
<event>
 6   3  0.2312675E+03  0.9118800E+02  0.7818608E-02  0.1180000E+00
       11   -1    0    0    0    0  0.00000000000E+00  0.00000000000E+00  0.54999999763E+01  0.55000000000E+01  0.51109989000E-03 0.  1.
     -623   -1    0    0    0    0  0.00000000000E+00  0.00000000000E+00  0.93234578044E-11  0.17124000000E+03  0.17124000000E+03 0. -1.
       11    1    1    2    0    0 -0.28241106921E-03 -0.25391241547E-03  0.15880433067E-02  0.17109448175E-02  0.51109989000E-03 0.  1.
     -623    1    1    2    0    0  0.34986138639E-02  0.45988516667E-02  0.64873595175E-03  0.17124000010E+03  0.17124000000E+03 0. -1.
     -611    1    1    2    0    0 -0.38498969731E-01  0.52416863259E-02  0.24832294517E+01  0.24835334539E+01  0.51109989000E-03 0.  1.
      611    1    1    2    0    0  0.35282766936E-01 -0.95866255774E-02  0.30145337456E+01  0.30147555028E+01  0.51109989000E-03 0. -1.
</event>
<event>
 6   3  0.2312675E+03  0.9118800E+02  0.7818608E-02  0.1180000E+00
       11   -1    0    0    0    0  0.00000000000E+00  0.00000000000E+00  0.54999999763E+01  0.55000000000E+01  0.51109989000E-03 0. -1.
     -623   -1    0    0    0    0  0.00000000000E+00  0.00000000000E+00  0.93234578044E-11  0.17124000000E+03  0.17124000000E+03 0. -1.
       11    1    1    2    0    0 -0.10455538865E-02  0.21645134665E-01 -0.97433978058E-03  0.21698285616E-01  0.51109989000E-03 0. -1.
     -623    1    1    2    0    0 -0.40618085719E-01 -0.67064924694E-02  0.23859984556E-01  0.17124000661E+03  0.17124000000E+03 0. -1.
     -611    1    1    2    0    0  0.70791008095E-01  0.14420416861E-01  0.36072115982E+01  0.36079350175E+01  0.51109989000E-03 0. -1.
      611    1    1    2    0    0 -0.29127368489E-01 -0.29359059056E-01  0.18699027333E+01  0.18703600860E+01  0.51109989000E-03 0.  1.
</event>
<event>
 6   3  0.2312675E+03  0.9118800E+02  0.7818608E-02  0.1180000E+00
       11   -1    0    0    0    0  0.00000000000E+00  0.00000000000E+00  0.54999999763E+01  0.55000000000E+01  0.51109989000E-03 0. -1.
     -623   -1    0    0    0    0  0.00000000000E+00  0.00000000000E+00  0.93234578044E-11  0.17124000000E+03  0.17124000000E+03 0.  1.
       11    1    1    2    0    0 -0.67491431030E-02 -0.22208994576E-02  0.37684810241E+00  0.37691542399E+00  0.51109989000E-03 0. -1.
     -623    1    1    2    0    0  0.61981031835E-01  0.68935710104E-01  0.82476879471E-03  0.17124002509E+03  0.17124000000E+03 0.  1.
     -611    1    1    2    0    0 -0.10841983842E-01 -0.12967696584E-01  0.10138377112E+01  0.10139787353E+01  0.51109989000E-03 0. -1.
      611    1    1    2    0    0 -0.44389904852E-01 -0.53747114018E-01  0.41084893904E+01  0.41090807425E+01  0.51109989000E-03 0. -1.
</event>
<event>
 6   3  0.2312675E+03  0.9118800E+02  0.7818608E-02  0.1180000E+00
       11   -1    0    0    0    0  0.00000000000E+00  0.00000000000E+00  0.54999999763E+01  0.55000000000E+01  0.51109989000E-03 0. -1.
     -623   -1    0    0    0    0  0.00000000000E+00  0.00000000000E+00  0.93234578044E-11  0.17124000000E+03  0.17124000000E+03 0.  1.
       11    1    1    2    0    0 -0.54873646118E-01  0.31175817277E-02  0.20047666922E+00  0.20787494433E+00  0.51109989000E-03 0. -1.
     -623    1    1    2    0    0 -0.15382522517E-01 -0.27086438870E-01  0.79237111506E-02  0.17124000302E+03  0.17124000000E+03 0.  1.
     -611    1    1    2    0    0  0.70094715061E-02  0.17502675527E-02  0.59313192101E+00  0.59317614001E+00  0.51109989000E-03 0. -1.
      611    1    1    2    0    0  0.63246697122E-01  0.22218589587E-01  0.46984676744E+01  0.46989458987E+01  0.51109989000E-03 0. -1.
</event>
<event>
 6   3  0.2312675E+03  0.9118800E+02  0.7818608E-02  0.1180000E+00
       11   -1    0    0    0    0  0.00000000000E+00  0.00000000000E+00  0.54999999763E+01  0.55000000000E+01  0.51109989000E-03 0.  1.
     -623   -1    0    0    0    0  0.00000000000E+00  0.00000000000E+00  0.93234578044E-11  0.17124000000E+03  0.17124000000E+03 0. -1.
       11    1    1    2    0    0 -0.32969265179E-02 -0.44067400722E-02  0.10390427981E+01  0.10390574992E+01  0.51109989000E-03 0.  1.
     -623    1    1    2    0    0  0.51073979760E-01  0.89397403181E-02  0.28120678213E-03  0.17124000785E+03  0.17124000000E+03 0. -1.
     -611    1    1    2    0    0 -0.15247646112E-01 -0.22728169436E-02  0.14576480209E+01  0.14577296287E+01  0.51109989000E-03 0.  1.
      611    1    1    2    0    0 -0.32529407134E-01 -0.22601833044E-02  0.30030279511E+01  0.30032050225E+01  0.51109989000E-03 0.  1.
</event>
<event>
 6   3  0.2312675E+03  0.9118800E+02  0.7818608E-02  0.1180000E+00
       11   -1    0    0    0    0  0.00000000000E+00  0.00000000000E+00  0.54999999763E+01  0.55000000000E+01  0.51109989000E-03 0.  1.
     -623   -1    0    0    0    0  0.00000000000E+00  0.00000000000E+00  0.93234578044E-11  0.17124000000E+03  0.17124000000E+03 0. -1.
       11    1    1    2    0    0  0.37771494572E-01 -0.74797056895E-01  0.55104506279E+00  0.55737976997E+00  0.51109989000E-03 0.  1.
     -623    1    1    2    0    0  0.15399048080E-01  0.70141296176E-01  0.66381911990E-02  0.17124001519E+03  0.17124000000E+03 0. -1.
     -611    1    1    2    0    0 -0.32755714562E-01  0.30540174432E-02  0.30435329325E+01  0.30437107675E+01  0.51109989000E-03 0.  1.
      611    1    1    2    0    0 -0.20414828132E-01  0.16017432802E-02  0.18987837936E+01  0.18988942801E+01  0.51109989000E-03 0.  1.
</event>
<event>
 6   3  0.2312675E+03  0.9118800E+02  0.7818608E-02  0.1180000E+00
       11   -1    0    0    0    0  0.00000000000E+00  0.00000000000E+00  0.54999999763E+01  0.55000000000E+01  0.51109989000E-03 0. -1.
     -623   -1    0    0    0    0  0.00000000000E+00  0.00000000000E+00  0.93234578044E-11  0.17124000000E+03  0.17124000000E+03 0.  1.
       11    1    1    2    0    0 -0.11792712048E-01  0.10574912363E-01  0.10504282085E+00  0.10623159730E+00  0.51109989000E-03 0. -1.
     -623    1    1    2    0    0  0.69555179852E-02 -0.15027018509E-01  0.35782111848E-02  0.17124000084E+03  0.17124000000E+03 0.  1.
     -611    1    1    2    0    0  0.53637709473E-01  0.38604925616E-01  0.11048672481E+01  0.11068420128E+01  0.51109989000E-03 0.  1.
      611    1    1    2    0    0 -0.48800515410E-01 -0.34152819471E-01  0.42865116962E+01  0.42869255520E+01  0.51109989000E-03 0. -1.
</event>
<event>
 6   3  0.2312675E+03  0.9118800E+02  0.7818608E-02  0.1180000E+00
       11   -1    0    0    0    0  0.00000000000E+00  0.00000000000E+00  0.54999999763E+01  0.55000000000E+01  0.51109989000E-03 0.  1.
     -623   -1    0    0    0    0  0.00000000000E+00  0.00000000000E+00  0.93234578044E-11  0.17124000000E+03  0.17124000000E+03 0.  1.
       11    1    1    2    0    0  0.67516050646E-01  0.26601828959E-01  0.75836137170E+00  0.76182563997E+00  0.51109989000E-03 0.  1.
     -623    1    1    2    0    0 -0.14895602527E-01  0.17681115615E-01  0.39655063411E-02  0.17124000161E+03  0.17124000000E+03 0.  1.
     -611    1    1    2    0    0 -0.12603331841E-01 -0.10139609969E-01  0.11624341118E+01  0.11625467651E+01  0.51109989000E-03 0.  1.
      611    1    1    2    0    0 -0.40017116289E-01 -0.34143334614E-01  0.35752389875E+01  0.35756259894E+01  0.51109989000E-03 0.  1.
</event>
<event>
 6   3  0.2312675E+03  0.9118800E+02  0.7818608E-02  0.1180000E+00
       11   -1    0    0    0    0  0.00000000000E+00  0.00000000000E+00  0.54999999763E+01  0.55000000000E+01  0.51109989000E-03 0. -1.
     -623   -1    0    0    0    0  0.00000000000E+00  0.00000000000E+00  0.93234578044E-11  0.17124000000E+03  0.17124000000E+03 0.  1.
       11    1    1    2    0    0  0.84869831741E-02 -0.13431156869E-01  0.42454031209E-01  0.45332448061E-01  0.51109989000E-03 0. -1.
     -623    1    1    2    0    0 -0.14131880182E-01  0.38740557731E-02  0.70628361612E-02  0.17124000077E+03  0.17124000000E+03 0.  1.
     -611    1    1    2    0    0  0.58444676748E-01 -0.76740140043E-01  0.16353606712E+01  0.16382031668E+01  0.51109989000E-03 0.  1.
      611    1    1    2    0    0 -0.52799779741E-01  0.86297241139E-01  0.38151224376E+01  0.38164636126E+01  0.51109989000E-03 0. -1.
</event>
<event>
 6   3  0.2312675E+03  0.9118800E+02  0.7818608E-02  0.1180000E+00
       11   -1    0    0    0    0  0.00000000000E+00  0.00000000000E+00  0.54999999763E+01  0.55000000000E+01  0.51109989000E-03 0.  1.
     -623   -1    0    0    0    0  0.00000000000E+00  0.00000000000E+00  0.93234578044E-11  0.17124000000E+03  0.17124000000E+03 0. -1.
       11    1    1    2    0    0 -0.18328162610E-02  0.14018074259E-02  0.43225804385E+00  0.43226450465E+00  0.51109989000E-03 0.  1.
     -623    1    1    2    0    0  0.64343612767E-01  0.27195913593E-01  0.48708066397E-03  0.17124001425E+03  0.17124000000E+03 0. -1.
     -611    1    1    2    0    0 -0.41187105101E-01 -0.18939891776E-01  0.33232311963E+01  0.33235404228E+01  0.51109989000E-03 0.  1.
      611    1    1    2    0    0 -0.21323691335E-01 -0.96578292118E-02  0.17440236497E+01  0.17441808179E+01  0.51109989000E-03 0.  1.
</event>
<event>
 6   3  0.2312675E+03  0.9118800E+02  0.7818608E-02  0.1180000E+00
       11   -1    0    0    0    0  0.00000000000E+00  0.00000000000E+00  0.54999999763E+01  0.55000000000E+01  0.51109989000E-03 0. -1.
     -623   -1    0    0    0    0  0.00000000000E+00  0.00000000000E+00  0.93234578044E-11  0.17124000000E+03  0.17124000000E+03 0. -1.
       11    1    1    2    0    0  0.18329325059E-01  0.28086762939E-02  0.35034561108E-01  0.39642584613E-01  0.51109989000E-03 0. -1.
     -623    1    1    2    0    0 -0.80152104140E-02  0.61944752200E-02  0.51030881885E-02  0.17124000038E+03  0.17124000000E+03 0. -1.
     -611    1    1    2    0    0 -0.39286215222E-01  0.68731297268E-02  0.33211782436E+01  0.33214177445E+01  0.51109989000E-03 0. -1.
      611    1    1    2    0    0  0.28972100577E-01 -0.15876281241E-01  0.21386840834E+01  0.21389392953E+01  0.51109989000E-03 0.  1.
</event>
<event>
 6   3  0.2312675E+03  0.9118800E+02  0.7818608E-02  0.1180000E+00
       11   -1    0    0    0    0  0.00000000000E+00  0.00000000000E+00  0.54999999763E+01  0.55000000000E+01  0.51109989000E-03 0. -1.
     -623   -1    0    0    0    0  0.00000000000E+00  0.00000000000E+00  0.93234578044E-11  0.17124000000E+03  0.17124000000E+03 0. -1.
       11    1    1    2    0    0  0.53404126802E-01 -0.21695784559E-01  0.36837474235E+00  0.37285777430E+00  0.51109989000E-03 0. -1.
     -623    1    1    2    0    0  0.42595045300E-01  0.18313454701E-01  0.54199739127E-02  0.17124000636E+03  0.17124000000E+03 0. -1.
     -611    1    1    2    0    0 -0.22806680507E-01  0.57824701981E-02  0.96993081995E+00  0.97021628431E+00  0.51109989000E-03 0.  1.
      611    1    1    2    0    0 -0.73192491595E-01 -0.24001403404E-02  0.41562744400E+01  0.41569195787E+01  0.51109989000E-03 0. -1.
</event>
<event>
 6   3  0.2312675E+03  0.9118800E+02  0.7818608E-02  0.1180000E+00
       11   -1    0    0    0    0  0.00000000000E+00  0.00000000000E+00  0.54999999763E+01  0.55000000000E+01  0.51109989000E-03 0.  1.
     -623   -1    0    0    0    0  0.00000000000E+00  0.00000000000E+00  0.93234578044E-11  0.17124000000E+03  0.17124000000E+03 0.  1.
       11    1    1    2    0    0 -0.45404705032E-02 -0.64114936232E-02  0.55791654643E-01  0.56344414752E-01  0.51109989000E-03 0.  1.
     -623    1    1    2    0    0  0.72651852593E-02  0.11950484678E-01  0.15881615010E-02  0.17124000058E+03  0.17124000000E+03 0.  1.
     -611    1    1    2    0    0  0.43753834227E-01  0.52501372035E-02  0.12745133346E+01  0.12752750540E+01  0.51109989000E-03 0. -1.
      611    1    1    2    0    0 -0.46478548984E-01 -0.10789128259E-01  0.41681068255E+01  0.41683799528E+01  0.51109989000E-03 0.  1.
</event>
<event>
 6   3  0.2312675E+03  0.9118800E+02  0.7818608E-02  0.1180000E+00
       11   -1    0    0    0    0  0.00000000000E+00  0.00000000000E+00  0.54999999763E+01  0.55000000000E+01  0.51109989000E-03 0. -1.
     -623   -1    0    0    0    0  0.00000000000E+00  0.00000000000E+00  0.93234578044E-11  0.17124000000E+03  0.17124000000E+03 0. -1.
       11    1    1    2    0    0 -0.56812173488E-01 -0.42559771804E-02  0.94814290161E+00  0.94985312522E+00  0.51109989000E-03 0. -1.
     -623    1    1    2    0    0 -0.16660793781E-01  0.43251062278E-02  0.23050119065E-02  0.17124000088E+03  0.17124000000E+03 0. -1.
     -611    1    1    2    0    0  0.42697125783E-01  0.53448428373E-03  0.25832134098E+01  0.25835663553E+01  0.51109989000E-03 0. -1.
      611    1    1    2    0    0  0.30775841518E-01 -0.60361333110E-03  0.19663386548E+01  0.19665796408E+01  0.51109989000E-03 0.  1.
</event>
<event>
 6   3  0.2312675E+03  0.9118800E+02  0.7818608E-02  0.1180000E+00
       11   -1    0    0    0    0  0.00000000000E+00  0.00000000000E+00  0.54999999763E+01  0.55000000000E+01  0.51109989000E-03 0. -1.
     -623   -1    0    0    0    0  0.00000000000E+00  0.00000000000E+00  0.93234578044E-11  0.17124000000E+03  0.17124000000E+03 0.  1.
       11    1    1    2    0    0 -0.80750367723E-02 -0.68255524376E-02  0.90499468712E-01  0.91116460890E-01  0.51109989000E-03 0. -1.
     -623    1    1    2    0    0 -0.79415589624E-01 -0.69763910263E-02  0.13614491573E-02  0.17124001856E+03  0.17124000000E+03 0.  1.
     -611    1    1    2    0    0  0.60418484353E-01  0.10172788815E-01  0.37965715803E+01  0.37970659600E+01  0.51109989000E-03 0. -1.
      611    1    1    2    0    0  0.27072142032E-01  0.36291546471E-02  0.16115674774E+01  0.16117990157E+01  0.51109989000E-03 0.  1.
</event>
<event>
 6   3  0.2312675E+03  0.9118800E+02  0.7818608E-02  0.1180000E+00
       11   -1    0    0    0    0  0.00000000000E+00  0.00000000000E+00  0.54999999763E+01  0.55000000000E+01  0.51109989000E-03 0. -1.
     -623   -1    0    0    0    0  0.00000000000E+00  0.00000000000E+00  0.93234578044E-11  0.17124000000E+03  0.17124000000E+03 0.  1.
       11    1    1    2    0    0 -0.58839116287E-01  0.28697571073E-01  0.43435467860E+00  0.43926056075E+00  0.51109989000E-03 0. -1.
     -623    1    1    2    0    0 -0.18912018667E-01 -0.13803618469E-02  0.55862864683E-02  0.17124000114E+03  0.17124000000E+03 0.  1.
     -611    1    1    2    0    0  0.34494527524E-01 -0.76617730919E-02  0.22545061296E+01  0.22547830771E+01  0.51109989000E-03 0.  1.
      611    1    1    2    0    0  0.43256607428E-01 -0.19655436134E-01  0.28055528815E+01  0.28059552210E+01  0.51109989000E-03 0. -1.
</event>
<event>
 6   3  0.2312675E+03  0.9118800E+02  0.7818608E-02  0.1180000E+00
       11   -1    0    0    0    0  0.00000000000E+00  0.00000000000E+00  0.54999999763E+01  0.55000000000E+01  0.51109989000E-03 0.  1.
     -623   -1    0    0    0    0  0.00000000000E+00  0.00000000000E+00  0.93234578044E-11  0.17124000000E+03  0.17124000000E+03 0.  1.
       11    1    1    2    0    0  0.79394766554E-01  0.13941403706E-01  0.95963085234E+00  0.96301065709E+00  0.51109989000E-03 0.  1.
     -623    1    1    2    0    0  0.67432871895E-02  0.12463831396E-01  0.43043888011E-02  0.17124000064E+03  0.17124000000E+03 0.  1.
     -611    1    1    2    0    0 -0.67863634521E-01 -0.14009496416E-01  0.33148755052E+01  0.33155997369E+01  0.51109989000E-03 0.  1.
      611    1    1    2    0    0 -0.18274419223E-01 -0.12395738686E-01  0.12211892299E+01  0.12213889656E+01  0.51109989000E-03 0. -1.
</event>
<event>
 6   3  0.2312675E+03  0.9118800E+02  0.7818608E-02  0.1180000E+00
       11   -1    0    0    0    0  0.00000000000E+00  0.00000000000E+00  0.54999999763E+01  0.55000000000E+01  0.51109989000E-03 0. -1.
     -623   -1    0    0    0    0  0.00000000000E+00  0.00000000000E+00  0.93234578044E-11  0.17124000000E+03  0.17124000000E+03 0.  1.
       11    1    1    2    0    0 -0.11540558441E+00  0.81723795569E-01  0.73322613914E+00  0.74673828081E+00  0.51109989000E-03 0. -1.
     -623    1    1    2    0    0  0.91643553269E-02 -0.48244507613E-02  0.16953301131E-01  0.17124000115E+03  0.17124000000E+03 0.  1.
     -611    1    1    2    0    0  0.76787950380E-01 -0.95382244356E-01  0.23500544069E+01  0.23532424734E+01  0.51109989000E-03 0. -1.
      611    1    1    2    0    0  0.29453278708E-01  0.18482899549E-01  0.23997661291E+01  0.24000180934E+01  0.51109989000E-03 0.  1.
</event>
<event>
 6   3  0.2312675E+03  0.9118800E+02  0.7818608E-02  0.1180000E+00
       11   -1    0    0    0    0  0.00000000000E+00  0.00000000000E+00  0.54999999763E+01  0.55000000000E+01  0.51109989000E-03 0. -1.
     -623   -1    0    0    0    0  0.00000000000E+00  0.00000000000E+00  0.93234578044E-11  0.17124000000E+03  0.17124000000E+03 0.  1.
       11    1    1    2    0    0  0.32998488858E-02  0.55898296678E-02  0.73685112068E-01  0.73972239130E-01  0.51109989000E-03 0. -1.
     -623    1    1    2    0    0  0.94427733162E-03 -0.44647569718E-02  0.11434469254E-02  0.17124000006E+03  0.17124000000E+03 0.  1.
     -611    1    1    2    0    0 -0.49404411042E-01 -0.54678553166E-02  0.23871573767E+01  0.23876748722E+01  0.51109989000E-03 0.  1.
      611    1    1    2    0    0  0.45160284824E-01  0.43427826206E-02  0.30380140406E+01  0.30383528240E+01  0.51109989000E-03 0. -1.
</event>
<event>
 6   3  0.2312675E+03  0.9118800E+02  0.7818608E-02  0.1180000E+00
       11   -1    0    0    0    0  0.00000000000E+00  0.00000000000E+00  0.54999999763E+01  0.55000000000E+01  0.51109989000E-03 0. -1.
     -623   -1    0    0    0    0  0.00000000000E+00  0.00000000000E+00  0.93234578044E-11  0.17124000000E+03  0.17124000000E+03 0. -1.
       11    1    1    2    0    0  0.91512006396E-02  0.22938686587E-02  0.43422910285E-02  0.10398222014E-01  0.51109989000E-03 0. -1.
     -623    1    1    2    0    0 -0.19090388053E-01 -0.11367984442E-01  0.74261936723E-02  0.17124000160E+03  0.17124000000E+03 0. -1.
     -611    1    1    2    0    0 -0.33092963109E-01 -0.40603896190E-01  0.17264319092E+01  0.17272264527E+01  0.51109989000E-03 0.  1.
      611    1    1    2    0    0  0.43032150523E-01  0.49678011973E-01  0.37617995824E+01  0.37623737228E+01  0.51109989000E-03 0. -1.
</event>
<event>
 6   3  0.2312675E+03  0.9118800E+02  0.7818608E-02  0.1180000E+00
       11   -1    0    0    0    0  0.00000000000E+00  0.00000000000E+00  0.54999999763E+01  0.55000000000E+01  0.51109989000E-03 0. -1.
     -623   -1    0    0    0    0  0.00000000000E+00  0.00000000000E+00  0.93234578044E-11  0.17124000000E+03  0.17124000000E+03 0. -1.
       11    1    1    2    0    0  0.11383954965E-01  0.13184493860E-02  0.18480649826E-01  0.21751514441E-01  0.51109989000E-03 0. -1.
     -623    1    1    2    0    0  0.12059807489E-01 -0.11881569617E-02  0.42873751253E-02  0.17124000048E+03  0.17124000000E+03 0. -1.
     -611    1    1    2    0    0  0.31457823065E-01  0.88426234258E-02  0.77719322776E+00  0.77788004289E+00  0.51109989000E-03 0.  1.
      611    1    1    2    0    0 -0.54901585519E-01 -0.89729158501E-02  0.47000387235E+01  0.47003679602E+01  0.51109989000E-03 0. -1.
</event>
<event>
 6   3  0.2312675E+03  0.9118800E+02  0.7818608E-02  0.1180000E+00
       11   -1    0    0    0    0  0.00000000000E+00  0.00000000000E+00  0.54999999763E+01  0.55000000000E+01  0.51109989000E-03 0.  1.
     -623   -1    0    0    0    0  0.00000000000E+00  0.00000000000E+00  0.93234578044E-11  0.17124000000E+03  0.17124000000E+03 0.  1.
       11    1    1    2    0    0 -0.11590309806E+00 -0.22029314437E-01  0.43250357529E+00  0.44830617070E+00  0.51109989000E-03 0.  1.
     -623    1    1    2    0    0  0.14263669288E-01  0.19742555492E-01  0.16828529268E-01  0.17124000256E+03  0.17124000000E+03 0.  1.
     -611    1    1    2    0    0  0.60403459539E-01  0.19799654274E-02  0.29898144953E+01  0.29904253002E+01  0.51109989000E-03 0.  1.
      611    1    1    2    0    0  0.41235969265E-01  0.30679351847E-03  0.20608533781E+01  0.20612659718E+01  0.51109989000E-03 0.  1.
</event>
<event>
 6   3  0.2312675E+03  0.9118800E+02  0.7818608E-02  0.1180000E+00
       11   -1    0    0    0    0  0.00000000000E+00  0.00000000000E+00  0.54999999763E+01  0.55000000000E+01  0.51109989000E-03 0. -1.
     -623   -1    0    0    0    0  0.00000000000E+00  0.00000000000E+00  0.93234578044E-11  0.17124000000E+03  0.17124000000E+03 0.  1.
       11    1    1    2    0    0  0.43781169262E-01 -0.47371639300E-02  0.45512217171E+00  0.45724794577E+00  0.51109989000E-03 0. -1.
     -623    1    1    2    0    0  0.13367016211E-01 -0.73118493651E-02  0.24652103649E-02  0.17124000070E+03  0.17124000000E+03 0.  1.
     -611    1    1    2    0    0 -0.13920961541E-01  0.21804262710E-02  0.11801270515E+01  0.11802112804E+01  0.51109989000E-03 0. -1.
      611    1    1    2    0    0 -0.43227223913E-01  0.98685870201E-02  0.38622855410E+01  0.38625400766E+01  0.51109989000E-03 0. -1.
</event>
<event>
 6   3  0.2312675E+03  0.9118800E+02  0.7818608E-02  0.1180000E+00
       11   -1    0    0    0    0  0.00000000000E+00  0.00000000000E+00  0.54999999763E+01  0.55000000000E+01  0.51109989000E-03 0. -1.
     -623   -1    0    0    0    0  0.00000000000E+00  0.00000000000E+00  0.93234578044E-11  0.17124000000E+03  0.17124000000E+03 0. -1.
       11    1    1    2    0    0 -0.61463642252E-02  0.53864358788E-02  0.25373330523E+00  0.25386540310E+00  0.51109989000E-03 0. -1.
     -623    1    1    2    0    0  0.66072520950E-03 -0.10736960931E-02  0.52347309621E-03  0.17124000001E+03  0.17124000000E+03 0. -1.
     -611    1    1    2    0    0  0.34032337001E-01 -0.38971890683E-02  0.33690441511E+01  0.33692183279E+01  0.51109989000E-03 0.  1.
      611    1    1    2    0    0 -0.28546697985E-01 -0.41555071736E-03  0.18766990468E+01  0.18769162635E+01  0.51109989000E-03 0. -1.
</event>
<event>
 6   3  0.2312675E+03  0.9118800E+02  0.7818608E-02  0.1180000E+00
       11   -1    0    0    0    0  0.00000000000E+00  0.00000000000E+00  0.54999999763E+01  0.55000000000E+01  0.51109989000E-03 0.  1.
     -623   -1    0    0    0    0  0.00000000000E+00  0.00000000000E+00  0.93234578044E-11  0.17124000000E+03  0.17124000000E+03 0. -1.
       11    1    1    2    0    0  0.12187656852E-01  0.16621935921E-02  0.33827462921E+00  0.33849857881E+00  0.51109989000E-03 0.  1.
     -623    1    1    2    0    0 -0.11676926094E+00 -0.35524759453E-01  0.14425481724E-02  0.17124004350E+03  0.17124000000E+03 0. -1.
     -611    1    1    2    0    0  0.23676976195E-01  0.58567627895E-02  0.12479050023E+01  0.12481434440E+01  0.51109989000E-03 0. -1.
      611    1    1    2    0    0  0.80904627904E-01  0.28005803076E-01  0.39123777972E+01  0.39133144741E+01  0.51109989000E-03 0.  1.
</event>
<event>
 6   3  0.2312675E+03  0.9118800E+02  0.7818608E-02  0.1180000E+00
       11   -1    0    0    0    0  0.00000000000E+00  0.00000000000E+00  0.54999999763E+01  0.55000000000E+01  0.51109989000E-03 0.  1.
     -623   -1    0    0    0    0  0.00000000000E+00  0.00000000000E+00  0.93234578044E-11  0.17124000000E+03  0.17124000000E+03 0.  1.
       11    1    1    2    0    0 -0.32545931196E-01 -0.43349189996E-01  0.60024500189E+00  0.60268790715E+00  0.51109989000E-03 0.  1.
     -623    1    1    2    0    0  0.14321733601E-01  0.25175032756E-01  0.32118383010E-02  0.17124000248E+03  0.17124000000E+03 0.  1.
     -611    1    1    2    0    0 -0.31083869948E-01  0.20451709342E-01  0.21999284689E+01  0.22002431704E+01  0.51109989000E-03 0. -1.
      611    1    1    2    0    0  0.49308067544E-01 -0.22775521016E-02  0.26966146672E+01  0.26970664429E+01  0.51109989000E-03 0.  1.
</event>
<event>
 6   3  0.2312675E+03  0.9118800E+02  0.7818608E-02  0.1180000E+00
       11   -1    0    0    0    0  0.00000000000E+00  0.00000000000E+00  0.54999999763E+01  0.55000000000E+01  0.51109989000E-03 0.  1.
     -623   -1    0    0    0    0  0.00000000000E+00  0.00000000000E+00  0.93234578044E-11  0.17124000000E+03  0.17124000000E+03 0. -1.
       11    1    1    2    0    0 -0.16528736365E-01 -0.30794648165E-01  0.46084840496E+00  0.46217207084E+00  0.51109989000E-03 0.  1.
     -623    1    1    2    0    0  0.17030193508E-01  0.79520834148E-02  0.65351371182E-02  0.17124000116E+03  0.17124000000E+03 0. -1.
     -611    1    1    2    0    0 -0.39329850217E-01 -0.71519900265E-01  0.38357828483E+01  0.38366511769E+01  0.51109989000E-03 0.  1.
      611    1    1    2    0    0  0.38828393073E-01  0.94362465015E-01  0.11968335859E+01  0.12011755961E+01  0.51109989000E-03 0. -1.
</event>
<event>
 6   3  0.2312675E+03  0.9118800E+02  0.7818608E-02  0.1180000E+00
       11   -1    0    0    0    0  0.00000000000E+00  0.00000000000E+00  0.54999999763E+01  0.55000000000E+01  0.51109989000E-03 0. -1.
     -623   -1    0    0    0    0  0.00000000000E+00  0.00000000000E+00  0.93234578044E-11  0.17124000000E+03  0.17124000000E+03 0.  1.
       11    1    1    2    0    0  0.14322969129E-02  0.43613447180E-03  0.63231558425E-02  0.65180680137E-02  0.51109989000E-03 0. -1.
     -623    1    1    2    0    0 -0.21466481324E-02  0.25642211541E-03  0.14163928389E-02  0.17124000002E+03  0.17124000000E+03 0.  1.
     -611    1    1    2    0    0 -0.52226014662E-01  0.21643243652E-01  0.22365092055E+01  0.22372236532E+01  0.51109989000E-03 0.  1.
      611    1    1    2    0    0  0.52940365882E-01 -0.22335800239E-01  0.32557512220E+01  0.32562582593E+01  0.51109989000E-03 0. -1.
</event>
<event>
 6   3  0.2312675E+03  0.9118800E+02  0.7818608E-02  0.1180000E+00
       11   -1    0    0    0    0  0.00000000000E+00  0.00000000000E+00  0.54999999763E+01  0.55000000000E+01  0.51109989000E-03 0.  1.
     -623   -1    0    0    0    0  0.00000000000E+00  0.00000000000E+00  0.93234578044E-11  0.17124000000E+03  0.17124000000E+03 0.  1.
       11    1    1    2    0    0  0.24758527278E-02 -0.24551047879E-02  0.37649166823E+00  0.37650816041E+00  0.51109989000E-03 0. -1.
     -623    1    1    2    0    0 -0.62069868282E-01  0.79652222706E-02  0.37762461093E-03  0.17124001143E+03  0.17124000000E+03 0.  1.
     -611    1    1    2    0    0  0.11926318501E-01 -0.10529686087E-02  0.10242356877E+01  0.10243057897E+01  0.51109989000E-03 0.  1.
      611    1    1    2    0    0  0.47667696978E-01 -0.44571488661E-02  0.40988949893E+01  0.40991746084E+01  0.51109989000E-03 0.  1.
</event>
<event>
 6   3  0.2312675E+03  0.9118800E+02  0.7818608E-02  0.1180000E+00
       11   -1    0    0    0    0  0.00000000000E+00  0.00000000000E+00  0.54999999763E+01  0.55000000000E+01  0.51109989000E-03 0. -1.
     -623   -1    0    0    0    0  0.00000000000E+00  0.00000000000E+00  0.93234578044E-11  0.17124000000E+03  0.17124000000E+03 0. -1.
       11    1    1    2    0    0  0.14192612929E-02  0.18871790622E-02  0.10363426664E-02  0.26288736466E-02  0.51109989000E-03 0. -1.
     -623    1    1    2    0    0  0.14491622571E-02 -0.49592874886E-02  0.21386708256E-02  0.17124000009E+03  0.17124000000E+03 0. -1.
     -611    1    1    2    0    0  0.36765371190E-01  0.15817466779E-03  0.30774081764E+01  0.30776278305E+01  0.51109989000E-03 0. -1.
      611    1    1    2    0    0 -0.39633794740E-01  0.29139337587E-02  0.24194167863E+01  0.24197432045E+01  0.51109989000E-03 0.  1.
</event>
<event>
 6   3  0.2312675E+03  0.9118800E+02  0.7818608E-02  0.1180000E+00
       11   -1    0    0    0    0  0.00000000000E+00  0.00000000000E+00  0.54999999763E+01  0.55000000000E+01  0.51109989000E-03 0.  1.
     -623   -1    0    0    0    0  0.00000000000E+00  0.00000000000E+00  0.93234578044E-11  0.17124000000E+03  0.17124000000E+03 0. -1.
       11    1    1    2    0    0  0.90806383075E-03 -0.27889995466E-02  0.18667573576E-02  0.35141292693E-02  0.51109989000E-03 0.  1.
     -623    1    1    2    0    0 -0.64990715793E-02 -0.25109761942E-02  0.29321898050E-02  0.17124000017E+03  0.17124000000E+03 0. -1.
     -611    1    1    2    0    0 -0.54768526206E-01 -0.96722805603E-02  0.29559594030E+01  0.29564826057E+01  0.51109989000E-03 0. -1.
      611    1    1    2    0    0  0.60359533954E-01  0.14972256301E-01  0.25392416261E+01  0.25400030982E+01  0.51109989000E-03 0.  1.
</event>
<event>
 6   3  0.2312675E+03  0.9118800E+02  0.7818608E-02  0.1180000E+00
       11   -1    0    0    0    0  0.00000000000E+00  0.00000000000E+00  0.54999999763E+01  0.55000000000E+01  0.51109989000E-03 0. -1.
     -623   -1    0    0    0    0  0.00000000000E+00  0.00000000000E+00  0.93234578044E-11  0.17124000000E+03  0.17124000000E+03 0.  1.
       11    1    1    2    0    0 -0.28490468741E-02 -0.17960480754E-02  0.15330955103E+00  0.15334739162E+00  0.51109989000E-03 0. -1.
     -623    1    1    2    0    0  0.64695277267E-01 -0.74028572133E-02  0.41876270525E-03  0.17124001238E+03  0.17124000000E+03 0.  1.
     -611    1    1    2    0    0 -0.23016340301E-01  0.61059261240E-02  0.20555052258E+01  0.20556432153E+01  0.51109989000E-03 0.  1.
      611    1    1    2    0    0 -0.38829890085E-01  0.30929791641E-02  0.32907664362E+01  0.32909970109E+01  0.51109989000E-03 0. -1.
</event>
<event>
 6   3  0.2312675E+03  0.9118800E+02  0.7818608E-02  0.1180000E+00
       11   -1    0    0    0    0  0.00000000000E+00  0.00000000000E+00  0.54999999763E+01  0.55000000000E+01  0.51109989000E-03 0. -1.
     -623   -1    0    0    0    0  0.00000000000E+00  0.00000000000E+00  0.93234578044E-11  0.17124000000E+03  0.17124000000E+03 0. -1.
       11    1    1    2    0    0 -0.39777425274E-02  0.49381133287E-02  0.64352098355E-01  0.64665765167E-01  0.51109989000E-03 0. -1.
     -623    1    1    2    0    0  0.59258377716E-01 -0.12516489440E-02  0.60669813926E-03  0.17124001026E+03  0.17124000000E+03 0. -1.
     -611    1    1    2    0    0 -0.49356520269E-01 -0.34641676563E-02  0.48879517976E+01  0.48882022364E+01  0.51109989000E-03 0. -1.
      611    1    1    2    0    0 -0.59241149446E-02 -0.22229672979E-03  0.54708938460E+00  0.54712174195E+00  0.51109989000E-03 0. -1.
</event>
<event>
 6   3  0.2312675E+03  0.9118800E+02  0.7818608E-02  0.1180000E+00
       11   -1    0    0    0    0  0.00000000000E+00  0.00000000000E+00  0.54999999763E+01  0.55000000000E+01  0.51109989000E-03 0. -1.
     -623   -1    0    0    0    0  0.00000000000E+00  0.00000000000E+00  0.93234578044E-11  0.17124000000E+03  0.17124000000E+03 0. -1.
       11    1    1    2    0    0 -0.61109464259E-02  0.15698745813E-02 -0.46254947112E-03  0.63469163797E-02  0.51109989000E-03 0. -1.
     -623    1    1    2    0    0 -0.13048573984E-01  0.69687936222E-02  0.75650268955E-02  0.17124000081E+03  0.17124000000E+03 0. -1.
     -611    1    1    2    0    0  0.46997786625E-01 -0.19562424064E-01  0.45375057463E+01  0.45377913283E+01  0.51109989000E-03 0. -1.
      611    1    1    2    0    0 -0.27838266215E-01  0.11023755861E-01  0.95539175256E+00  0.95586094927E+00  0.51109989000E-03 0.  1.
</event>
<event>
 6   3  0.2312675E+03  0.9118800E+02  0.7818608E-02  0.1180000E+00
       11   -1    0    0    0    0  0.00000000000E+00  0.00000000000E+00  0.54999999763E+01  0.55000000000E+01  0.51109989000E-03 0.  1.
     -623   -1    0    0    0    0  0.00000000000E+00  0.00000000000E+00  0.93234578044E-11  0.17124000000E+03  0.17124000000E+03 0.  1.
       11    1    1    2    0    0  0.33359918324E-02  0.12747043231E-03  0.30254528021E-02  0.45342781093E-02  0.51109989000E-03 0.  1.
     -623    1    1    2    0    0 -0.68857525385E-01  0.11028884347E-01  0.19252072424E-02  0.17124001421E+03  0.17124000000E+03 0.  1.
     -611    1    1    2    0    0  0.45266859896E-01 -0.82369473420E-02  0.37824836002E+01  0.37827634585E+01  0.51109989000E-03 0.  1.
      611    1    1    2    0    0  0.20254673691E-01 -0.29194074433E-02  0.17125657188E+01  0.17126880560E+01  0.51109989000E-03 0.  1.
</event>
<event>
 6   3  0.2312675E+03  0.9118800E+02  0.7818608E-02  0.1180000E+00
       11   -1    0    0    0    0  0.00000000000E+00  0.00000000000E+00  0.54999999763E+01  0.55000000000E+01  0.51109989000E-03 0. -1.
     -623   -1    0    0    0    0  0.00000000000E+00  0.00000000000E+00  0.93234578044E-11  0.17124000000E+03  0.17124000000E+03 0.  1.
       11    1    1    2    0    0  0.17692361155E-01  0.52384409364E-02  0.25123954724E+00  0.25191671685E+00  0.51109989000E-03 0. -1.
     -623    1    1    2    0    0  0.49470394598E-01 -0.19970261820E-01  0.11363156301E-02  0.17124000831E+03  0.17124000000E+03 0.  1.
     -611    1    1    2    0    0 -0.58602371846E-01  0.13222071994E-01  0.46034914265E+01  0.46038834299E+01  0.51109989000E-03 0. -1.
      611    1    1    2    0    0 -0.85603838480E-02  0.15097488769E-02  0.64413268237E+00  0.64419153459E+00  0.51109989000E-03 0.  1.
</event>
<event>
 6   3  0.2312675E+03  0.9118800E+02  0.7818608E-02  0.1180000E+00
       11   -1    0    0    0    0  0.00000000000E+00  0.00000000000E+00  0.54999999763E+01  0.55000000000E+01  0.51109989000E-03 0. -1.
     -623   -1    0    0    0    0  0.00000000000E+00  0.00000000000E+00  0.93234578044E-11  0.17124000000E+03  0.17124000000E+03 0.  1.
       11    1    1    2    0    0  0.14122447318E-01  0.11857298347E-01  0.41545200450E+00  0.41586135707E+00  0.51109989000E-03 0. -1.
     -623    1    1    2    0    0 -0.86189411978E-03 -0.48771902200E-02  0.11467250339E-02  0.17124000008E+03  0.17124000000E+03 0.  1.
     -611    1    1    2    0    0 -0.48400382176E-01  0.44116386889E-02  0.32684287743E+01  0.32687901391E+01  0.51109989000E-03 0. -1.
      611    1    1    2    0    0  0.35139828978E-01 -0.11391746816E-01  0.18149724723E+01  0.18153484282E+01  0.51109989000E-03 0.  1.
</event>
<event>
 6   3  0.2312675E+03  0.9118800E+02  0.7818608E-02  0.1180000E+00
       11   -1    0    0    0    0  0.00000000000E+00  0.00000000000E+00  0.54999999763E+01  0.55000000000E+01  0.51109989000E-03 0. -1.
     -623   -1    0    0    0    0  0.00000000000E+00  0.00000000000E+00  0.93234578044E-11  0.17124000000E+03  0.17124000000E+03 0.  1.
       11    1    1    2    0    0 -0.12320494869E-02  0.69055312457E-02  0.64234316420E+00  0.64238166702E+00  0.51109989000E-03 0. -1.
     -623    1    1    2    0    0 -0.60037668826E-03  0.80041200989E-02  0.51906542438E-03  0.17124000019E+03  0.17124000000E+03 0.  1.
     -611    1    1    2    0    0  0.33821196027E-01 -0.95239516869E-02  0.28776903553E+01  0.28779049013E+01  0.51109989000E-03 0.  1.
      611    1    1    2    0    0 -0.31988769851E-01 -0.53856996582E-02  0.19794473917E+01  0.19797132431E+01  0.51109989000E-03 0. -1.
</event>
<event>
 6   3  0.2312675E+03  0.9118800E+02  0.7818608E-02  0.1180000E+00
       11   -1    0    0    0    0  0.00000000000E+00  0.00000000000E+00  0.54999999763E+01  0.55000000000E+01  0.51109989000E-03 0. -1.
     -623   -1    0    0    0    0  0.00000000000E+00  0.00000000000E+00  0.93234578044E-11  0.17124000000E+03  0.17124000000E+03 0. -1.
       11    1    1    2    0    0  0.40280166944E-02  0.55306461756E-02  0.15756666658E-01  0.17185654857E-01  0.51109989000E-03 0. -1.
     -623    1    1    2    0    0 -0.56490088585E-02  0.86934115474E-03  0.40661530896E-02  0.17124000014E+03  0.17124000000E+03 0. -1.
     -611    1    1    2    0    0 -0.81632627777E-01  0.79871647808E-02  0.32557389502E+01  0.32567720297E+01  0.51109989000E-03 0. -1.
      611    1    1    2    0    0  0.83253619941E-01 -0.14387152111E-01  0.22244382064E+01  0.22260421718E+01  0.51109989000E-03 0.  1.
</event>
<event>
 6   3  0.2312675E+03  0.9118800E+02  0.7818608E-02  0.1180000E+00
       11   -1    0    0    0    0  0.00000000000E+00  0.00000000000E+00  0.54999999763E+01  0.55000000000E+01  0.51109989000E-03 0.  1.
     -623   -1    0    0    0    0  0.00000000000E+00  0.00000000000E+00  0.93234578044E-11  0.17124000000E+03  0.17124000000E+03 0. -1.
       11    1    1    2    0    0  0.27268606514E-01 -0.65582444240E-02  0.37714902766E+00  0.37819074256E+00  0.51109989000E-03 0.  1.
     -623    1    1    2    0    0  0.64456504872E-02  0.62037827597E-02  0.15071468398E-02  0.17124000024E+03  0.17124000000E+03 0. -1.
     -611    1    1    2    0    0  0.16510297950E-01  0.47583398439E-02  0.90026809824E+00  0.90043219715E+00  0.51109989000E-03 0. -1.
      611    1    1    2    0    0 -0.50224554952E-01 -0.44038781795E-02  0.42210757035E+01  0.42213768199E+01  0.51109989000E-03 0.  1.
</event>
<event>
 6   3  0.2312675E+03  0.9118800E+02  0.7818608E-02  0.1180000E+00
       11   -1    0    0    0    0  0.00000000000E+00  0.00000000000E+00  0.54999999763E+01  0.55000000000E+01  0.51109989000E-03 0.  1.
     -623   -1    0    0    0    0  0.00000000000E+00  0.00000000000E+00  0.93234578044E-11  0.17124000000E+03  0.17124000000E+03 0.  1.
       11    1    1    2    0    0  0.61619573921E-02 -0.53518142793E-02  0.19414496602E-01  0.21066455240E-01  0.51109989000E-03 0.  1.
     -623    1    1    2    0    0  0.13067516085E-01  0.98010453194E-02  0.24126069993E-02  0.17124000080E+03  0.17124000000E+03 0.  1.
     -611    1    1    2    0    0  0.25354178416E-01  0.25115489755E-01  0.16492529378E+01  0.16496390927E+01  0.51109989000E-03 0. -1.
      611    1    1    2    0    0 -0.44583651892E-01 -0.29564720795E-01  0.38289199348E+01  0.38292936559E+01  0.51109989000E-03 0.  1.
</event>
<event>
 6   3  0.2312675E+03  0.9118800E+02  0.7818608E-02  0.1180000E+00
       11   -1    0    0    0    0  0.00000000000E+00  0.00000000000E+00  0.54999999763E+01  0.55000000000E+01  0.51109989000E-03 0.  1.
     -623   -1    0    0    0    0  0.00000000000E+00  0.00000000000E+00  0.93234578044E-11  0.17124000000E+03  0.17124000000E+03 0. -1.
       11    1    1    2    0    0 -0.14297473357E-02  0.18675902313E-02  0.11948804671E-02  0.26871980099E-02  0.51109989000E-03 0.  1.
     -623    1    1    2    0    0 -0.11020481587E-03 -0.43461483182E-02  0.22685172883E-02  0.17124000007E+03  0.17124000000E+03 0. -1.
     -611    1    1    2    0    0 -0.38939460465E-01 -0.18485165435E-01  0.19097919194E+01  0.19102783618E+01  0.51109989000E-03 0. -1.
      611    1    1    2    0    0  0.40479412616E-01  0.20963723521E-01  0.35867446590E+01  0.35870343699E+01  0.51109989000E-03 0.  1.
</event>
<event>
 6   3  0.2312675E+03  0.9118800E+02  0.7818608E-02  0.1180000E+00
       11   -1    0    0    0    0  0.00000000000E+00  0.00000000000E+00  0.54999999763E+01  0.55000000000E+01  0.51109989000E-03 0.  1.
     -623   -1    0    0    0    0  0.00000000000E+00  0.00000000000E+00  0.93234578044E-11  0.17124000000E+03  0.17124000000E+03 0.  1.
       11    1    1    2    0    0 -0.82253170140E-02  0.17933253751E-03  0.60847600691E-01  0.61403417927E-01  0.51109989000E-03 0.  1.
     -623    1    1    2    0    0  0.10949230427E-02  0.14396525374E-02  0.11458770172E-02  0.17124000001E+03  0.17124000000E+03 0.  1.
     -611    1    1    2    0    0  0.39728858613E-01  0.76720352088E-02  0.39337078733E+01  0.39339160052E+01  0.51109989000E-03 0.  1.
      611    1    1    2    0    0 -0.32598464642E-01 -0.92910202838E-02  0.15042986253E+01  0.15046805635E+01  0.51109989000E-03 0. -1.
</event>
<event>
 6   3  0.2312675E+03  0.9118800E+02  0.7818608E-02  0.1180000E+00
       11   -1    0    0    0    0  0.00000000000E+00  0.00000000000E+00  0.54999999763E+01  0.55000000000E+01  0.51109989000E-03 0.  1.
     -623   -1    0    0    0    0  0.00000000000E+00  0.00000000000E+00  0.93234578044E-11  0.17124000000E+03  0.17124000000E+03 0.  1.
       11    1    1    2    0    0 -0.29194529649E-02  0.78146762110E-04  0.18242355196E+00  0.18244764413E+00  0.51109989000E-03 0.  1.
     -623    1    1    2    0    0  0.62829088454E-01 -0.28187048740E-02  0.37435322027E-03  0.17124001155E+03  0.17124000000E+03 0.  1.
     -611    1    1    2    0    0 -0.23636890362E-01  0.43470033002E-03  0.20231264424E+01  0.20232646280E+01  0.51109989000E-03 0.  1.
      611    1    1    2    0    0 -0.36272745386E-01  0.23058577935E-02  0.32940756514E+01  0.32942762008E+01  0.51109989000E-03 0.  1.
</event>
<event>
 6   3  0.2312675E+03  0.9118800E+02  0.7818608E-02  0.1180000E+00
       11   -1    0    0    0    0  0.00000000000E+00  0.00000000000E+00  0.54999999763E+01  0.55000000000E+01  0.51109989000E-03 0. -1.
     -623   -1    0    0    0    0  0.00000000000E+00  0.00000000000E+00  0.93234578044E-11  0.17124000000E+03  0.17124000000E+03 0. -1.
       11    1    1    2    0    0 -0.23147045539E-01 -0.47530911901E-01  0.90900744968E+00  0.91054367172E+00  0.51109989000E-03 0. -1.
     -623    1    1    2    0    0 -0.30170439793E-01  0.47388234059E-01  0.18558304631E-02  0.17124000922E+03  0.17124000000E+03 0. -1.
     -611    1    1    2    0    0  0.42671171755E-01 -0.13594782977E-03  0.37410010991E+01  0.37412444897E+01  0.51109989000E-03 0. -1.
      611    1    1    2    0    0  0.10646313599E-01  0.27862567177E-03  0.84813559892E+00  0.84820261554E+00  0.51109989000E-03 0.  1.
</event>
<event>
 6   3  0.2312675E+03  0.9118800E+02  0.7818608E-02  0.1180000E+00
       11   -1    0    0    0    0  0.00000000000E+00  0.00000000000E+00  0.54999999763E+01  0.55000000000E+01  0.51109989000E-03 0. -1.
     -623   -1    0    0    0    0  0.00000000000E+00  0.00000000000E+00  0.93234578044E-11  0.17124000000E+03  0.17124000000E+03 0.  1.
       11    1    1    2    0    0  0.10670508483E+00 -0.66469161191E-01  0.82209314627E+00  0.83164988239E+00  0.51109989000E-03 0. -1.
     -623    1    1    2    0    0  0.17047049402E-01 -0.51456254684E-01  0.13028566523E-01  0.17124000908E+03  0.17124000000E+03 0.  1.
     -611    1    1    2    0    0 -0.88673366140E-01  0.11397897606E+00  0.37955130060E+01  0.37982592609E+01  0.51109989000E-03 0.  1.
      611    1    1    2    0    0 -0.35078768095E-01  0.39464398180E-02  0.86936525748E+00  0.87008178150E+00  0.51109989000E-03 0. -1.
</event>
<event>
 6   3  0.2312675E+03  0.9118800E+02  0.7818608E-02  0.1180000E+00
       11   -1    0    0    0    0  0.00000000000E+00  0.00000000000E+00  0.54999999763E+01  0.55000000000E+01  0.51109989000E-03 0.  1.
     -623   -1    0    0    0    0  0.00000000000E+00  0.00000000000E+00  0.93234578044E-11  0.17124000000E+03  0.17124000000E+03 0. -1.
       11    1    1    2    0    0 -0.57531451886E-01 -0.41794403648E-01  0.85895860591E+00  0.86189720270E+00  0.51109989000E-03 0.  1.
     -623    1    1    2    0    0  0.12078797903E-03 -0.16501452643E-01  0.41237278267E-02  0.17124000084E+03  0.17124000000E+03 0. -1.
     -611    1    1    2    0    0  0.14535910300E-01  0.39392239231E-01  0.99852794388E+00  0.99941050481E+00  0.51109989000E-03 0. -1.
      611    1    1    2    0    0  0.42874753607E-01  0.18903617060E-01  0.36383896987E+01  0.36386914477E+01  0.51109989000E-03 0.  1.
</event>
<event>
 6   3  0.2312675E+03  0.9118800E+02  0.7818608E-02  0.1180000E+00
       11   -1    0    0    0    0  0.00000000000E+00  0.00000000000E+00  0.54999999763E+01  0.55000000000E+01  0.51109989000E-03 0. -1.
     -623   -1    0    0    0    0  0.00000000000E+00  0.00000000000E+00  0.93234578044E-11  0.17124000000E+03  0.17124000000E+03 0. -1.
       11    1    1    2    0    0 -0.65992913397E-01  0.33227049239E-01  0.10200787434E+01  0.10227511943E+01  0.51109989000E-03 0. -1.
     -623    1    1    2    0    0 -0.13486656014E-01  0.57665365809E-02  0.35548227025E-02  0.17124000067E+03  0.17124000000E+03 0. -1.
     -611    1    1    2    0    0  0.71028574789E-01 -0.32351834345E-01  0.38884697344E+01  0.38892529921E+01  0.51109989000E-03 0. -1.
      611    1    1    2    0    0  0.84509946237E-02 -0.66417514758E-02  0.58789667585E+00  0.58799514868E+00  0.51109989000E-03 0.  1.
</event>
<event>
 6   3  0.2312675E+03  0.9118800E+02  0.7818608E-02  0.1180000E+00
       11   -1    0    0    0    0  0.00000000000E+00  0.00000000000E+00  0.54999999763E+01  0.55000000000E+01  0.51109989000E-03 0. -1.
     -623   -1    0    0    0    0  0.00000000000E+00  0.00000000000E+00  0.93234578044E-11  0.17124000000E+03  0.17124000000E+03 0. -1.
       11    1    1    2    0    0 -0.15206003111E-01  0.23910732912E-01  0.80566011756E+00  0.80615844096E+00  0.51109989000E-03 0. -1.
     -623    1    1    2    0    0  0.14128872546E-01  0.26489629310E-02  0.28271760415E-02  0.17124000063E+03  0.17124000000E+03 0. -1.
     -611    1    1    2    0    0 -0.49198063496E-01  0.33586116634E-01  0.12311386390E+01  0.12325790386E+01  0.51109989000E-03 0. -1.
      611    1    1    2    0    0  0.50275194061E-01 -0.60145812477E-01  0.34603740437E+01  0.34612618938E+01  0.51109989000E-03 0.  1.
</event>
<event>
 6   3  0.2312675E+03  0.9118800E+02  0.7818608E-02  0.1180000E+00
       11   -1    0    0    0    0  0.00000000000E+00  0.00000000000E+00  0.54999999763E+01  0.55000000000E+01  0.51109989000E-03 0. -1.
     -623   -1    0    0    0    0  0.00000000000E+00  0.00000000000E+00  0.93234578044E-11  0.17124000000E+03  0.17124000000E+03 0. -1.
       11    1    1    2    0    0 -0.79802395311E-01 -0.65682951465E-01  0.56725720952E+00  0.57659663144E+00  0.51109989000E-03 0. -1.
     -623    1    1    2    0    0 -0.98343506130E-02  0.95464200492E-02  0.10541655398E-01  0.17124000087E+03  0.17124000000E+03 0. -1.
     -611    1    1    2    0    0  0.11959935765E-01 -0.13935768176E-02  0.50325307608E+00  0.50339735987E+00  0.51109989000E-03 0.  1.
      611    1    1    2    0    0  0.77676810158E-01  0.57530108234E-01  0.44189480353E+01  0.44200051357E+01  0.51109989000E-03 0. -1.
</event>
<event>
 6   3  0.2312675E+03  0.9118800E+02  0.7818608E-02  0.1180000E+00
       11   -1    0    0    0    0  0.00000000000E+00  0.00000000000E+00  0.54999999763E+01  0.55000000000E+01  0.51109989000E-03 0.  1.
     -623   -1    0    0    0    0  0.00000000000E+00  0.00000000000E+00  0.93234578044E-11  0.17124000000E+03  0.17124000000E+03 0.  1.
       11    1    1    2    0    0  0.28336040371E-02 -0.67017001301E-02  0.92462127256E+00  0.92465004245E+00  0.51109989000E-03 0.  1.
     -623    1    1    2    0    0  0.27422681396E-02  0.43380219070E-02  0.44039812194E-03  0.17124000008E+03  0.17124000000E+03 0.  1.
     -611    1    1    2    0    0  0.26296400584E-01  0.10215025654E-01  0.18824806181E+01  0.18826920583E+01  0.51109989000E-03 0. -1.
      611    1    1    2    0    0 -0.31872272760E-01 -0.78513474309E-02  0.26924576870E+01  0.26926578214E+01  0.51109989000E-03 0.  1.
</event>
<event>
 6   3  0.2312675E+03  0.9118800E+02  0.7818608E-02  0.1180000E+00
       11   -1    0    0    0    0  0.00000000000E+00  0.00000000000E+00  0.54999999763E+01  0.55000000000E+01  0.51109989000E-03 0.  1.
     -623   -1    0    0    0    0  0.00000000000E+00  0.00000000000E+00  0.93234578044E-11  0.17124000000E+03  0.17124000000E+03 0. -1.
       11    1    1    2    0    0 -0.78494438349E-02  0.38593366660E-02  0.32738680250E+00  0.32750402734E+00  0.51109989000E-03 0.  1.
     -623    1    1    2    0    0 -0.14758483772E-02  0.36928099742E-02  0.72990608917E-03  0.17124000005E+03  0.17124000000E+03 0. -1.
     -611    1    1    2    0    0  0.41113270064E-01  0.19833085503E-06  0.38049211002E+01  0.38051432484E+01  0.51109989000E-03 0.  1.
      611    1    1    2    0    0 -0.31787977852E-01 -0.75523449710E-02  0.13669621675E+01  0.13673526765E+01  0.51109989000E-03 0. -1.
</event>
<event>
 6   3  0.2312675E+03  0.9118800E+02  0.7818608E-02  0.1180000E+00
       11   -1    0    0    0    0  0.00000000000E+00  0.00000000000E+00  0.54999999763E+01  0.55000000000E+01  0.51109989000E-03 0.  1.
     -623   -1    0    0    0    0  0.00000000000E+00  0.00000000000E+00  0.93234578044E-11  0.17124000000E+03  0.17124000000E+03 0. -1.
       11    1    1    2    0    0 -0.75759155836E-02  0.23516971804E-02  0.79723266222E+00  0.79727228969E+00  0.51109989000E-03 0.  1.
     -623    1    1    2    0    0 -0.50340090102E-01  0.27229291804E-01  0.49904341239E-03  0.17124000956E+03  0.17124000000E+03 0. -1.
     -611    1    1    2    0    0  0.11633027106E-01 -0.61112154697E-02  0.95285134644E+00  0.95294208844E+00  0.51109989000E-03 0. -1.
      611    1    1    2    0    0  0.46282978588E-01 -0.23469773519E-01  0.37494169248E+01  0.37497760575E+01  0.51109989000E-03 0.  1.
</event>
<event>
 6   3  0.2312675E+03  0.9118800E+02  0.7818608E-02  0.1180000E+00
       11   -1    0    0    0    0  0.00000000000E+00  0.00000000000E+00  0.54999999763E+01  0.55000000000E+01  0.51109989000E-03 0. -1.
     -623   -1    0    0    0    0  0.00000000000E+00  0.00000000000E+00  0.93234578044E-11  0.17124000000E+03  0.17124000000E+03 0. -1.
       11    1    1    2    0    0  0.12675529777E-01 -0.64049375624E-02  0.11540152881E+00  0.11627324007E+00  0.51109989000E-03 0. -1.
     -623    1    1    2    0    0  0.50603665151E-02 -0.30337585809E-02  0.20253803499E-02  0.17124000011E+03  0.17124000000E+03 0. -1.
     -611    1    1    2    0    0  0.38448082668E-01  0.10322680840E-01  0.37025958548E+01  0.37028098976E+01  0.51109989000E-03 0.  1.
      611    1    1    2    0    0 -0.56183978960E-01 -0.88398469671E-03  0.16799772123E+01  0.16809167487E+01  0.51109989000E-03 0. -1.
</event>
<event>
 6   3  0.2312675E+03  0.9118800E+02  0.7818608E-02  0.1180000E+00
       11   -1    0    0    0    0  0.00000000000E+00  0.00000000000E+00  0.54999999763E+01  0.55000000000E+01  0.51109989000E-03 0.  1.
     -623   -1    0    0    0    0  0.00000000000E+00  0.00000000000E+00  0.93234578044E-11  0.17124000000E+03  0.17124000000E+03 0. -1.
       11    1    1    2    0    0  0.10436757068E-01  0.90612050817E-03  0.50225785741E-01  0.51309236292E-01  0.51109989000E-03 0.  1.
     -623    1    1    2    0    0  0.62621341736E-01 -0.33573846478E-01  0.16876920182E-02  0.17124001475E+03  0.17124000000E+03 0. -1.
     -611    1    1    2    0    0 -0.53665174871E-01  0.24248972009E-01  0.41306472779E+01  0.41310670727E+01  0.51109989000E-03 0. -1.
      611    1    1    2    0    0 -0.19392923933E-01  0.84187539606E-02  0.13174392206E+01  0.13176089413E+01  0.51109989000E-03 0.  1.
</event>
<event>
 6   3  0.2312675E+03  0.9118800E+02  0.7818608E-02  0.1180000E+00
       11   -1    0    0    0    0  0.00000000000E+00  0.00000000000E+00  0.54999999763E+01  0.55000000000E+01  0.51109989000E-03 0.  1.
     -623   -1    0    0    0    0  0.00000000000E+00  0.00000000000E+00  0.93234578044E-11  0.17124000000E+03  0.17124000000E+03 0. -1.
       11    1    1    2    0    0  0.91769415923E-02  0.29528718895E-02  0.61995508354E+00  0.62003024325E+00  0.51109989000E-03 0.  1.
     -623    1    1    2    0    0 -0.70123733157E-01 -0.34302105645E-01  0.57456900486E-03  0.17124001779E+03  0.17124000000E+03 0. -1.
     -611    1    1    2    0    0  0.26655195028E-01  0.13928412770E-01  0.20912184870E+01  0.20914347997E+01  0.51109989000E-03 0.  1.
      611    1    1    2    0    0  0.34291596276E-01  0.17420820859E-01  0.27882518163E+01  0.27885171420E+01  0.51109989000E-03 0.  1.
</event>
<event>
 6   3  0.2312675E+03  0.9118800E+02  0.7818608E-02  0.1180000E+00
       11   -1    0    0    0    0  0.00000000000E+00  0.00000000000E+00  0.54999999763E+01  0.55000000000E+01  0.51109989000E-03 0. -1.
     -623   -1    0    0    0    0  0.00000000000E+00  0.00000000000E+00  0.93234578044E-11  0.17124000000E+03  0.17124000000E+03 0. -1.
       11    1    1    2    0    0 -0.42950106900E-04  0.19123120749E-02  0.20734725664E-01  0.20829038711E-01  0.51109989000E-03 0.  1.
     -623    1    1    2    0    0 -0.54922547637E-01  0.78867980062E-02  0.38829427626E-03  0.17124000899E+03  0.17124000000E+03 0. -1.
     -611    1    1    2    0    0  0.57275598684E-02 -0.47377620482E-03  0.56446407183E+00  0.56449355977E+00  0.51109989000E-03 0. -1.
      611    1    1    2    0    0  0.49237937872E-01 -0.93253338754E-02  0.49144128842E+01  0.49146684114E+01  0.51109989000E-03 0. -1.
</event>
<event>
 6   3  0.2312675E+03  0.9118800E+02  0.7818608E-02  0.1180000E+00
       11   -1    0    0    0    0  0.00000000000E+00  0.00000000000E+00  0.54999999763E+01  0.55000000000E+01  0.51109989000E-03 0. -1.
     -623   -1    0    0    0    0  0.00000000000E+00  0.00000000000E+00  0.93234578044E-11  0.17124000000E+03  0.17124000000E+03 0.  1.
       11    1    1    2    0    0 -0.39156553485E-01 -0.28985786735E-01  0.21637089267E+00  0.22178826825E+00  0.51109989000E-03 0. -1.
     -623    1    1    2    0    0 -0.19391407068E-01  0.41746175035E-02  0.58021367710E-02  0.17124000125E+03  0.17124000000E+03 0.  1.
     -611    1    1    2    0    0  0.19579708723E-01  0.91756284568E-02  0.17532751127E+01  0.17534085203E+01  0.51109989000E-03 0.  1.
      611    1    1    2    0    0  0.38968251830E-01  0.15635540775E-01  0.35245518341E+01  0.35248019643E+01  0.51109989000E-03 0. -1.
</event>
<event>
 6   3  0.2312675E+03  0.9118800E+02  0.7818608E-02  0.1180000E+00
       11   -1    0    0    0    0  0.00000000000E+00  0.00000000000E+00  0.54999999763E+01  0.55000000000E+01  0.51109989000E-03 0.  1.
     -623   -1    0    0    0    0  0.00000000000E+00  0.00000000000E+00  0.93234578044E-11  0.17124000000E+03  0.17124000000E+03 0.  1.
       11    1    1    2    0    0 -0.34155156603E-01 -0.55953822120E-02  0.12805605994E+00  0.13265179507E+00  0.51109989000E-03 0.  1.
     -623    1    1    2    0    0 -0.25309571729E-02  0.72791785920E-02  0.71535477191E-02  0.17124000032E+03  0.17124000000E+03 0.  1.
     -611    1    1    2    0    0 -0.41606804242E-01 -0.55171066445E-01  0.26546737375E+01  0.26555729864E+01  0.51109989000E-03 0. -1.
      611    1    1    2    0    0  0.78292918018E-01  0.53487270065E-01  0.27101166311E+01  0.27117748956E+01  0.51109989000E-03 0.  1.
</event>
<event>
 6   3  0.2312675E+03  0.9118800E+02  0.7818608E-02  0.1180000E+00
       11   -1    0    0    0    0  0.00000000000E+00  0.00000000000E+00  0.54999999763E+01  0.55000000000E+01  0.51109989000E-03 0.  1.
     -623   -1    0    0    0    0  0.00000000000E+00  0.00000000000E+00  0.93234578044E-11  0.17124000000E+03  0.17124000000E+03 0.  1.
       11    1    1    2    0    0 -0.11993307406E-01  0.61064493991E-02  0.36858199632E+00  0.36882797803E+00  0.51109989000E-03 0.  1.
     -623    1    1    2    0    0  0.21464097724E-01 -0.19783321180E-01  0.18214239272E-02  0.17124000250E+03  0.17124000000E+03 0.  1.
     -611    1    1    2    0    0  0.51735797528E-01  0.26164024694E-01  0.16634237198E+01  0.16644338022E+01  0.51109989000E-03 0.  1.
      611    1    1    2    0    0 -0.61206587847E-01 -0.12487152913E-01  0.34661728362E+01  0.34667357221E+01  0.51109989000E-03 0. -1.
</event>
<event>
 6   3  0.2312675E+03  0.9118800E+02  0.7818608E-02  0.1180000E+00
       11   -1    0    0    0    0  0.00000000000E+00  0.00000000000E+00  0.54999999763E+01  0.55000000000E+01  0.51109989000E-03 0. -1.
     -623   -1    0    0    0    0  0.00000000000E+00  0.00000000000E+00  0.93234578044E-11  0.17124000000E+03  0.17124000000E+03 0. -1.
       11    1    1    2    0    0  0.68317213768E-02  0.92735146265E-02  0.17712949012E+00  0.17750433229E+00  0.51109989000E-03 0. -1.
     -623    1    1    2    0    0 -0.11865659892E-01 -0.16078948609E-01  0.28678621454E-02  0.17124000119E+03  0.17124000000E+03 0. -1.
     -611    1    1    2    0    0 -0.66877766986E-01 -0.16945143606E-02  0.39602129948E+01  0.39607780463E+01  0.51109989000E-03 0. -1.
      611    1    1    2    0    0  0.71911705501E-01  0.84999483429E-02  0.13597896293E+01  0.13617164314E+01  0.51109989000E-03 0.  1.
</event>
<event>
 6   3  0.2312675E+03  0.9118800E+02  0.7818608E-02  0.1180000E+00
       11   -1    0    0    0    0  0.00000000000E+00  0.00000000000E+00  0.54999999763E+01  0.55000000000E+01  0.51109989000E-03 0. -1.
     -623   -1    0    0    0    0  0.00000000000E+00  0.00000000000E+00  0.93234578044E-11  0.17124000000E+03  0.17124000000E+03 0.  1.
       11    1    1    2    0    0  0.33800535158E-02  0.27520010538E-02  0.41884934909E+00  0.41887233941E+00  0.51109989000E-03 0. -1.
     -623    1    1    2    0    0  0.56023444960E-01  0.13758508042E-01  0.41720490327E-03  0.17124000972E+03  0.17124000000E+03 0.  1.
     -611    1    1    2    0    0 -0.20935927721E-01 -0.61504036365E-02  0.14202944595E+01  0.14204621619E+01  0.51109989000E-03 0.  1.
      611    1    1    2    0    0 -0.38467570759E-01 -0.10360105460E-01  0.36604389632E+01  0.36606557814E+01  0.51109989000E-03 0. -1.
</event>
<event>
 6   3  0.2312675E+03  0.9118800E+02  0.7818608E-02  0.1180000E+00
       11   -1    0    0    0    0  0.00000000000E+00  0.00000000000E+00  0.54999999763E+01  0.55000000000E+01  0.51109989000E-03 0.  1.
     -623   -1    0    0    0    0  0.00000000000E+00  0.00000000000E+00  0.93234578044E-11  0.17124000000E+03  0.17124000000E+03 0.  1.
       11    1    1    2    0    0 -0.72905376896E-01 -0.52379367172E-01  0.60038980543E+00  0.60706422376E+00  0.51109989000E-03 0.  1.
     -623    1    1    2    0    0 -0.16675071308E-01  0.55031802013E-02  0.79366800532E-02  0.17124000108E+03  0.17124000000E+03 0.  1.
     -611    1    1    2    0    0  0.70312085720E-01  0.55850495855E-01  0.39985278274E+01  0.39995359875E+01  0.51109989000E-03 0.  1.
      611    1    1    2    0    0  0.19268362484E-01 -0.89743088852E-02  0.89314566335E+00  0.89339870449E+00  0.51109989000E-03 0. -1.
</event>
<event>
 6   3  0.2312675E+03  0.9118800E+02  0.7818608E-02  0.1180000E+00
       11   -1    0    0    0    0  0.00000000000E+00  0.00000000000E+00  0.54999999763E+01  0.55000000000E+01  0.51109989000E-03 0.  1.
     -623   -1    0    0    0    0  0.00000000000E+00  0.00000000000E+00  0.93234578044E-11  0.17124000000E+03  0.17124000000E+03 0.  1.
       11    1    1    2    0    0  0.26954613401E-01  0.65752650261E-02  0.82147099221E-01  0.86707510789E-01  0.51109989000E-03 0.  1.
     -623    1    1    2    0    0  0.38617640326E-01  0.20480699234E-01  0.50311863078E-02  0.17124000565E+03  0.17124000000E+03 0.  1.
     -611    1    1    2    0    0 -0.53878398944E-01 -0.21788261148E-01  0.44637102484E+01  0.44640886027E+01  0.51109989000E-03 0.  1.
      611    1    1    2    0    0 -0.11693854743E-01 -0.52677030959E-02  0.94911143900E+00  0.94919822998E+00  0.51109989000E-03 0. -1.
</event>
<event>
 6   3  0.2312675E+03  0.9118800E+02  0.7818608E-02  0.1180000E+00
       11   -1    0    0    0    0  0.00000000000E+00  0.00000000000E+00  0.54999999763E+01  0.55000000000E+01  0.51109989000E-03 0.  1.
     -623   -1    0    0    0    0  0.00000000000E+00  0.00000000000E+00  0.93234578044E-11  0.17124000000E+03  0.17124000000E+03 0.  1.
       11    1    1    2    0    0 -0.51476648531E-02 -0.75263328726E-02  0.75558234666E-01  0.76108161119E-01  0.51109989000E-03 0.  1.
     -623    1    1    2    0    0 -0.42522580995E-02  0.34590281468E-02  0.15487214759E-02  0.17124000009E+03  0.17124000000E+03 0.  1.
     -611    1    1    2    0    0 -0.40827908992E-01  0.25558721066E-01  0.29675905008E+01  0.29679814366E+01  0.51109989000E-03 0.  1.
      611    1    1    2    0    0  0.50227831945E-01 -0.21491416340E-01  0.24553025194E+01  0.24559103076E+01  0.51109989000E-03 0. -1.
</event>
<event>
 6   3  0.2312675E+03  0.9118800E+02  0.7818608E-02  0.1180000E+00
       11   -1    0    0    0    0  0.00000000000E+00  0.00000000000E+00  0.54999999763E+01  0.55000000000E+01  0.51109989000E-03 0. -1.
     -623   -1    0    0    0    0  0.00000000000E+00  0.00000000000E+00  0.93234578044E-11  0.17124000000E+03  0.17124000000E+03 0. -1.
       11    1    1    2    0    0  0.52043082540E-01 -0.19156512608E-01  0.80392190816E+00  0.80583258191E+00  0.51109989000E-03 0. -1.
     -623    1    1    2    0    0  0.41565037115E-02  0.43284205772E-02  0.23258116843E-02  0.17124000012E+03  0.17124000000E+03 0. -1.
     -611    1    1    2    0    0 -0.40047547633E-01  0.17365763530E-02  0.35463029204E+01  0.35465294988E+01  0.51109989000E-03 0. -1.
      611    1    1    2    0    0 -0.16152038619E-01  0.13091515678E-01  0.11474493360E+01  0.11476377983E+01  0.51109989000E-03 0.  1.
</event>
<event>
 6   3  0.2312675E+03  0.9118800E+02  0.7818608E-02  0.1180000E+00
       11   -1    0    0    0    0  0.00000000000E+00  0.00000000000E+00  0.54999999763E+01  0.55000000000E+01  0.51109989000E-03 0. -1.
     -623   -1    0    0    0    0  0.00000000000E+00  0.00000000000E+00  0.93234578044E-11  0.17124000000E+03  0.17124000000E+03 0.  1.
       11    1    1    2    0    0 -0.18950857595E-01 -0.35617200667E-01  0.16532749582E+00  0.17017979341E+00  0.51109989000E-03 0. -1.
     -623    1    1    2    0    0 -0.54878375470E-01 -0.24344651234E-01  0.57139872211E-02  0.17124001062E+03  0.17124000000E+03 0.  1.
     -611    1    1    2    0    0  0.21147656547E-01  0.19436926184E-01  0.16887202740E+01  0.16889646067E+01  0.51109989000E-03 0.  1.
      611    1    1    2    0    0  0.52681576514E-01  0.40524925713E-01  0.36402382189E+01  0.36408449801E+01  0.51109989000E-03 0. -1.
</event>
<event>
 6   3  0.2312675E+03  0.9118800E+02  0.7818608E-02  0.1180000E+00
       11   -1    0    0    0    0  0.00000000000E+00  0.00000000000E+00  0.54999999763E+01  0.55000000000E+01  0.51109989000E-03 0. -1.
     -623   -1    0    0    0    0  0.00000000000E+00  0.00000000000E+00  0.93234578044E-11  0.17124000000E+03  0.17124000000E+03 0.  1.
       11    1    1    2    0    0  0.14223978448E-01  0.30756230334E-02  0.22062427668E+00  0.22110430503E+00  0.51109989000E-03 0. -1.
     -623    1    1    2    0    0  0.22380023835E-02 -0.38472739134E-02  0.11371990206E-02  0.17124000006E+03  0.17124000000E+03 0.  1.
     -611    1    1    2    0    0 -0.48736424184E-01  0.73927969325E-02  0.35590740429E+01  0.35594154291E+01  0.51109989000E-03 0.  1.
      611    1    1    2    0    0  0.32274443353E-01 -0.66211460526E-02  0.17191644577E+01  0.17194802043E+01  0.51109989000E-03 0. -1.
</event>
<event>
 6   3  0.2312675E+03  0.9118800E+02  0.7818608E-02  0.1180000E+00
       11   -1    0    0    0    0  0.00000000000E+00  0.00000000000E+00  0.54999999763E+01  0.55000000000E+01  0.51109989000E-03 0. -1.
     -623   -1    0    0    0    0  0.00000000000E+00  0.00000000000E+00  0.93234578044E-11  0.17124000000E+03  0.17124000000E+03 0. -1.
       11    1    1    2    0    0  0.50546397797E-01 -0.10174552208E+00  0.91553700131E+00  0.92255913176E+00  0.51109989000E-03 0. -1.
     -623    1    1    2    0    0  0.14638578902E-01  0.27080484550E-01  0.86242915048E-02  0.17124000298E+03  0.17124000000E+03 0. -1.
     -611    1    1    2    0    0 -0.79809514800E-01  0.59642474257E-01  0.36328936302E+01  0.36342596458E+01  0.51109989000E-03 0. -1.
      611    1    1    2    0    0  0.14624538100E-01  0.15022563270E-01  0.94294505324E+00  0.94317823828E+00  0.51109989000E-03 0.  1.
</event>
<event>
 6   3  0.2312675E+03  0.9118800E+02  0.7818608E-02  0.1180000E+00
       11   -1    0    0    0    0  0.00000000000E+00  0.00000000000E+00  0.54999999763E+01  0.55000000000E+01  0.51109989000E-03 0. -1.
     -623   -1    0    0    0    0  0.00000000000E+00  0.00000000000E+00  0.93234578044E-11  0.17124000000E+03  0.17124000000E+03 0. -1.
       11    1    1    2    0    0  0.83484989932E-02 -0.57609660022E-02  0.80234192052E-01  0.80874427120E-01  0.51109989000E-03 0. -1.
     -623    1    1    2    0    0 -0.66291427809E-02  0.52247745566E-02  0.97215467877E-03  0.17124000021E+03  0.17124000000E+03 0. -1.
     -611    1    1    2    0    0 -0.30817339474E-01 -0.36080355734E-03  0.27152521725E+01  0.27154271229E+01  0.51109989000E-03 0. -1.
      611    1    1    2    0    0  0.29097983262E-01  0.89699500284E-03  0.27035414572E+01  0.27036982394E+01  0.51109989000E-03 0.  1.
</event>
<event>
 6   3  0.2312675E+03  0.9118800E+02  0.7818608E-02  0.1180000E+00
       11   -1    0    0    0    0  0.00000000000E+00  0.00000000000E+00  0.54999999763E+01  0.55000000000E+01  0.51109989000E-03 0. -1.
     -623   -1    0    0    0    0  0.00000000000E+00  0.00000000000E+00  0.93234578044E-11  0.17124000000E+03  0.17124000000E+03 0. -1.
       11    1    1    2    0    0 -0.46353014883E-01  0.24424370184E-01  0.18986412663E+00  0.19696141665E+00  0.51109989000E-03 0. -1.
     -623    1    1    2    0    0 -0.39143119218E-01 -0.63574778272E-01  0.13289455060E-01  0.17124001679E+03  0.17124000000E+03 0. -1.
     -611    1    1    2    0    0 -0.43453563058E-01 -0.66168849033E-01  0.10840260612E+01  0.10869127340E+01  0.51109989000E-03 0.  1.
      611    1    1    2    0    0  0.12894969716E+00  0.10531925712E+00  0.42128203334E+01  0.42161090585E+01  0.51109989000E-03 0. -1.
</event>
<event>
 6   3  0.2312675E+03  0.9118800E+02  0.7818608E-02  0.1180000E+00
       11   -1    0    0    0    0  0.00000000000E+00  0.00000000000E+00  0.54999999763E+01  0.55000000000E+01  0.51109989000E-03 0. -1.
     -623   -1    0    0    0    0  0.00000000000E+00  0.00000000000E+00  0.93234578044E-11  0.17124000000E+03  0.17124000000E+03 0.  1.
       11    1    1    2    0    0  0.94362576295E-02 -0.11014797041E-02  0.53083475819E-01  0.53929331942E-01  0.51109989000E-03 0. -1.
     -623    1    1    2    0    0 -0.67692346843E-02  0.12614438927E-02  0.15612545234E-02  0.17124000015E+03  0.17124000000E+03 0.  1.
     -611    1    1    2    0    0 -0.42067936618E-01  0.20733469360E-02  0.38366024901E+01  0.38368337126E+01  0.51109989000E-03 0. -1.
      611    1    1    2    0    0  0.39400913673E-01 -0.22333111246E-02  0.16087527557E+01  0.16092368098E+01  0.51109989000E-03 0.  1.
</event>
<event>
 6   3  0.2312675E+03  0.9118800E+02  0.7818608E-02  0.1180000E+00
       11   -1    0    0    0    0  0.00000000000E+00  0.00000000000E+00  0.54999999763E+01  0.55000000000E+01  0.51109989000E-03 0.  1.
     -623   -1    0    0    0    0  0.00000000000E+00  0.00000000000E+00  0.93234578044E-11  0.17124000000E+03  0.17124000000E+03 0. -1.
       11    1    1    2    0    0  0.51171974426E-01  0.77388458223E-01  0.74002952920E+00  0.74582270664E+00  0.51109989000E-03 0.  1.
     -623    1    1    2    0    0  0.11480484756E-01 -0.30217196786E-01  0.12087080913E-01  0.17124000348E+03  0.17124000000E+03 0. -1.
     -611    1    1    2    0    0 -0.13128342203E+00 -0.51128921624E-01  0.18059490781E+01  0.18114364018E+01  0.51109989000E-03 0. -1.
      611    1    1    2    0    0  0.68630962852E-01  0.39576601868E-02  0.29419342880E+01  0.29427374141E+01  0.51109989000E-03 0.  1.
</event>
<event>
 6   3  0.2312675E+03  0.9118800E+02  0.7818608E-02  0.1180000E+00
       11   -1    0    0    0    0  0.00000000000E+00  0.00000000000E+00  0.54999999763E+01  0.55000000000E+01  0.51109989000E-03 0.  1.
     -623   -1    0    0    0    0  0.00000000000E+00  0.00000000000E+00  0.93234578044E-11  0.17124000000E+03  0.17124000000E+03 0.  1.
       11    1    1    2    0    0 -0.21374523819E-01  0.13718086783E-01  0.14509423632E+00  0.14730123832E+00  0.51109989000E-03 0.  1.
     -623    1    1    2    0    0  0.26229148436E-01 -0.51751645386E-01  0.39834583892E-02  0.17124000988E+03  0.17124000000E+03 0.  1.
     -611    1    1    2    0    0  0.45220330832E-01  0.44320367204E-01  0.43784124271E+01  0.43788702671E+01  0.51109989000E-03 0.  1.
      611    1    1    2    0    0 -0.50074955449E-01 -0.62868086022E-02  0.97250985438E+00  0.97381861925E+00  0.51109989000E-03 0. -1.
</event>
<event>
 6   3  0.2312675E+03  0.9118800E+02  0.7818608E-02  0.1180000E+00
       11   -1    0    0    0    0  0.00000000000E+00  0.00000000000E+00  0.54999999763E+01  0.55000000000E+01  0.51109989000E-03 0. -1.
     -623   -1    0    0    0    0  0.00000000000E+00  0.00000000000E+00  0.93234578044E-11  0.17124000000E+03  0.17124000000E+03 0. -1.
       11    1    1    2    0    0 -0.12020938059E+00 -0.65407864497E-01  0.91524992850E+00  0.92542486284E+00  0.51109989000E-03 0. -1.
     -623    1    1    2    0    0  0.93323857772E-03  0.13271361884E-01  0.12036855183E-01  0.17124000094E+03  0.17124000000E+03 0. -1.
     -611    1    1    2    0    0  0.94609626234E-01  0.43762678957E-01  0.35594223789E+01  0.35609484812E+01  0.51109989000E-03 0. -1.
      611    1    1    2    0    0  0.24666515775E-01  0.83738236559E-02  0.10132908137E+01  0.10136257161E+01  0.51109989000E-03 0.  1.
</event>
<event>
 6   3  0.2312675E+03  0.9118800E+02  0.7818608E-02  0.1180000E+00
       11   -1    0    0    0    0  0.00000000000E+00  0.00000000000E+00  0.54999999763E+01  0.55000000000E+01  0.51109989000E-03 0.  1.
     -623   -1    0    0    0    0  0.00000000000E+00  0.00000000000E+00  0.93234578044E-11  0.17124000000E+03  0.17124000000E+03 0.  1.
       11    1    1    2    0    0  0.13977587560E-01 -0.70541747484E-02  0.17864917419E+00  0.17933466758E+00  0.51109989000E-03 0.  1.
     -623    1    1    2    0    0 -0.85723667710E-04 -0.91363738666E-02  0.10287167355E-02  0.17124000025E+03  0.17124000000E+03 0.  1.
     -611    1    1    2    0    0 -0.35915220926E-01  0.73670195678E-02  0.32909740492E+01  0.32911783041E+01  0.51109989000E-03 0. -1.
      611    1    1    2    0    0  0.22023357034E-01  0.88235290471E-02  0.20293480361E+01  0.20294867814E+01  0.51109989000E-03 0.  1.
</event>
<event>
 6   3  0.2312675E+03  0.9118800E+02  0.7818608E-02  0.1180000E+00
       11   -1    0    0    0    0  0.00000000000E+00  0.00000000000E+00  0.54999999763E+01  0.55000000000E+01  0.51109989000E-03 0. -1.
     -623   -1    0    0    0    0  0.00000000000E+00  0.00000000000E+00  0.93234578044E-11  0.17124000000E+03  0.17124000000E+03 0. -1.
       11    1    1    2    0    0 -0.10634380850E-01  0.41637575804E-02  0.84680363058E+00  0.84688079263E+00  0.51109989000E-03 0. -1.
     -623    1    1    2    0    0  0.67967622160E-01 -0.70030038196E-01  0.93031590659E-03  0.17124002781E+03  0.17124000000E+03 0. -1.
     -611    1    1    2    0    0 -0.43784040414E-01  0.52949541423E-01  0.35201643080E+01  0.35208348034E+01  0.51109989000E-03 0. -1.
      611    1    1    2    0    0 -0.13549200955E-01  0.12916739254E-01  0.11321017266E+01  0.11322565979E+01  0.51109989000E-03 0.  1.
</event>
<event>
 6   3  0.2312675E+03  0.9118800E+02  0.7818608E-02  0.1180000E+00
       11   -1    0    0    0    0  0.00000000000E+00  0.00000000000E+00  0.54999999763E+01  0.55000000000E+01  0.51109989000E-03 0.  1.
     -623   -1    0    0    0    0  0.00000000000E+00  0.00000000000E+00  0.93234578044E-11  0.17124000000E+03  0.17124000000E+03 0. -1.
       11    1    1    2    0    0 -0.10842500758E-01 -0.64255017472E-02  0.43819558786E+00  0.43837709946E+00  0.51109989000E-03 0.  1.
     -623    1    1    2    0    0 -0.50818695338E-01 -0.13239780767E-01  0.60521547709E-03  0.17124000805E+03  0.17124000000E+03 0. -1.
     -611    1    1    2    0    0  0.52754986551E-01  0.18193520063E-01  0.43975831104E+01  0.43979371946E+01  0.51109989000E-03 0.  1.
      611    1    1    2    0    0  0.89062095545E-02  0.14717624542E-02  0.66361606339E+00  0.66367765328E+00  0.51109989000E-03 0. -1.
</event>
<event>
 6   3  0.2312675E+03  0.9118800E+02  0.7818608E-02  0.1180000E+00
       11   -1    0    0    0    0  0.00000000000E+00  0.00000000000E+00  0.54999999763E+01  0.55000000000E+01  0.51109989000E-03 0. -1.
     -623   -1    0    0    0    0  0.00000000000E+00  0.00000000000E+00  0.93234578044E-11  0.17124000000E+03  0.17124000000E+03 0. -1.
       11    1    1    2    0    0 -0.22356643781E-02  0.17567477534E-02  0.33666885387E-01  0.33790601543E-01  0.51109989000E-03 0. -1.
     -623    1    1    2    0    0  0.23953028567E-02  0.71510316515E-03  0.21107391300E-02  0.17124000003E+03  0.17124000000E+03 0. -1.
     -611    1    1    2    0    0 -0.57770005773E-01  0.10492850177E-01  0.43701529787E+01  0.43705474248E+01  0.51109989000E-03 0. -1.
      611    1    1    2    0    0  0.57610367295E-01 -0.12964701096E-01  0.10940693730E+01  0.10956619424E+01  0.51109989000E-03 0.  1.
</event>
<event>
 6   3  0.2312675E+03  0.9118800E+02  0.7818608E-02  0.1180000E+00
       11   -1    0    0    0    0  0.00000000000E+00  0.00000000000E+00  0.54999999763E+01  0.55000000000E+01  0.51109989000E-03 0.  1.
     -623   -1    0    0    0    0  0.00000000000E+00  0.00000000000E+00  0.93234578044E-11  0.17124000000E+03  0.17124000000E+03 0.  1.
       11    1    1    2    0    0 -0.90541230051E-01  0.27258494571E-01  0.44067808793E+00  0.45070852918E+00  0.51109989000E-03 0.  1.
     -623    1    1    2    0    0 -0.76122632356E-02  0.77700225394E-02  0.11107181726E-01  0.17124000071E+03  0.17124000000E+03 0.  1.
     -611    1    1    2    0    0  0.58985726646E-01 -0.20152168032E-01  0.30051332203E+01  0.30057796591E+01  0.51109989000E-03 0. -1.
      611    1    1    2    0    0  0.39167766694E-01 -0.14876349098E-01  0.20430814891E+01  0.20435111088E+01  0.51109989000E-03 0.  1.
</event>
<event>
 6   3  0.2312675E+03  0.9118800E+02  0.7818608E-02  0.1180000E+00
       11   -1    0    0    0    0  0.00000000000E+00  0.00000000000E+00  0.54999999763E+01  0.55000000000E+01  0.51109989000E-03 0. -1.
     -623   -1    0    0    0    0  0.00000000000E+00  0.00000000000E+00  0.93234578044E-11  0.17124000000E+03  0.17124000000E+03 0. -1.
       11    1    1    2    0    0 -0.11777988180E-01  0.10012159472E-01  0.23927740773E+00  0.23977677831E+00  0.51109989000E-03 0. -1.
     -623    1    1    2    0    0 -0.19467904460E-02 -0.44418414711E-03  0.13768810842E-02  0.17124000002E+03  0.17124000000E+03 0. -1.
     -611    1    1    2    0    0 -0.37373331522E-01 -0.20401558149E-01  0.19465140231E+01  0.19469797361E+01  0.51109989000E-03 0.  1.
      611    1    1    2    0    0  0.51098110149E-01  0.10833582825E-01  0.33128316642E+01  0.33132434683E+01  0.51109989000E-03 0. -1.
</event>
<event>
 6   3  0.2312675E+03  0.9118800E+02  0.7818608E-02  0.1180000E+00
       11   -1    0    0    0    0  0.00000000000E+00  0.00000000000E+00  0.54999999763E+01  0.55000000000E+01  0.51109989000E-03 0.  1.
     -623   -1    0    0    0    0  0.00000000000E+00  0.00000000000E+00  0.93234578044E-11  0.17124000000E+03  0.17124000000E+03 0.  1.
       11    1    1    2    0    0  0.55834648820E-01  0.67081227374E-02  0.74128923652E+00  0.74341946458E+00  0.51109989000E-03 0.  1.
     -623    1    1    2    0    0  0.15437267918E-01 -0.17771749669E-01  0.26794107678E-02  0.17124000164E+03  0.17124000000E+03 0.  1.
     -611    1    1    2    0    0 -0.36200975688E-01  0.67020553040E-02  0.23923482432E+01  0.23926315651E+01  0.51109989000E-03 0. -1.
      611    1    1    2    0    0 -0.35070941064E-01  0.43615716294E-02  0.23636830867E+01  0.23639473323E+01  0.51109989000E-03 0.  1.
</event>
<event>
 6   3  0.2312675E+03  0.9118800E+02  0.7818608E-02  0.1180000E+00
       11   -1    0    0    0    0  0.00000000000E+00  0.00000000000E+00  0.54999999763E+01  0.55000000000E+01  0.51109989000E-03 0. -1.
     -623   -1    0    0    0    0  0.00000000000E+00  0.00000000000E+00  0.93234578044E-11  0.17124000000E+03  0.17124000000E+03 0.  1.
       11    1    1    2    0    0 -0.15952012511E-01 -0.91046156783E-02  0.79036908170E+00  0.79058263784E+00  0.51109989000E-03 0. -1.
     -623    1    1    2    0    0  0.84095828295E-03  0.36537613426E-03  0.88527427449E-03  0.17124000000E+03  0.17124000000E+03 0.  1.
     -611    1    1    2    0    0 -0.31032515829E-01  0.39853691356E-02  0.24145636024E+01  0.24147663555E+01  0.51109989000E-03 0. -1.
      611    1    1    2    0    0  0.46143570058E-01  0.47538704085E-02  0.22941820178E+01  0.22946510018E+01  0.51109989000E-03 0.  1.
</event>
<event>
 6   3  0.2312675E+03  0.9118800E+02  0.7818608E-02  0.1180000E+00
       11   -1    0    0    0    0  0.00000000000E+00  0.00000000000E+00  0.54999999763E+01  0.55000000000E+01  0.51109989000E-03 0. -1.
     -623   -1    0    0    0    0  0.00000000000E+00  0.00000000000E+00  0.93234578044E-11  0.17124000000E+03  0.17124000000E+03 0. -1.
       11    1    1    2    0    0 -0.81220942475E-02 -0.53130929115E-02  0.10556698872E+01  0.10557146249E+01  0.51109989000E-03 0. -1.
     -623    1    1    2    0    0 -0.96093445491E-03 -0.14940013352E-02  0.59413240382E-03  0.17124000001E+03  0.17124000000E+03 0. -1.
     -611    1    1    2    0    0  0.31078052411E-01 -0.18627280405E-01  0.22611283883E+01  0.22614187296E+01  0.51109989000E-03 0. -1.
      611    1    1    2    0    0 -0.21995023708E-01  0.25434374652E-01  0.21826075685E+01  0.21828666353E+01  0.51109989000E-03 0.  1.
</event>
<event>
 6   3  0.2312675E+03  0.9118800E+02  0.7818608E-02  0.1180000E+00
       11   -1    0    0    0    0  0.00000000000E+00  0.00000000000E+00  0.54999999763E+01  0.55000000000E+01  0.51109989000E-03 0.  1.
     -623   -1    0    0    0    0  0.00000000000E+00  0.00000000000E+00  0.93234578044E-11  0.17124000000E+03  0.17124000000E+03 0. -1.
       11    1    1    2    0    0 -0.16298602915E-02  0.62669311612E-02  0.12463915878E-01  0.14054938380E-01  0.51109989000E-03 0.  1.
     -623    1    1    2    0    0  0.97013320706E-02 -0.10472097456E-01  0.34539312586E-02  0.17124000063E+03  0.17124000000E+03 0. -1.
     -611    1    1    2    0    0  0.45312390922E-01 -0.46108324746E-01  0.32931493203E+01  0.32937838268E+01  0.51109989000E-03 0. -1.
      611    1    1    2    0    0 -0.53383862701E-01  0.50313491040E-01  0.21909328088E+01  0.21921606050E+01  0.51109989000E-03 0.  1.
</event>
<event>
 6   3  0.2312675E+03  0.9118800E+02  0.7818608E-02  0.1180000E+00
       11   -1    0    0    0    0  0.00000000000E+00  0.00000000000E+00  0.54999999763E+01  0.55000000000E+01  0.51109989000E-03 0. -1.
     -623   -1    0    0    0    0  0.00000000000E+00  0.00000000000E+00  0.93234578044E-11  0.17124000000E+03  0.17124000000E+03 0. -1.
       11    1    1    2    0    0  0.80645051909E-01  0.37165007689E-02  0.25536922453E+00  0.26782669552E+00  0.51109989000E-03 0. -1.
     -623    1    1    2    0    0  0.37124059338E-01 -0.32277262794E-01  0.13871246895E-01  0.17124000763E+03  0.17124000000E+03 0. -1.
     -611    1    1    2    0    0 -0.74425763737E-01  0.17705065554E-01  0.31951840141E+01  0.31960997808E+01  0.51109989000E-03 0.  1.
      611    1    1    2    0    0 -0.43343347511E-01  0.10855696471E-01  0.20355754907E+01  0.20360658957E+01  0.51109989000E-03 0. -1.
</event>
<event>
 6   3  0.2312675E+03  0.9118800E+02  0.7818608E-02  0.1180000E+00
       11   -1    0    0    0    0  0.00000000000E+00  0.00000000000E+00  0.54999999763E+01  0.55000000000E+01  0.51109989000E-03 0.  1.
     -623   -1    0    0    0    0  0.00000000000E+00  0.00000000000E+00  0.93234578044E-11  0.17124000000E+03  0.17124000000E+03 0.  1.
       11    1    1    2    0    0  0.17154521737E-01 -0.34360460862E-01  0.20624450394E-01  0.43595275705E-01  0.51109989000E-03 0.  1.
     -623    1    1    2    0    0 -0.31047957136E-01  0.22382889159E-01  0.24834615414E-01  0.17124000608E+03  0.17124000000E+03 0.  1.
     -611    1    1    2    0    0 -0.29204817108E-01  0.65327501612E-01  0.23029216027E+01  0.23040331536E+01  0.51109989000E-03 0.  1.
      611    1    1    2    0    0  0.43098252507E-01 -0.53349929910E-01  0.31516193078E+01  0.31523654923E+01  0.51109989000E-03 0. -1.
</event>
<event>
 6   3  0.2312675E+03  0.9118800E+02  0.7818608E-02  0.1180000E+00
       11   -1    0    0    0    0  0.00000000000E+00  0.00000000000E+00  0.54999999763E+01  0.55000000000E+01  0.51109989000E-03 0. -1.
     -623   -1    0    0    0    0  0.00000000000E+00  0.00000000000E+00  0.93234578044E-11  0.17124000000E+03  0.17124000000E+03 0. -1.
       11    1    1    2    0    0 -0.46796212919E-01 -0.92315334865E-02  0.39757142236E+00  0.40042278139E+00  0.51109989000E-03 0. -1.
     -623    1    1    2    0    0 -0.18112661394E-01  0.67850821213E-02  0.32665921649E-02  0.17124000112E+03  0.17124000000E+03 0. -1.
     -611    1    1    2    0    0  0.47716802350E-01  0.15556843324E-02  0.36881316311E+01  0.36884406601E+01  0.51109989000E-03 0. -1.
      611    1    1    2    0    0  0.17192071961E-01  0.89076703277E-03  0.14110303304E+01  0.14111354348E+01  0.51109989000E-03 0. -1.
</event>
<event>
 6   3  0.2312675E+03  0.9118800E+02  0.7818608E-02  0.1180000E+00
       11   -1    0    0    0    0  0.00000000000E+00  0.00000000000E+00  0.54999999763E+01  0.55000000000E+01  0.51109989000E-03 0. -1.
     -623   -1    0    0    0    0  0.00000000000E+00  0.00000000000E+00  0.93234578044E-11  0.17124000000E+03  0.17124000000E+03 0.  1.
       11    1    1    2    0    0 -0.50090221798E-01  0.13093282018E-01  0.10125009284E+01  0.10138238780E+01  0.51109989000E-03 0. -1.
     -623    1    1    2    0    0  0.21455216908E-02 -0.22339670931E-01  0.28269381539E-02  0.17124000149E+03  0.17124000000E+03 0.  1.
     -611    1    1    2    0    0  0.78353385332E-01  0.16309099101E-01  0.37273981742E+01  0.37282573207E+01  0.51109989000E-03 0. -1.
      611    1    1    2    0    0 -0.30408685224E-01 -0.70627101883E-02  0.75727393564E+00  0.75791730739E+00  0.51109989000E-03 0.  1.
</event>
<event>
 6   3  0.2312675E+03  0.9118800E+02  0.7818608E-02  0.1180000E+00
       11   -1    0    0    0    0  0.00000000000E+00  0.00000000000E+00  0.54999999763E+01  0.55000000000E+01  0.51109989000E-03 0.  1.
     -623   -1    0    0    0    0  0.00000000000E+00  0.00000000000E+00  0.93234578044E-11  0.17124000000E+03  0.17124000000E+03 0.  1.
       11    1    1    2    0    0 -0.50404743611E-02 -0.21441433300E-02  0.71858982326E+00  0.71861088153E+00  0.51109989000E-03 0.  1.
     -623    1    1    2    0    0 -0.59492699070E-03  0.10066164901E-02  0.12058029262E-02  0.17124000001E+03  0.17124000000E+03 0.  1.
     -611    1    1    2    0    0 -0.34067895714E-01 -0.35800629241E-01  0.28272383338E+01  0.28276702714E+01  0.51109989000E-03 0. -1.
      611    1    1    2    0    0  0.39703297066E-01  0.36938156081E-01  0.19529660161E+01  0.19537188387E+01  0.51109989000E-03 0.  1.
</event>
<event>
 6   3  0.2312675E+03  0.9118800E+02  0.7818608E-02  0.1180000E+00
       11   -1    0    0    0    0  0.00000000000E+00  0.00000000000E+00  0.54999999763E+01  0.55000000000E+01  0.51109989000E-03 0.  1.
     -623   -1    0    0    0    0  0.00000000000E+00  0.00000000000E+00  0.93234578044E-11  0.17124000000E+03  0.17124000000E+03 0. -1.
       11    1    1    2    0    0 -0.53843114280E-01  0.82571018124E-02  0.10579019748E+01  0.10593035968E+01  0.51109989000E-03 0.  1.
     -623    1    1    2    0    0  0.61206628628E-02  0.53855930675E-02  0.16795011116E-02  0.17124000020E+03  0.17124000000E+03 0. -1.
     -611    1    1    2    0    0  0.24381676607E-01 -0.75000968008E-02  0.23176249746E+01  0.23177654113E+01  0.51109989000E-03 0. -1.
      611    1    1    2    0    0  0.23340774851E-01 -0.61425980908E-02  0.21227935296E+01  0.21229307934E+01  0.51109989000E-03 0.  1.
</event>
<event>
 6   3  0.2312675E+03  0.9118800E+02  0.7818608E-02  0.1180000E+00
       11   -1    0    0    0    0  0.00000000000E+00  0.00000000000E+00  0.54999999763E+01  0.55000000000E+01  0.51109989000E-03 0.  1.
     -623   -1    0    0    0    0  0.00000000000E+00  0.00000000000E+00  0.93234578044E-11  0.17124000000E+03  0.17124000000E+03 0. -1.
       11    1    1    2    0    0 -0.66028844631E-02 -0.85440344109E-02  0.85137167813E-03  0.10843646254E-01  0.51109989000E-03 0.  1.
     -623    1    1    2    0    0  0.88228604218E-02  0.13827336645E-01  0.11471021910E-01  0.17124000117E+03  0.17124000000E+03 0. -1.
     -611    1    1    2    0    0 -0.54252295261E-01  0.23228277057E-01  0.37511082687E+01  0.37515725195E+01  0.51109989000E-03 0.  1.
      611    1    1    2    0    0  0.52032319302E-01 -0.28511579291E-01  0.17365693140E+01  0.17375826645E+01  0.51109989000E-03 0. -1.
</event>
<event>
 6   3  0.2312675E+03  0.9118800E+02  0.7818608E-02  0.1180000E+00
       11   -1    0    0    0    0  0.00000000000E+00  0.00000000000E+00  0.54999999763E+01  0.55000000000E+01  0.51109989000E-03 0. -1.
     -623   -1    0    0    0    0  0.00000000000E+00  0.00000000000E+00  0.93234578044E-11  0.17124000000E+03  0.17124000000E+03 0. -1.
       11    1    1    2    0    0  0.10688453697E-01 -0.18013780014E-01  0.92382329128E+00  0.92406086057E+00  0.51109989000E-03 0. -1.
     -623    1    1    2    0    0 -0.44258708977E-02  0.22374310889E-03  0.61875623720E-03  0.17124000006E+03  0.17124000000E+03 0. -1.
     -611    1    1    2    0    0  0.23313276279E-01  0.18033833222E-01  0.22916766780E+01  0.22918662670E+01  0.51109989000E-03 0. -1.
      611    1    1    2    0    0 -0.29575859079E-01 -0.24379631705E-03  0.22838812507E+01  0.22840728140E+01  0.51109989000E-03 0.  1.
</event>
<event>
 6   3  0.2312675E+03  0.9118800E+02  0.7818608E-02  0.1180000E+00
       11   -1    0    0    0    0  0.00000000000E+00  0.00000000000E+00  0.54999999763E+01  0.55000000000E+01  0.51109989000E-03 0.  1.
     -623   -1    0    0    0    0  0.00000000000E+00  0.00000000000E+00  0.93234578044E-11  0.17124000000E+03  0.17124000000E+03 0.  1.
       11    1    1    2    0    0  0.67609783735E-01 -0.32488046524E-01  0.80957901034E+00  0.81304673373E+00  0.51109989000E-03 0.  1.
     -623    1    1    2    0    0 -0.10299501111E-01  0.29906261890E-02  0.39184972949E-02  0.17124000038E+03  0.17124000000E+03 0.  1.
     -611    1    1    2    0    0 -0.11457160407E-01  0.37470230636E-02  0.10705587850E+01  0.10706267697E+01  0.51109989000E-03 0. -1.
      611    1    1    2    0    0 -0.45853122216E-01  0.25750397271E-01  0.36159436836E+01  0.36163261158E+01  0.51109989000E-03 0.  1.
</event>
<event>
 6   3  0.2312675E+03  0.9118800E+02  0.7818608E-02  0.1180000E+00
       11   -1    0    0    0    0  0.00000000000E+00  0.00000000000E+00  0.54999999763E+01  0.55000000000E+01  0.51109989000E-03 0. -1.
     -623   -1    0    0    0    0  0.00000000000E+00  0.00000000000E+00  0.93234578044E-11  0.17124000000E+03  0.17124000000E+03 0.  1.
       11    1    1    2    0    0 -0.10993519263E+00 -0.24813021365E-01  0.10567781826E+01  0.10627708224E+01  0.51109989000E-03 0. -1.
     -623    1    1    2    0    0 -0.20182635384E-01  0.69799126477E-01  0.81450586308E-02  0.17124001561E+03  0.17124000000E+03 0.  1.
     -611    1    1    2    0    0  0.90004232191E-01 -0.30705145795E-01  0.30407862363E+01  0.30422729601E+01  0.51109989000E-03 0. -1.
      611    1    1    2    0    0  0.40113595856E-01 -0.14280959328E-01  0.13942904999E+01  0.13949406101E+01  0.51109989000E-03 0. -1.
</event>
<event>
 6   3  0.2312675E+03  0.9118800E+02  0.7818608E-02  0.1180000E+00
       11   -1    0    0    0    0  0.00000000000E+00  0.00000000000E+00  0.54999999763E+01  0.55000000000E+01  0.51109989000E-03 0.  1.
     -623   -1    0    0    0    0  0.00000000000E+00  0.00000000000E+00  0.93234578044E-11  0.17124000000E+03  0.17124000000E+03 0. -1.
       11    1    1    2    0    0  0.13467897942E+00 -0.35038593682E-01  0.94075379840E+00  0.95099111509E+00  0.51109989000E-03 0.  1.
     -623    1    1    2    0    0 -0.90179288333E-02  0.10732787898E-01  0.12197825864E-01  0.17124000101E+03  0.17124000000E+03 0. -1.
     -611    1    1    2    0    0 -0.10339889866E+00  0.52598429006E-02  0.33420767296E+01  0.33436800274E+01  0.51109989000E-03 0.  1.
      611    1    1    2    0    0 -0.22262151927E-01  0.19045962883E-01  0.12049716224E+01  0.12053278493E+01  0.51109989000E-03 0. -1.
</event>
<event>
 6   3  0.2312675E+03  0.9118800E+02  0.7818608E-02  0.1180000E+00
       11   -1    0    0    0    0  0.00000000000E+00  0.00000000000E+00  0.54999999763E+01  0.55000000000E+01  0.51109989000E-03 0.  1.
     -623   -1    0    0    0    0  0.00000000000E+00  0.00000000000E+00  0.93234578044E-11  0.17124000000E+03  0.17124000000E+03 0. -1.
       11    1    1    2    0    0  0.39927068856E-01  0.41507503820E-01  0.70691383128E+00  0.70925627933E+00  0.51109989000E-03 0.  1.
     -623    1    1    2    0    0 -0.15482185769E-03 -0.44600904206E-02  0.39154121553E-02  0.17124000010E+03  0.17124000000E+03 0. -1.
     -611    1    1    2    0    0  0.30244483122E-01 -0.23616235974E-01  0.78427980261E+00  0.78521813871E+00  0.51109989000E-03 0. -1.
      611    1    1    2    0    0 -0.70016730121E-01 -0.13431177425E-01  0.40048909302E+01  0.40055254790E+01  0.51109989000E-03 0.  1.
</event>
<event>
 6   3  0.2312675E+03  0.9118800E+02  0.7818608E-02  0.1180000E+00
       11   -1    0    0    0    0  0.00000000000E+00  0.00000000000E+00  0.54999999763E+01  0.55000000000E+01  0.51109989000E-03 0. -1.
     -623   -1    0    0    0    0  0.00000000000E+00  0.00000000000E+00  0.93234578044E-11  0.17124000000E+03  0.17124000000E+03 0. -1.
       11    1    1    2    0    0  0.54031457901E-01  0.33005702877E-01  0.69904764273E+00  0.70190928395E+00  0.51109989000E-03 0. -1.
     -623    1    1    2    0    0 -0.28052857284E-02  0.14381811197E-02  0.32657141840E-02  0.17124000006E+03  0.17124000000E+03 0. -1.
     -611    1    1    2    0    0 -0.14157535559E-01 -0.11926379199E-01  0.12067235377E+01  0.12068656230E+01  0.51109989000E-03 0.  1.
      611    1    1    2    0    0 -0.37068636615E-01 -0.22517504799E-01  0.35909630817E+01  0.35912250330E+01  0.51109989000E-03 0. -1.
</event>
<event>
 6   3  0.2312675E+03  0.9118800E+02  0.7818608E-02  0.1180000E+00
       11   -1    0    0    0    0  0.00000000000E+00  0.00000000000E+00  0.54999999763E+01  0.55000000000E+01  0.51109989000E-03 0.  1.
     -623   -1    0    0    0    0  0.00000000000E+00  0.00000000000E+00  0.93234578044E-11  0.17124000000E+03  0.17124000000E+03 0. -1.
       11    1    1    2    0    0  0.90100633671E-02  0.16402668029E-01  0.35120538237E+00  0.35170400991E+00  0.51109989000E-03 0.  1.
     -623    1    1    2    0    0  0.14448325669E-02 -0.22270164188E-03  0.21882084403E-02  0.17124000002E+03  0.17124000000E+03 0. -1.
     -611    1    1    2    0    0 -0.69215650254E-01  0.44146813572E-02  0.25497013170E+01  0.25506444995E+01  0.51109989000E-03 0.  1.
      611    1    1    2    0    0  0.58760754320E-01 -0.20594647744E-01  0.25969050684E+01  0.25976514704E+01  0.51109989000E-03 0. -1.
</event>
<event>
 6   3  0.2312675E+03  0.9118800E+02  0.7818608E-02  0.1180000E+00
       11   -1    0    0    0    0  0.00000000000E+00  0.00000000000E+00  0.54999999763E+01  0.55000000000E+01  0.51109989000E-03 0. -1.
     -623   -1    0    0    0    0  0.00000000000E+00  0.00000000000E+00  0.93234578044E-11  0.17124000000E+03  0.17124000000E+03 0. -1.
       11    1    1    2    0    0  0.20777317617E-02  0.77658736475E-03  0.20675087318E-02  0.30750402700E-02  0.51109989000E-03 0. -1.
     -623    1    1    2    0    0 -0.30256956720E-02  0.80544652250E-02  0.18119298355E-02  0.17124000023E+03  0.17124000000E+03 0. -1.
     -611    1    1    2    0    0 -0.44145548022E-01 -0.19241524669E-02  0.35213645996E+01  0.35216418666E+01  0.51109989000E-03 0.  1.
      611    1    1    2    0    0  0.45093511932E-01 -0.69069001228E-02  0.19747559381E+01  0.19752828674E+01  0.51109989000E-03 0. -1.
</event>
<event>
 6   3  0.2312675E+03  0.9118800E+02  0.7818608E-02  0.1180000E+00
       11   -1    0    0    0    0  0.00000000000E+00  0.00000000000E+00  0.54999999763E+01  0.55000000000E+01  0.51109989000E-03 0. -1.
     -623   -1    0    0    0    0  0.00000000000E+00  0.00000000000E+00  0.93234578044E-11  0.17124000000E+03  0.17124000000E+03 0.  1.
       11    1    1    2    0    0  0.39423169125E-02  0.10430775726E-01  0.71810445089E+00  0.71819120474E+00  0.51109989000E-03 0. -1.
     -623    1    1    2    0    0 -0.56366912290E-01 -0.34732206549E-01  0.45114622516E-03  0.17124001280E+03  0.17124000000E+03 0.  1.
     -611    1    1    2    0    0  0.20725906313E-01  0.72831181691E-02  0.17367616092E+01  0.17369006176E+01  0.51109989000E-03 0. -1.
      611    1    1    2    0    0  0.31698689066E-01  0.17018312656E-01  0.30446827701E+01  0.30448953778E+01  0.51109989000E-03 0. -1.
</event>
<event>
 6   3  0.2312675E+03  0.9118800E+02  0.7818608E-02  0.1180000E+00
       11   -1    0    0    0    0  0.00000000000E+00  0.00000000000E+00  0.54999999763E+01  0.55000000000E+01  0.51109989000E-03 0. -1.
     -623   -1    0    0    0    0  0.00000000000E+00  0.00000000000E+00  0.93234578044E-11  0.17124000000E+03  0.17124000000E+03 0. -1.
       11    1    1    2    0    0 -0.58045315674E-01 -0.18526451230E-01  0.85323308248E+00  0.85540601023E+00  0.51109989000E-03 0. -1.
     -623    1    1    2    0    0 -0.23933934501E-02 -0.65440727109E-02  0.26379385649E-02  0.17124000016E+03  0.17124000000E+03 0. -1.
     -611    1    1    2    0    0  0.47845829713E-01  0.19644535947E-01  0.38298803738E+01  0.38302296367E+01  0.51109989000E-03 0.  1.
      611    1    1    2    0    0  0.12592879411E-01  0.54259879947E-02  0.81424858143E+00  0.81436419097E+00  0.51109989000E-03 0. -1.
</event>
<event>
 6   3  0.2312675E+03  0.9118800E+02  0.7818608E-02  0.1180000E+00
       11   -1    0    0    0    0  0.00000000000E+00  0.00000000000E+00  0.54999999763E+01  0.55000000000E+01  0.51109989000E-03 0.  1.
     -623   -1    0    0    0    0  0.00000000000E+00  0.00000000000E+00  0.93234578044E-11  0.17124000000E+03  0.17124000000E+03 0. -1.
       11    1    1    2    0    0  0.45080185256E-01 -0.41071763399E-01  0.85434316130E+00  0.85651714013E+00  0.51109989000E-03 0.  1.
     -623    1    1    2    0    0  0.72114521324E-02  0.42196557038E-02  0.26151957275E-02  0.17124000022E+03  0.17124000000E+03 0. -1.
     -611    1    1    2    0    0 -0.76229995874E-02  0.54889889760E-02  0.65906742005E+00  0.65913455721E+00  0.51109989000E-03 0. -1.
      611    1    1    2    0    0 -0.44668637812E-01  0.31363118727E-01  0.39839742002E+01  0.39843480798E+01  0.51109989000E-03 0.  1.
</event>
<event>
 6   3  0.2312675E+03  0.9118800E+02  0.7818608E-02  0.1180000E+00
       11   -1    0    0    0    0  0.00000000000E+00  0.00000000000E+00  0.54999999763E+01  0.55000000000E+01  0.51109989000E-03 0. -1.
     -623   -1    0    0    0    0  0.00000000000E+00  0.00000000000E+00  0.93234578044E-11  0.17124000000E+03  0.17124000000E+03 0.  1.
       11    1    1    2    0    0  0.54846268558E-01  0.83272694094E-01  0.59955152196E+00  0.60778675822E+00  0.51109989000E-03 0. -1.
     -623    1    1    2    0    0  0.15000650290E-01 -0.26191806723E-01  0.91008721403E-02  0.17124000290E+03  0.17124000000E+03 0.  1.
     -611    1    1    2    0    0 -0.47430022761E-01 -0.40453112175E-01  0.29221182524E+01  0.29227831605E+01  0.51109989000E-03 0.  1.
      611    1    1    2    0    0 -0.22416896086E-01 -0.16627775195E-01  0.19692293297E+01  0.19694271793E+01  0.51109989000E-03 0. -1.
</event>
<event>
 6   3  0.2312675E+03  0.9118800E+02  0.7818608E-02  0.1180000E+00
       11   -1    0    0    0    0  0.00000000000E+00  0.00000000000E+00  0.54999999763E+01  0.55000000000E+01  0.51109989000E-03 0. -1.
     -623   -1    0    0    0    0  0.00000000000E+00  0.00000000000E+00  0.93234578044E-11  0.17124000000E+03  0.17124000000E+03 0. -1.
       11    1    1    2    0    0 -0.16805260812E-02 -0.52223517860E-03  0.39937815346E-01  0.39979835108E-01  0.51109989000E-03 0. -1.
     -623    1    1    2    0    0  0.47097411834E-03  0.11610790044E-03  0.63505988021E-03  0.17124000000E+03  0.17124000000E+03 0. -1.
     -611    1    1    2    0    0 -0.36776698350E-01  0.18595109767E-02  0.16892421907E+01  0.16896435788E+01  0.51109989000E-03 0.  1.
      611    1    1    2    0    0  0.37986250313E-01 -0.14533836986E-02  0.37701849106E+01  0.37703765845E+01  0.51109989000E-03 0. -1.
</event>
<event>
 6   3  0.2312675E+03  0.9118800E+02  0.7818608E-02  0.1180000E+00
       11   -1    0    0    0    0  0.00000000000E+00  0.00000000000E+00  0.54999999763E+01  0.55000000000E+01  0.51109989000E-03 0. -1.
     -623   -1    0    0    0    0  0.00000000000E+00  0.00000000000E+00  0.93234578044E-11  0.17124000000E+03  0.17124000000E+03 0.  1.
       11    1    1    2    0    0 -0.53393243813E-03  0.11615690075E-01  0.22478832612E+00  0.22508945360E+00  0.51109989000E-03 0. -1.
     -623    1    1    2    0    0  0.91957836906E-03 -0.67816780387E-03  0.78704856670E-03  0.17124000001E+03  0.17124000000E+03 0.  1.
     -611    1    1    2    0    0  0.33717578922E-01 -0.98808276326E-02  0.20052989846E+01  0.20056068370E+01  0.51109989000E-03 0.  1.
      611    1    1    2    0    0 -0.34103224853E-01 -0.10566946381E-02  0.32691256171E+01  0.32693037039E+01  0.51109989000E-03 0. -1.
</event>
<event>
 6   3  0.2312675E+03  0.9118800E+02  0.7818608E-02  0.1180000E+00
       11   -1    0    0    0    0  0.00000000000E+00  0.00000000000E+00  0.54999999763E+01  0.55000000000E+01  0.51109989000E-03 0.  1.
     -623   -1    0    0    0    0  0.00000000000E+00  0.00000000000E+00  0.93234578044E-11  0.17124000000E+03  0.17124000000E+03 0.  1.
       11    1    1    2    0    0  0.48637579617E-03 -0.12065785274E-01  0.10020200416E+00  0.10092830424E+00  0.51109989000E-03 0.  1.
     -623    1    1    2    0    0  0.67106441010E-01  0.18560188633E-01  0.11689796726E-02  0.17124001416E+03  0.17124000000E+03 0.  1.
     -611    1    1    2    0    0 -0.35611732916E-01 -0.53128222886E-02  0.28175433380E+01  0.28177734374E+01  0.51109989000E-03 0.  1.
      611    1    1    2    0    0 -0.31981083881E-01 -0.11815810697E-02  0.25810856537E+01  0.25812840988E+01  0.51109989000E-03 0.  1.
</event>
<event>
 6   3  0.2312675E+03  0.9118800E+02  0.7818608E-02  0.1180000E+00
       11   -1    0    0    0    0  0.00000000000E+00  0.00000000000E+00  0.54999999763E+01  0.55000000000E+01  0.51109989000E-03 0.  1.
     -623   -1    0    0    0    0  0.00000000000E+00  0.00000000000E+00  0.93234578044E-11  0.17124000000E+03  0.17124000000E+03 0. -1.
       11    1    1    2    0    0 -0.54747543207E-01  0.33785140235E-02  0.34139827707E+00  0.34577702737E+00  0.51109989000E-03 0.  1.
     -623    1    1    2    0    0 -0.11424412997E-01 -0.26856385669E-02  0.48141047783E-02  0.17124000047E+03  0.17124000000E+03 0. -1.
     -611    1    1    2    0    0  0.35036898166E-01 -0.27917464192E-02  0.23853467481E+01  0.23856057403E+01  0.51109989000E-03 0. -1.
      611    1    1    2    0    0  0.31135058036E-01  0.20988709626E-02  0.27684408462E+01  0.27686167624E+01  0.51109989000E-03 0.  1.
</event>
<event>
 6   3  0.2312675E+03  0.9118800E+02  0.7818608E-02  0.1180000E+00
       11   -1    0    0    0    0  0.00000000000E+00  0.00000000000E+00  0.54999999763E+01  0.55000000000E+01  0.51109989000E-03 0.  1.
     -623   -1    0    0    0    0  0.00000000000E+00  0.00000000000E+00  0.93234578044E-11  0.17124000000E+03  0.17124000000E+03 0. -1.
       11    1    1    2    0    0 -0.13973983287E+00 -0.32992513503E-01  0.53701975652E+00  0.55588326738E+00  0.51109989000E-03 0.  1.
     -623    1    1    2    0    0  0.26962300118E-01 -0.27274246099E-01  0.20538630510E-01  0.17124000553E+03  0.17124000000E+03 0. -1.
     -611    1    1    2    0    0  0.92526350331E-01  0.52239802601E-01  0.42431153673E+01  0.42444455944E+01  0.51109989000E-03 0.  1.
      611    1    1    2    0    0  0.20251182419E-01  0.80269570019E-02  0.69932622205E+00  0.69966561192E+00  0.51109989000E-03 0. -1.
</event>
<event>
 6   3  0.2312675E+03  0.9118800E+02  0.7818608E-02  0.1180000E+00
       11   -1    0    0    0    0  0.00000000000E+00  0.00000000000E+00  0.54999999763E+01  0.55000000000E+01  0.51109989000E-03 0.  1.
     -623   -1    0    0    0    0  0.00000000000E+00  0.00000000000E+00  0.93234578044E-11  0.17124000000E+03  0.17124000000E+03 0.  1.
       11    1    1    2    0    0 -0.42984971311E-02 -0.14174997010E-01  0.33775477550E-01  0.36884301872E-01  0.51109989000E-03 0.  1.
     -623    1    1    2    0    0 -0.31741648872E-02  0.30385423988E-02  0.36709013341E-02  0.17124000010E+03  0.17124000000E+03 0.  1.
     -611    1    1    2    0    0 -0.34671072812E-01  0.10356806531E-02  0.26796922156E+01  0.26799167501E+01  0.51109989000E-03 0. -1.
      611    1    1    2    0    0  0.42143734831E-01  0.10100773958E-01  0.27828613818E+01  0.27831988523E+01  0.51109989000E-03 0.  1.
</event>
<event>
 6   3  0.2312675E+03  0.9118800E+02  0.7818608E-02  0.1180000E+00
       11   -1    0    0    0    0  0.00000000000E+00  0.00000000000E+00  0.54999999763E+01  0.55000000000E+01  0.51109989000E-03 0. -1.
     -623   -1    0    0    0    0  0.00000000000E+00  0.00000000000E+00  0.93234578044E-11  0.17124000000E+03  0.17124000000E+03 0. -1.
       11    1    1    2    0    0 -0.37885816094E-02 -0.29585643167E-01  0.26200506755E+00  0.26369789586E+00  0.51109989000E-03 0. -1.
     -623    1    1    2    0    0  0.86810412148E-03 -0.17491101408E-02  0.65626448202E-02  0.17124000014E+03  0.17124000000E+03 0. -1.
     -611    1    1    2    0    0  0.38781533397E-01  0.11942277245E+00  0.35090332990E+01  0.35112790776E+01  0.51109989000E-03 0. -1.
      611    1    1    2    0    0 -0.35861055909E-01 -0.88088019145E-01  0.17223989649E+01  0.17250228897E+01  0.51109989000E-03 0.  1.
</event>
<event>
 6   3  0.2312675E+03  0.9118800E+02  0.7818608E-02  0.1180000E+00
       11   -1    0    0    0    0  0.00000000000E+00  0.00000000000E+00  0.54999999763E+01  0.55000000000E+01  0.51109989000E-03 0. -1.
     -623   -1    0    0    0    0  0.00000000000E+00  0.00000000000E+00  0.93234578044E-11  0.17124000000E+03  0.17124000000E+03 0. -1.
       11    1    1    2    0    0 -0.11401976854E+00 -0.23229340194E-01  0.76177623799E+00  0.77061235900E+00  0.51109989000E-03 0. -1.
     -623    1    1    2    0    0 -0.24899717141E-01  0.34885604072E-01  0.10898188702E-01  0.17124000571E+03  0.17124000000E+03 0. -1.
     -611    1    1    2    0    0  0.84302817252E-01 -0.58186829743E-02  0.28998723300E+01  0.29011033442E+01  0.51109989000E-03 0. -1.
      611    1    1    2    0    0  0.54616668435E-01 -0.58375809030E-02  0.18274532196E+01  0.18282785862E+01  0.51109989000E-03 0.  1.
</event>
<event>
 6   3  0.2312675E+03  0.9118800E+02  0.7818608E-02  0.1180000E+00
       11   -1    0    0    0    0  0.00000000000E+00  0.00000000000E+00  0.54999999763E+01  0.55000000000E+01  0.51109989000E-03 0. -1.
     -623   -1    0    0    0    0  0.00000000000E+00  0.00000000000E+00  0.93234578044E-11  0.17124000000E+03  0.17124000000E+03 0.  1.
       11    1    1    2    0    0 -0.31041839240E-01  0.50531057571E-01  0.29557248529E+00  0.30146366090E+00  0.51109989000E-03 0. -1.
     -623    1    1    2    0    0  0.97621731854E-01 -0.10253761738E-01  0.65099279510E-02  0.17124002826E+03  0.17124000000E+03 0.  1.
     -611    1    1    2    0    0 -0.48051178338E-01 -0.31527192327E-01  0.40458368045E+01  0.40462449987E+01  0.51109989000E-03 0.  1.
      611    1    1    2    0    0 -0.18528714277E-01 -0.87501035073E-02  0.11520807586E+01  0.11522630833E+01  0.51109989000E-03 0. -1.
</event>
<event>
 6   3  0.2312675E+03  0.9118800E+02  0.7818608E-02  0.1180000E+00
       11   -1    0    0    0    0  0.00000000000E+00  0.00000000000E+00  0.54999999763E+01  0.55000000000E+01  0.51109989000E-03 0. -1.
     -623   -1    0    0    0    0  0.00000000000E+00  0.00000000000E+00  0.93234578044E-11  0.17124000000E+03  0.17124000000E+03 0.  1.
       11    1    1    2    0    0 -0.70382188101E-03  0.23276859068E-03  0.25918299049E-02  0.27437842135E-02  0.51109989000E-03 0. -1.
     -623    1    1    2    0    0 -0.90255060966E-04 -0.10848227216E-02  0.80229752157E-03  0.17124000001E+03  0.17124000000E+03 0.  1.
     -611    1    1    2    0    0  0.36181410294E-01  0.22079255197E-01  0.23845219351E+01  0.23848986788E+01  0.51109989000E-03 0.  1.
      611    1    1    2    0    0 -0.35387333352E-01 -0.21227201067E-01  0.31120839135E+01  0.31123575315E+01  0.51109989000E-03 0. -1.
</event>
<event>
 6   3  0.2312675E+03  0.9118800E+02  0.7818608E-02  0.1180000E+00
       11   -1    0    0    0    0  0.00000000000E+00  0.00000000000E+00  0.54999999763E+01  0.55000000000E+01  0.51109989000E-03 0. -1.
     -623   -1    0    0    0    0  0.00000000000E+00  0.00000000000E+00  0.93234578044E-11  0.17124000000E+03  0.17124000000E+03 0. -1.
       11    1    1    2    0    0 -0.13635622382E-01  0.52798307682E-02  0.12781626527E-01  0.19427763908E-01  0.51109989000E-03 0. -1.
     -623    1    1    2    0    0 -0.12442258742E-02 -0.86081161197E-02  0.13161743216E-01  0.17124000073E+03  0.17124000000E+03 0. -1.
     -611    1    1    2    0    0  0.12215154604E+00 -0.11066993700E-01  0.42411498526E+01  0.42429230269E+01  0.51109989000E-03 0. -1.
      611    1    1    2    0    0 -0.10727169778E+00  0.14395279051E-01  0.12329067539E+01  0.12376484825E+01  0.51109989000E-03 0.  1.
</event>
<event>
 6   3  0.2312675E+03  0.9118800E+02  0.7818608E-02  0.1180000E+00
       11   -1    0    0    0    0  0.00000000000E+00  0.00000000000E+00  0.54999999763E+01  0.55000000000E+01  0.51109989000E-03 0.  1.
     -623   -1    0    0    0    0  0.00000000000E+00  0.00000000000E+00  0.93234578044E-11  0.17124000000E+03  0.17124000000E+03 0. -1.
       11    1    1    2    0    0 -0.56827068120E-03  0.60860770758E-01  0.77784977913E+00  0.78022746456E+00  0.51109989000E-03 0.  1.
     -623    1    1    2    0    0 -0.62097132504E-01 -0.59381806941E-01  0.28159386136E-02  0.17124002158E+03  0.17124000000E+03 0. -1.
     -611    1    1    2    0    0  0.20610617890E-01  0.15323857763E-03  0.15885571792E+01  0.15886909687E+01  0.51109989000E-03 0. -1.
      611    1    1    2    0    0  0.42054785302E-01 -0.16322023948E-02  0.31307770798E+01  0.31310599888E+01  0.51109989000E-03 0.  1.
</event>
<event>
 6   3  0.2312675E+03  0.9118800E+02  0.7818608E-02  0.1180000E+00
       11   -1    0    0    0    0  0.00000000000E+00  0.00000000000E+00  0.54999999763E+01  0.55000000000E+01  0.51109989000E-03 0. -1.
     -623   -1    0    0    0    0  0.00000000000E+00  0.00000000000E+00  0.93234578044E-11  0.17124000000E+03  0.17124000000E+03 0.  1.
       11    1    1    2    0    0  0.20608899226E-01 -0.79969919244E-02  0.61189916513E+00  0.61229856126E+00  0.51109989000E-03 0. -1.
     -623    1    1    2    0    0  0.30229488406E-01  0.26216646606E-01  0.70428721743E-03  0.17124000468E+03  0.17124000000E+03 0.  1.
     -611    1    1    2    0    0 -0.44101821326E-01 -0.16465145052E-01  0.43561930054E+01  0.43564473867E+01  0.51109989000E-03 0. -1.
      611    1    1    2    0    0 -0.67365663102E-02 -0.17545096306E-02  0.53120351889E+00  0.53124937584E+00  0.51109989000E-03 0.  1.
</event>
<event>
 6   3  0.2312675E+03  0.9118800E+02  0.7818608E-02  0.1180000E+00
       11   -1    0    0    0    0  0.00000000000E+00  0.00000000000E+00  0.54999999763E+01  0.55000000000E+01  0.51109989000E-03 0. -1.
     -623   -1    0    0    0    0  0.00000000000E+00  0.00000000000E+00  0.93234578044E-11  0.17124000000E+03  0.17124000000E+03 0. -1.
       11    1    1    2    0    0  0.65155211543E-02 -0.11778032372E-03  0.60412722999E-01  0.60765320796E-01  0.51109989000E-03 0. -1.
     -623    1    1    2    0    0 -0.39979561188E-02  0.36497273565E-02  0.12461921318E-02  0.17124000009E+03  0.17124000000E+03 0. -1.
     -611    1    1    2    0    0 -0.42003877691E-01  0.14008608302E-01  0.39987967300E+01  0.39990418997E+01  0.51109989000E-03 0. -1.
      611    1    1    2    0    0  0.39486312656E-01 -0.17540555335E-01  0.14395443312E+01  0.14401926895E+01  0.51109989000E-03 0.  1.
</event>
<event>
 6   3  0.2312675E+03  0.9118800E+02  0.7818608E-02  0.1180000E+00
       11   -1    0    0    0    0  0.00000000000E+00  0.00000000000E+00  0.54999999763E+01  0.55000000000E+01  0.51109989000E-03 0. -1.
     -623   -1    0    0    0    0  0.00000000000E+00  0.00000000000E+00  0.93234578044E-11  0.17124000000E+03  0.17124000000E+03 0.  1.
       11    1    1    2    0    0 -0.14366173655E-01 -0.23789404748E-01  0.87836558324E+00  0.87880525816E+00  0.51109989000E-03 0. -1.
     -623    1    1    2    0    0 -0.39558618217E-01 -0.75528504224E-02  0.86578220126E-03  0.17124000474E+03  0.17124000000E+03 0.  1.
     -611    1    1    2    0    0  0.23323762683E-01  0.13876225224E-01  0.19482887272E+01  0.19484778093E+01  0.51109989000E-03 0. -1.
      611    1    1    2    0    0  0.30601029206E-01  0.17466029955E-01  0.26724798851E+01  0.26727121960E+01  0.51109989000E-03 0.  1.
</event>
<event>
 6   3  0.2312675E+03  0.9118800E+02  0.7818608E-02  0.1180000E+00
       11   -1    0    0    0    0  0.00000000000E+00  0.00000000000E+00  0.54999999763E+01  0.55000000000E+01  0.51109989000E-03 0.  1.
     -623   -1    0    0    0    0  0.00000000000E+00  0.00000000000E+00  0.93234578044E-11  0.17124000000E+03  0.17124000000E+03 0.  1.
       11    1    1    2    0    0  0.37692931174E-01  0.31079543701E-02  0.10892143946E+01  0.10898709442E+01  0.51109989000E-03 0.  1.
     -623    1    1    2    0    0  0.82814935037E-02  0.19200791604E-02  0.90056299876E-03  0.17124000021E+03  0.17124000000E+03 0.  1.
     -611    1    1    2    0    0 -0.88461451819E-02 -0.49320176014E-03  0.74181518864E+00  0.74186827190E+00  0.51109989000E-03 0. -1.
      611    1    1    2    0    0 -0.37128279490E-01 -0.45348317698E-02  0.36680698294E+01  0.36682605699E+01  0.51109989000E-03 0.  1.
</event>
<event>
 6   3  0.2312675E+03  0.9118800E+02  0.7818608E-02  0.1180000E+00
       11   -1    0    0    0    0  0.00000000000E+00  0.00000000000E+00  0.54999999763E+01  0.55000000000E+01  0.51109989000E-03 0. -1.
     -623   -1    0    0    0    0  0.00000000000E+00  0.00000000000E+00  0.93234578044E-11  0.17124000000E+03  0.17124000000E+03 0.  1.
       11    1    1    2    0    0 -0.28412725160E-01 -0.69324338509E-02  0.43986649837E+00  0.44083799655E+00  0.51109989000E-03 0. -1.
     -623    1    1    2    0    0 -0.57502597149E-01  0.42908742775E-01  0.20341836743E-02  0.17124001504E+03  0.17124000000E+03 0.  1.
     -611    1    1    2    0    0  0.65659675180E-01 -0.50540189681E-02  0.33590418057E+01  0.33596873143E+01  0.51109989000E-03 0. -1.
      611    1    1    2    0    0  0.20255647128E-01 -0.30922289955E-01  0.16990574884E+01  0.16994596463E+01  0.51109989000E-03 0.  1.
</event>
<event>
 6   3  0.2312675E+03  0.9118800E+02  0.7818608E-02  0.1180000E+00
       11   -1    0    0    0    0  0.00000000000E+00  0.00000000000E+00  0.54999999763E+01  0.55000000000E+01  0.51109989000E-03 0.  1.
     -623   -1    0    0    0    0  0.00000000000E+00  0.00000000000E+00  0.93234578044E-11  0.17124000000E+03  0.17124000000E+03 0. -1.
       11    1    1    2    0    0 -0.97949956171E-03 -0.52978393310E-03  0.52034862930E-01  0.52049286966E-01  0.51109989000E-03 0.  1.
     -623    1    1    2    0    0  0.67676263379E-01  0.33835294129E-01  0.54135019284E-03  0.17124001672E+03  0.17124000000E+03 0. -1.
     -611    1    1    2    0    0 -0.22615192872E-01 -0.11569377032E-01  0.18613559857E+01  0.18615293885E+01  0.51109989000E-03 0.  1.
      611    1    1    2    0    0 -0.44081570929E-01 -0.21736133156E-01  0.35860677760E+01  0.35864046062E+01  0.51109989000E-03 0.  1.
</event>
<event>
 6   3  0.2312675E+03  0.9118800E+02  0.7818608E-02  0.1180000E+00
       11   -1    0    0    0    0  0.00000000000E+00  0.00000000000E+00  0.54999999763E+01  0.55000000000E+01  0.51109989000E-03 0. -1.
     -623   -1    0    0    0    0  0.00000000000E+00  0.00000000000E+00  0.93234578044E-11  0.17124000000E+03  0.17124000000E+03 0.  1.
       11    1    1    2    0    0  0.18463698838E-02 -0.27556900274E-02  0.90914336161E-01  0.90976264223E-01  0.51109989000E-03 0. -1.
     -623    1    1    2    0    0  0.64779926382E-01  0.44199395292E-01  0.64971067706E-03  0.17124001796E+03  0.17124000000E+03 0.  1.
     -611    1    1    2    0    0 -0.49463283193E-01 -0.31137417454E-01  0.40991150017E+01  0.40995317066E+01  0.51109989000E-03 0. -1.
      611    1    1    2    0    0 -0.17163013077E-01 -0.10306287811E-01  0.13093209279E+01  0.13094740708E+01  0.51109989000E-03 0.  1.
</event>
<event>
 6   3  0.2312675E+03  0.9118800E+02  0.7818608E-02  0.1180000E+00
       11   -1    0    0    0    0  0.00000000000E+00  0.00000000000E+00  0.54999999763E+01  0.55000000000E+01  0.51109989000E-03 0.  1.
     -623   -1    0    0    0    0  0.00000000000E+00  0.00000000000E+00  0.93234578044E-11  0.17124000000E+03  0.17124000000E+03 0. -1.
       11    1    1    2    0    0 -0.12107663849E-02 -0.39741780553E-02  0.16066630328E-01  0.16602947921E-01  0.51109989000E-03 0.  1.
     -623    1    1    2    0    0 -0.10446297859E-02  0.32428779559E-02  0.15203817530E-02  0.17124000004E+03  0.17124000000E+03 0. -1.
     -611    1    1    2    0    0 -0.46292537388E-01  0.83189092856E-02  0.16539913106E+01  0.16546600013E+01  0.51109989000E-03 0. -1.
      611    1    1    2    0    0  0.48547933559E-01 -0.75876091862E-02  0.38284216537E+01  0.38287370102E+01  0.51109989000E-03 0.  1.
</event>
<event>
 6   3  0.2312675E+03  0.9118800E+02  0.7818608E-02  0.1180000E+00
       11   -1    0    0    0    0  0.00000000000E+00  0.00000000000E+00  0.54999999763E+01  0.55000000000E+01  0.51109989000E-03 0. -1.
     -623   -1    0    0    0    0  0.00000000000E+00  0.00000000000E+00  0.93234578044E-11  0.17124000000E+03  0.17124000000E+03 0. -1.
       11    1    1    2    0    0 -0.20102208844E-01  0.16773495587E-02  0.50345958820E+00  0.50386380151E+00  0.51109989000E-03 0. -1.
     -623    1    1    2    0    0 -0.48193095845E-01 -0.16197891500E-01  0.89980225774E-03  0.17124000755E+03  0.17124000000E+03 0. -1.
     -611    1    1    2    0    0  0.18937206984E-01  0.42366127610E-02  0.13899452202E+01  0.13900807685E+01  0.51109989000E-03 0. -1.
      611    1    1    2    0    0  0.49358097570E-01  0.10283929151E-01  0.36056953558E+01  0.36060478701E+01  0.51109989000E-03 0. -1.
</event>
<event>
 6   3  0.2312675E+03  0.9118800E+02  0.7818608E-02  0.1180000E+00
       11   -1    0    0    0    0  0.00000000000E+00  0.00000000000E+00  0.54999999763E+01  0.55000000000E+01  0.51109989000E-03 0.  1.
     -623   -1    0    0    0    0  0.00000000000E+00  0.00000000000E+00  0.93234578044E-11  0.17124000000E+03  0.17124000000E+03 0.  1.
       11    1    1    2    0    0 -0.34116246627E-02 -0.14244712492E-01  0.35382779751E+00  0.35413122219E+00  0.51109989000E-03 0.  1.
     -623    1    1    2    0    0 -0.68613841783E-02  0.21183394201E-01  0.76320139852E-03  0.17124000145E+03  0.17124000000E+03 0.  1.
     -611    1    1    2    0    0  0.34728412178E-01  0.12071647449E-01  0.32073809484E+01  0.32075917129E+01  0.51109989000E-03 0.  1.
      611    1    1    2    0    0 -0.24455403337E-01 -0.19010329158E-01  0.19380280292E+01  0.19382756158E+01  0.51109989000E-03 0. -1.
</event>
<event>
 6   3  0.2312675E+03  0.9118800E+02  0.7818608E-02  0.1180000E+00
       11   -1    0    0    0    0  0.00000000000E+00  0.00000000000E+00  0.54999999763E+01  0.55000000000E+01  0.51109989000E-03 0. -1.
     -623   -1    0    0    0    0  0.00000000000E+00  0.00000000000E+00  0.93234578044E-11  0.17124000000E+03  0.17124000000E+03 0. -1.
       11    1    1    2    0    0 -0.64773325890E-02  0.18853235701E-02  0.54150772558E-02  0.86657121586E-02  0.51109989000E-03 0. -1.
     -623    1    1    2    0    0  0.71735025220E-02  0.21225058933E-02  0.55596361557E-02  0.17124000025E+03  0.17124000000E+03 0. -1.
     -611    1    1    2    0    0  0.63670137301E-01  0.27303003703E-02  0.43531258752E+01  0.43535923658E+01  0.51109989000E-03 0. -1.
      611    1    1    2    0    0 -0.64366307234E-01 -0.67381298337E-02  0.11358993877E+01  0.11377416684E+01  0.51109989000E-03 0.  1.
</event>
<event>
 6   3  0.2312675E+03  0.9118800E+02  0.7818608E-02  0.1180000E+00
       11   -1    0    0    0    0  0.00000000000E+00  0.00000000000E+00  0.54999999763E+01  0.55000000000E+01  0.51109989000E-03 0.  1.
     -623   -1    0    0    0    0  0.00000000000E+00  0.00000000000E+00  0.93234578044E-11  0.17124000000E+03  0.17124000000E+03 0. -1.
       11    1    1    2    0    0 -0.55680209564E-01  0.16098787813E-01  0.93586103502E+00  0.93765430452E+00  0.51109989000E-03 0.  1.
     -623    1    1    2    0    0 -0.11283800288E-02 -0.63542725738E-02  0.21576475231E-02  0.17124000014E+03  0.17124000000E+03 0. -1.
     -611    1    1    2    0    0  0.24854592856E-01 -0.39244750866E-02  0.19912718617E+01  0.19914309028E+01  0.51109989000E-03 0.  1.
      611    1    1    2    0    0  0.31953996753E-01 -0.58200401559E-02  0.25707094334E+01  0.25709146588E+01  0.51109989000E-03 0.  1.
</event>
<event>
 6   3  0.2312675E+03  0.9118800E+02  0.7818608E-02  0.1180000E+00
       11   -1    0    0    0    0  0.00000000000E+00  0.00000000000E+00  0.54999999763E+01  0.55000000000E+01  0.51109989000E-03 0.  1.
     -623   -1    0    0    0    0  0.00000000000E+00  0.00000000000E+00  0.93234578044E-11  0.17124000000E+03  0.17124000000E+03 0.  1.
       11    1    1    2    0    0  0.29369915729E-03  0.60795549056E-02  0.13704424435E-01  0.15003990111E-01  0.51109989000E-03 0.  1.
     -623    1    1    2    0    0  0.97543544773E-02 -0.12177347239E-02  0.29946005967E-02  0.17124000031E+03  0.17124000000E+03 0.  1.
     -611    1    1    2    0    0  0.62566369644E-01  0.35716124263E-02  0.22839915806E+01  0.22848512224E+01  0.51109989000E-03 0. -1.
      611    1    1    2    0    0 -0.72614423278E-01 -0.84334326080E-02  0.31993093706E+01  0.32001444791E+01  0.51109989000E-03 0.  1.
</event>
<event>
 6   3  0.2312675E+03  0.9118800E+02  0.7818608E-02  0.1180000E+00
       11   -1    0    0    0    0  0.00000000000E+00  0.00000000000E+00  0.54999999763E+01  0.55000000000E+01  0.51109989000E-03 0.  1.
     -623   -1    0    0    0    0  0.00000000000E+00  0.00000000000E+00  0.93234578044E-11  0.17124000000E+03  0.17124000000E+03 0. -1.
       11    1    1    2    0    0  0.51296034683E-01  0.42022158924E-01  0.82386054753E+00  0.82652501959E+00  0.51109989000E-03 0.  1.
     -623    1    1    2    0    0  0.90135572779E-03 -0.24555440864E-01  0.29917151360E-02  0.17124000179E+03  0.17124000000E+03 0. -1.
     -611    1    1    2    0    0 -0.57166075195E-02 -0.91438086267E-03  0.50055697163E+00  0.50059070983E+00  0.51109989000E-03 0. -1.
      611    1    1    2    0    0 -0.46480782899E-01 -0.16552337200E-01  0.41725907427E+01  0.41728824822E+01  0.51109989000E-03 0.  1.
</event>
<event>
 6   3  0.2312675E+03  0.9118800E+02  0.7818608E-02  0.1180000E+00
       11   -1    0    0    0    0  0.00000000000E+00  0.00000000000E+00  0.54999999763E+01  0.55000000000E+01  0.51109989000E-03 0. -1.
     -623   -1    0    0    0    0  0.00000000000E+00  0.00000000000E+00  0.93234578044E-11  0.17124000000E+03  0.17124000000E+03 0.  1.
       11    1    1    2    0    0 -0.37340853225E-04 -0.28949331652E-01  0.60978138218E-01  0.67503035199E-01  0.51109989000E-03 0. -1.
     -623    1    1    2    0    0 -0.12366778606E-01 -0.30224026774E-02  0.91030582920E-02  0.17124000072E+03  0.17124000000E+03 0.  1.
     -611    1    1    2    0    0 -0.48309885221E-01  0.70885295696E-01  0.38199892611E+01  0.38209523402E+01  0.51109989000E-03 0. -1.
      611    1    1    2    0    0  0.60714004680E-01 -0.38913561366E-01  0.16099295186E+01  0.16115439093E+01  0.51109989000E-03 0.  1.
</event>
<event>
 6   3  0.2312675E+03  0.9118800E+02  0.7818608E-02  0.1180000E+00
       11   -1    0    0    0    0  0.00000000000E+00  0.00000000000E+00  0.54999999763E+01  0.55000000000E+01  0.51109989000E-03 0. -1.
     -623   -1    0    0    0    0  0.00000000000E+00  0.00000000000E+00  0.93234578044E-11  0.17124000000E+03  0.17124000000E+03 0.  1.
       11    1    1    2    0    0 -0.17086606513E-03  0.99003546769E-02  0.32987727760E+00  0.33002625004E+00  0.51109989000E-03 0. -1.
     -623    1    1    2    0    0 -0.56205172756E-01  0.25879874688E-01  0.59165183435E-03  0.17124001118E+03  0.17124000000E+03 0.  1.
     -611    1    1    2    0    0  0.48525452924E-01 -0.31092690842E-01  0.44415618723E+01  0.44419357944E+01  0.51109989000E-03 0. -1.
      611    1    1    2    0    0  0.78505859013E-02 -0.46875385258E-02  0.72796917494E+00  0.72802677533E+00  0.51109989000E-03 0. -1.
</event>
<event>
 6   3  0.2312675E+03  0.9118800E+02  0.7818608E-02  0.1180000E+00
       11   -1    0    0    0    0  0.00000000000E+00  0.00000000000E+00  0.54999999763E+01  0.55000000000E+01  0.51109989000E-03 0. -1.
     -623   -1    0    0    0    0  0.00000000000E+00  0.00000000000E+00  0.93234578044E-11  0.17124000000E+03  0.17124000000E+03 0.  1.
       11    1    1    2    0    0  0.71667964557E-02  0.44061158638E-02  0.15971752242E+00  0.15993975434E+00  0.51109989000E-03 0. -1.
     -623    1    1    2    0    0 -0.26587872972E-02 -0.11746826693E-02  0.64926965294E-03  0.17124000003E+03  0.17124000000E+03 0.  1.
     -611    1    1    2    0    0 -0.30459395839E-01 -0.20124441632E-01  0.29932355145E+01  0.29934581798E+01  0.51109989000E-03 0.  1.
      611    1    1    2    0    0  0.25951386680E-01  0.16893008438E-01  0.23463976697E+01  0.23466020399E+01  0.51109989000E-03 0. -1.
</event>
<event>
 6   3  0.2312675E+03  0.9118800E+02  0.7818608E-02  0.1180000E+00
       11   -1    0    0    0    0  0.00000000000E+00  0.00000000000E+00  0.54999999763E+01  0.55000000000E+01  0.51109989000E-03 0. -1.
     -623   -1    0    0    0    0  0.00000000000E+00  0.00000000000E+00  0.93234578044E-11  0.17124000000E+03  0.17124000000E+03 0. -1.
       11    1    1    2    0    0  0.77295852239E-01  0.82449324147E-01  0.10644436259E+01  0.10704265663E+01  0.51109989000E-03 0. -1.
     -623    1    1    2    0    0  0.99757977071E-02 -0.55103322805E-02  0.75130789868E-02  0.17124000054E+03  0.17124000000E+03 0. -1.
     -611    1    1    2    0    0 -0.74974571798E-01 -0.66538015484E-01  0.38546635318E+01  0.38559667657E+01  0.51109989000E-03 0. -1.
      611    1    1    2    0    0 -0.12297078135E-01 -0.10400976371E-01  0.57337973893E+00  0.57360612330E+00  0.51109989000E-03 0. -1.
</event>
<event>
 6   3  0.2312675E+03  0.9118800E+02  0.7818608E-02  0.1180000E+00
       11   -1    0    0    0    0  0.00000000000E+00  0.00000000000E+00  0.54999999763E+01  0.55000000000E+01  0.51109989000E-03 0. -1.
     -623   -1    0    0    0    0  0.00000000000E+00  0.00000000000E+00  0.93234578044E-11  0.17124000000E+03  0.17124000000E+03 0. -1.
       11    1    1    2    0    0  0.12909895952E-01  0.45683950013E-02  0.10197850627E+01  0.10198771353E+01  0.51109989000E-03 0. -1.
     -623    1    1    2    0    0 -0.67676860382E-01 -0.31742396256E-01  0.52656611221E-03  0.17124001632E+03  0.17124000000E+03 0. -1.
     -611    1    1    2    0    0  0.83195916559E-02  0.30860115820E-02  0.65159209185E+00  0.65165271000E+00  0.51109989000E-03 0.  1.
      611    1    1    2    0    0  0.46447372747E-01  0.24087989660E-01  0.38280962534E+01  0.38284538363E+01  0.51109989000E-03 0. -1.
</event>
<event>
 6   3  0.2312675E+03  0.9118800E+02  0.7818608E-02  0.1180000E+00
       11   -1    0    0    0    0  0.00000000000E+00  0.00000000000E+00  0.54999999763E+01  0.55000000000E+01  0.51109989000E-03 0.  1.
     -623   -1    0    0    0    0  0.00000000000E+00  0.00000000000E+00  0.93234578044E-11  0.17124000000E+03  0.17124000000E+03 0.  1.
       11    1    1    2    0    0 -0.14167320023E-01 -0.77029779487E-02  0.86206178081E+00  0.86221274867E+00  0.51109989000E-03 0.  1.
     -623    1    1    2    0    0  0.63367576415E-01  0.28318017959E-02  0.42653281038E-03  0.17124001175E+03  0.17124000000E+03 0.  1.
     -611    1    1    2    0    0 -0.20795522915E-01  0.22581140550E-02  0.19043917832E+01  0.19045067283E+01  0.51109989000E-03 0.  1.
      611    1    1    2    0    0 -0.28404733424E-01  0.26130620930E-02  0.27331198746E+01  0.27332687696E+01  0.51109989000E-03 0.  1.
</event>
<event>
 6   3  0.2312675E+03  0.9118800E+02  0.7818608E-02  0.1180000E+00
       11   -1    0    0    0    0  0.00000000000E+00  0.00000000000E+00  0.54999999763E+01  0.55000000000E+01  0.51109989000E-03 0. -1.
     -623   -1    0    0    0    0  0.00000000000E+00  0.00000000000E+00  0.93234578044E-11  0.17124000000E+03  0.17124000000E+03 0. -1.
       11    1    1    2    0    0  0.46940010495E-01  0.15688011107E-01  0.43978352890E+00  0.44255993017E+00  0.51109989000E-03 0. -1.
     -623    1    1    2    0    0  0.14725069753E-01  0.81990505975E-03  0.31911258180E-02  0.17124000066E+03  0.17124000000E+03 0. -1.
     -611    1    1    2    0    0 -0.26448530938E-01 -0.20740146833E-02  0.22295821744E+01  0.22297400656E+01  0.51109989000E-03 0.  1.
      611    1    1    2    0    0 -0.35216549310E-01 -0.14433901484E-01  0.28274431472E+01  0.28276993395E+01  0.51109989000E-03 0. -1.
</event>
<event>
 6   3  0.2312675E+03  0.9118800E+02  0.7818608E-02  0.1180000E+00
       11   -1    0    0    0    0  0.00000000000E+00  0.00000000000E+00  0.54999999763E+01  0.55000000000E+01  0.51109989000E-03 0. -1.
     -623   -1    0    0    0    0  0.00000000000E+00  0.00000000000E+00  0.93234578044E-11  0.17124000000E+03  0.17124000000E+03 0. -1.
       11    1    1    2    0    0  0.27603608470E-01 -0.55620294479E-02  0.31059918564E+00  0.31187338892E+00  0.51109989000E-03 0. -1.
     -623    1    1    2    0    0 -0.68287987954E-02  0.24767391047E-01  0.23992726675E-02  0.17124000194E+03  0.17124000000E+03 0. -1.
     -611    1    1    2    0    0  0.38411120161E-01  0.11849681928E-01  0.16336443638E+01  0.16341389163E+01  0.51109989000E-03 0.  1.
      611    1    1    2    0    0 -0.59185929835E-01 -0.31055043527E-01  0.35533571541E+01  0.35539857507E+01  0.51109989000E-03 0. -1.
</event>
<event>
 6   3  0.2312675E+03  0.9118800E+02  0.7818608E-02  0.1180000E+00
       11   -1    0    0    0    0  0.00000000000E+00  0.00000000000E+00  0.54999999763E+01  0.55000000000E+01  0.51109989000E-03 0. -1.
     -623   -1    0    0    0    0  0.00000000000E+00  0.00000000000E+00  0.93234578044E-11  0.17124000000E+03  0.17124000000E+03 0. -1.
       11    1    1    2    0    0 -0.11223263681E+00  0.48202407327E-01  0.35414588810E+00  0.37461875035E+00  0.51109989000E-03 0. -1.
     -623    1    1    2    0    0 -0.11798964014E-01 -0.18978083833E-01  0.22151279443E-01  0.17124000289E+03  0.17124000000E+03 0. -1.
     -611    1    1    2    0    0  0.93234292890E-01 -0.25217345093E-01  0.33074553497E+01  0.33088653190E+01  0.51109989000E-03 0. -1.
      611    1    1    2    0    0  0.30797307930E-01 -0.40069784012E-02  0.18162474590E+01  0.18165130397E+01  0.51109989000E-03 0.  1.
</event>
<event>
 6   3  0.2312675E+03  0.9118800E+02  0.7818608E-02  0.1180000E+00
       11   -1    0    0    0    0  0.00000000000E+00  0.00000000000E+00  0.54999999763E+01  0.55000000000E+01  0.51109989000E-03 0. -1.
     -623   -1    0    0    0    0  0.00000000000E+00  0.00000000000E+00  0.93234578044E-11  0.17124000000E+03  0.17124000000E+03 0.  1.
       11    1    1    2    0    0  0.12132965899E-01  0.19593759772E-01  0.16376331180E+00  0.16537777298E+00  0.51109989000E-03 0. -1.
     -623    1    1    2    0    0 -0.79963451821E-01 -0.43722614965E-01  0.33253022049E-02  0.17124002428E+03  0.17124000000E+03 0.  1.
     -611    1    1    2    0    0  0.98416720294E-01  0.15324697927E-01  0.44458452796E+01  0.44469608958E+01  0.51109989000E-03 0. -1.
      611    1    1    2    0    0 -0.30586234372E-01  0.88041572655E-02  0.88706608261E+00  0.88763704691E+00  0.51109989000E-03 0.  1.
</event>
<event>
 6   3  0.2312675E+03  0.9118800E+02  0.7818608E-02  0.1180000E+00
       11   -1    0    0    0    0  0.00000000000E+00  0.00000000000E+00  0.54999999763E+01  0.55000000000E+01  0.51109989000E-03 0. -1.
     -623   -1    0    0    0    0  0.00000000000E+00  0.00000000000E+00  0.93234578044E-11  0.17124000000E+03  0.17124000000E+03 0. -1.
       11    1    1    2    0    0  0.27269515511E-01 -0.76086970415E-02  0.59753672900E+00  0.59820725712E+00  0.51109989000E-03 0. -1.
     -623    1    1    2    0    0  0.50542114564E-02 -0.84964781111E-02  0.13066634910E-02  0.17124000029E+03  0.17124000000E+03 0. -1.
     -611    1    1    2    0    0  0.21589296095E-01 -0.19499319592E-02  0.15878785466E+01  0.15880265867E+01  0.51109989000E-03 0.  1.
      611    1    1    2    0    0 -0.53913023063E-01  0.18055107112E-01  0.33132780373E+01  0.33137658660E+01  0.51109989000E-03 0. -1.
</event>
<event>
 6   3  0.2312675E+03  0.9118800E+02  0.7818608E-02  0.1180000E+00
       11   -1    0    0    0    0  0.00000000000E+00  0.00000000000E+00  0.54999999763E+01  0.55000000000E+01  0.51109989000E-03 0. -1.
     -623   -1    0    0    0    0  0.00000000000E+00  0.00000000000E+00  0.93234578044E-11  0.17124000000E+03  0.17124000000E+03 0.  1.
       11    1    1    2    0    0 -0.30922925807E-01 -0.11484125610E+00  0.36540131604E+00  0.38426959862E+00  0.51109989000E-03 0. -1.
     -623    1    1    2    0    0 -0.44562026392E-01  0.14021549906E-01  0.20429324656E-01  0.17124000759E+03  0.17124000000E+03 0.  1.
     -611    1    1    2    0    0  0.12929706154E-01  0.14483019544E-01  0.82417043729E+00  0.82439923950E+00  0.51109989000E-03 0. -1.
      611    1    1    2    0    0  0.62555246041E-01  0.86336686647E-01  0.42899988980E+01  0.42913235707E+01  0.51109989000E-03 0. -1.
</event>
<event>
 6   3  0.2312675E+03  0.9118800E+02  0.7818608E-02  0.1180000E+00
       11   -1    0    0    0    0  0.00000000000E+00  0.00000000000E+00  0.54999999763E+01  0.55000000000E+01  0.51109989000E-03 0.  1.
     -623   -1    0    0    0    0  0.00000000000E+00  0.00000000000E+00  0.93234578044E-11  0.17124000000E+03  0.17124000000E+03 0. -1.
       11    1    1    2    0    0  0.49369527546E-01  0.66400686260E-01  0.64864096949E+00  0.65389736956E+00  0.51109989000E-03 0.  1.
     -623    1    1    2    0    0  0.20249862155E-02 -0.43557078749E-02  0.59265954976E-02  0.17124000017E+03  0.17124000000E+03 0. -1.
     -611    1    1    2    0    0 -0.24092839007E-01 -0.30112619919E-01  0.23266260358E+01  0.23269456819E+01  0.51109989000E-03 0.  1.
      611    1    1    2    0    0 -0.27301674712E-01 -0.31932358415E-01  0.25188063714E+01  0.25191567746E+01  0.51109989000E-03 0.  1.
</event>
<event>
 6   3  0.2312675E+03  0.9118800E+02  0.7818608E-02  0.1180000E+00
       11   -1    0    0    0    0  0.00000000000E+00  0.00000000000E+00  0.54999999763E+01  0.55000000000E+01  0.51109989000E-03 0. -1.
     -623   -1    0    0    0    0  0.00000000000E+00  0.00000000000E+00  0.93234578044E-11  0.17124000000E+03  0.17124000000E+03 0.  1.
       11    1    1    2    0    0 -0.50967339175E-02  0.10559939164E-01  0.25810300174E+00  0.25836971522E+00  0.51109989000E-03 0. -1.
     -623    1    1    2    0    0 -0.92566164538E-02  0.65132713449E-03  0.64038296785E-03  0.17124000025E+03  0.17124000000E+03 0.  1.
     -611    1    1    2    0    0  0.37040833929E-01 -0.14201688330E-01  0.32913232901E+01  0.32915623908E+01  0.51109989000E-03 0. -1.
      611    1    1    2    0    0 -0.22687483558E-01  0.29904220316E-02  0.19499333016E+01  0.19500676415E+01  0.51109989000E-03 0.  1.
</event>
<event>
 6   3  0.2312675E+03  0.9118800E+02  0.7818608E-02  0.1180000E+00
       11   -1    0    0    0    0  0.00000000000E+00  0.00000000000E+00  0.54999999763E+01  0.55000000000E+01  0.51109989000E-03 0.  1.
     -623   -1    0    0    0    0  0.00000000000E+00  0.00000000000E+00  0.93234578044E-11  0.17124000000E+03  0.17124000000E+03 0.  1.
       11    1    1    2    0    0  0.85381969667E-02 -0.16985293901E-01  0.71182977329E-01  0.73679566373E-01  0.51109989000E-03 0.  1.
     -623    1    1    2    0    0  0.17021268214E-02 -0.55253364065E-02  0.34166504882E-02  0.17124000013E+03  0.17124000000E+03 0.  1.
     -611    1    1    2    0    0  0.36566566344E-01  0.18403496552E-01  0.12820268376E+01  0.12826803484E+01  0.51109989000E-03 0. -1.
      611    1    1    2    0    0 -0.46806890132E-01  0.41071337552E-02  0.41433735108E+01  0.41436399536E+01  0.51109989000E-03 0.  1.
</event>
<event>
 6   3  0.2312675E+03  0.9118800E+02  0.7818608E-02  0.1180000E+00
       11   -1    0    0    0    0  0.00000000000E+00  0.00000000000E+00  0.54999999763E+01  0.55000000000E+01  0.51109989000E-03 0. -1.
     -623   -1    0    0    0    0  0.00000000000E+00  0.00000000000E+00  0.93234578044E-11  0.17124000000E+03  0.17124000000E+03 0. -1.
       11    1    1    2    0    0  0.24686956445E-02 -0.13626322038E-01  0.94343988133E+00  0.94354164827E+00  0.51109989000E-03 0. -1.
     -623    1    1    2    0    0 -0.69182751428E-01  0.32767515205E-01  0.64797716288E-03  0.17124001711E+03  0.17124000000E+03 0. -1.
     -611    1    1    2    0    0  0.38011182830E-01 -0.10406858315E-01  0.25361421012E+01  0.25364483380E+01  0.51109989000E-03 0. -1.
      611    1    1    2    0    0  0.28702872987E-01 -0.87343348600E-02  0.20197700188E+01  0.20199929043E+01  0.51109989000E-03 0. -1.
</event>
<event>
 6   3  0.2312675E+03  0.9118800E+02  0.7818608E-02  0.1180000E+00
       11   -1    0    0    0    0  0.00000000000E+00  0.00000000000E+00  0.54999999763E+01  0.55000000000E+01  0.51109989000E-03 0. -1.
     -623   -1    0    0    0    0  0.00000000000E+00  0.00000000000E+00  0.93234578044E-11  0.17124000000E+03  0.17124000000E+03 0. -1.
       11    1    1    2    0    0  0.14545138136E-01 -0.31134651348E-02  0.59541659702E+00  0.59560258557E+00  0.51109989000E-03 0. -1.
     -623    1    1    2    0    0  0.59703801094E-01  0.68989517425E-02  0.76064724403E-03  0.17124001055E+03  0.17124000000E+03 0. -1.
     -611    1    1    2    0    0 -0.22077043102E-01 -0.14070260700E-02  0.13977368885E+01  0.13979120310E+01  0.51109989000E-03 0. -1.
      611    1    1    2    0    0 -0.52171896123E-01 -0.23784605376E-02  0.35060858432E+01  0.35064748345E+01  0.51109989000E-03 0. -1.
</event>
<event>
 6   3  0.2312675E+03  0.9118800E+02  0.7818608E-02  0.1180000E+00
       11   -1    0    0    0    0  0.00000000000E+00  0.00000000000E+00  0.54999999763E+01  0.55000000000E+01  0.51109989000E-03 0.  1.
     -623   -1    0    0    0    0  0.00000000000E+00  0.00000000000E+00  0.93234578044E-11  0.17124000000E+03  0.17124000000E+03 0.  1.
       11    1    1    2    0    0  0.20927853877E-01 -0.75997741578E-02  0.49963782834E+00  0.50013393442E+00  0.51109989000E-03 0.  1.
     -623    1    1    2    0    0  0.35330721982E-01 -0.36782796055E-01  0.10180695856E-02  0.17124000760E+03  0.17124000000E+03 0.  1.
     -611    1    1    2    0    0 -0.26971300069E-01  0.19527858124E-01  0.23222576414E+01  0.23224964160E+01  0.51109989000E-03 0.  1.
      611    1    1    2    0    0 -0.29287275804E-01  0.24854712100E-01  0.26770864382E+01  0.26773620525E+01  0.51109989000E-03 0.  1.
</event>
<event>
 6   3  0.2312675E+03  0.9118800E+02  0.7818608E-02  0.1180000E+00
       11   -1    0    0    0    0  0.00000000000E+00  0.00000000000E+00  0.54999999763E+01  0.55000000000E+01  0.51109989000E-03 0.  1.
     -623   -1    0    0    0    0  0.00000000000E+00  0.00000000000E+00  0.93234578044E-11  0.17124000000E+03  0.17124000000E+03 0.  1.
       11    1    1    2    0    0 -0.57989314707E-02  0.15926267171E-01  0.99995515529E+00  0.10000989188E+01  0.51109989000E-03 0.  1.
     -623    1    1    2    0    0 -0.51777251631E-01  0.15565360735E-01  0.63110436597E-03  0.17124000854E+03  0.17124000000E+03 0.  1.
     -611    1    1    2    0    0  0.27910123187E-01 -0.15918568422E-01  0.21974197157E+01  0.21976546690E+01  0.51109989000E-03 0. -1.
      611    1    1    2    0    0  0.29666059922E-01 -0.15573059487E-01  0.23019940014E+01  0.23022378763E+01  0.51109989000E-03 0.  1.
</event>
<event>
 6   3  0.2312675E+03  0.9118800E+02  0.7818608E-02  0.1180000E+00
       11   -1    0    0    0    0  0.00000000000E+00  0.00000000000E+00  0.54999999763E+01  0.55000000000E+01  0.51109989000E-03 0.  1.
     -623   -1    0    0    0    0  0.00000000000E+00  0.00000000000E+00  0.93234578044E-11  0.17124000000E+03  0.17124000000E+03 0.  1.
       11    1    1    2    0    0  0.25527352372E-01  0.95669455983E-02  0.58197113585E+00  0.58260950589E+00  0.51109989000E-03 0.  1.
     -623    1    1    2    0    0  0.55796858275E-02 -0.11185052043E-01  0.20483995314E-02  0.17124000047E+03  0.17124000000E+03 0.  1.
     -611    1    1    2    0    0 -0.65826856624E-01  0.28905752266E-01  0.26272015098E+01  0.26281850680E+01  0.51109989000E-03 0.  1.
      611    1    1    2    0    0  0.34719818424E-01 -0.27287645822E-01  0.22887789310E+01  0.22892049576E+01  0.51109989000E-03 0. -1.
</event>
<event>
 6   3  0.2312675E+03  0.9118800E+02  0.7818608E-02  0.1180000E+00
       11   -1    0    0    0    0  0.00000000000E+00  0.00000000000E+00  0.54999999763E+01  0.55000000000E+01  0.51109989000E-03 0. -1.
     -623   -1    0    0    0    0  0.00000000000E+00  0.00000000000E+00  0.93234578044E-11  0.17124000000E+03  0.17124000000E+03 0.  1.
       11    1    1    2    0    0  0.11660655522E+00  0.24200119110E-02  0.30950744729E+00  0.33075378506E+00  0.51109989000E-03 0. -1.
     -623    1    1    2    0    0 -0.35159044636E-02 -0.56022925780E-01  0.22774289194E-01  0.17124001071E+03  0.17124000000E+03 0.  1.
     -611    1    1    2    0    0 -0.81510382266E-01  0.39566504464E-01  0.36652294322E+01  0.36663492063E+01  0.51109989000E-03 0.  1.
      611    1    1    2    0    0 -0.31580268479E-01  0.14036409399E-01  0.15024888070E+01  0.15028862933E+01  0.51109989000E-03 0. -1.
</event>
<event>
 6   3  0.2312675E+03  0.9118800E+02  0.7818608E-02  0.1180000E+00
       11   -1    0    0    0    0  0.00000000000E+00  0.00000000000E+00  0.54999999763E+01  0.55000000000E+01  0.51109989000E-03 0.  1.
     -623   -1    0    0    0    0  0.00000000000E+00  0.00000000000E+00  0.93234578044E-11  0.17124000000E+03  0.17124000000E+03 0.  1.
       11    1    1    2    0    0  0.13835224497E-02  0.53825253124E-02  0.18800426631E+00  0.18808708378E+00  0.51109989000E-03 0.  1.
     -623    1    1    2    0    0  0.21568700305E-03 -0.84842150961E-03  0.17202444622E-02  0.17124000001E+03  0.17124000000E+03 0.  1.
     -611    1    1    2    0    0  0.52942056193E-01 -0.24824356380E-01  0.38984660990E+01  0.38989046277E+01  0.51109989000E-03 0.  1.
      611    1    1    2    0    0 -0.54541265646E-01  0.20290252578E-01  0.14118093665E+01  0.14130082776E+01  0.51109989000E-03 0. -1.
</event>
<event>
 6   3  0.2312675E+03  0.9118800E+02  0.7818608E-02  0.1180000E+00
       11   -1    0    0    0    0  0.00000000000E+00  0.00000000000E+00  0.54999999763E+01  0.55000000000E+01  0.51109989000E-03 0. -1.
     -623   -1    0    0    0    0  0.00000000000E+00  0.00000000000E+00  0.93234578044E-11  0.17124000000E+03  0.17124000000E+03 0.  1.
       11    1    1    2    0    0 -0.45881757791E-03 -0.27226234174E-02  0.44590286778E-02  0.52694735685E-02  0.51109989000E-03 0. -1.
     -623    1    1    2    0    0 -0.22975234411E-03  0.65779035918E-03  0.15017812516E-02  0.17124000001E+03  0.17124000000E+03 0.  1.
     -611    1    1    2    0    0  0.39770229771E-01  0.22751218466E-02  0.16026802890E+01  0.16031753545E+01  0.51109989000E-03 0.  1.
      611    1    1    2    0    0 -0.39081659849E-01 -0.21028878831E-03  0.38913588774E+01  0.38915551640E+01  0.51109989000E-03 0. -1.
</event>
<event>
 6   3  0.2312675E+03  0.9118800E+02  0.7818608E-02  0.1180000E+00
       11   -1    0    0    0    0  0.00000000000E+00  0.00000000000E+00  0.54999999763E+01  0.55000000000E+01  0.51109989000E-03 0. -1.
     -623   -1    0    0    0    0  0.00000000000E+00  0.00000000000E+00  0.93234578044E-11  0.17124000000E+03  0.17124000000E+03 0.  1.
       11    1    1    2    0    0  0.10498115464E+00  0.42402041967E-01  0.88774541923E+00  0.89493640365E+00  0.51109989000E-03 0. -1.
     -623    1    1    2    0    0 -0.14469395744E-01  0.45867127462E-02  0.83213968873E-02  0.17124000087E+03  0.17124000000E+03 0.  1.
     -611    1    1    2    0    0 -0.51652481564E-01 -0.27284283558E-01  0.26333270509E+01  0.26339749485E+01  0.51109989000E-03 0. -1.
      611    1    1    2    0    0 -0.38859277242E-01 -0.19704471111E-01  0.19706061049E+01  0.19710877686E+01  0.51109989000E-03 0. -1.
</event>
<event>
 6   3  0.2312675E+03  0.9118800E+02  0.7818608E-02  0.1180000E+00
       11   -1    0    0    0    0  0.00000000000E+00  0.00000000000E+00  0.54999999763E+01  0.55000000000E+01  0.51109989000E-03 0.  1.
     -623   -1    0    0    0    0  0.00000000000E+00  0.00000000000E+00  0.93234578044E-11  0.17124000000E+03  0.17124000000E+03 0.  1.
       11    1    1    2    0    0 -0.16802819167E-02  0.32801299806E-01  0.16202075443E+00  0.16531707324E+00  0.51109989000E-03 0.  1.
     -623    1    1    2    0    0 -0.53948525704E-02  0.40174038795E-02  0.37859136047E-02  0.17124000017E+03  0.17124000000E+03 0.  1.
     -611    1    1    2    0    0  0.33857235297E-01 -0.27419380783E-01  0.29863836199E+01  0.29867014450E+01  0.51109989000E-03 0. -1.
      611    1    1    2    0    0 -0.26782100810E-01 -0.93993229023E-02  0.23478096883E+01  0.23479813078E+01  0.51109989000E-03 0.  1.
</event>
<event>
 6   3  0.2312675E+03  0.9118800E+02  0.7818608E-02  0.1180000E+00
       11   -1    0    0    0    0  0.00000000000E+00  0.00000000000E+00  0.54999999763E+01  0.55000000000E+01  0.51109989000E-03 0. -1.
     -623   -1    0    0    0    0  0.00000000000E+00  0.00000000000E+00  0.93234578044E-11  0.17124000000E+03  0.17124000000E+03 0.  1.
       11    1    1    2    0    0 -0.18336929992E-01  0.67649624262E-02  0.98410991930E+00  0.98430412079E+00  0.51109989000E-03 0. -1.
     -623    1    1    2    0    0 -0.29181958882E-01 -0.13092727910E-02  0.45572577184E-03  0.17124000249E+03  0.17124000000E+03 0.  1.
     -611    1    1    2    0    0  0.36965170161E-01 -0.71900594789E-02  0.35208105460E+01  0.35210119685E+01  0.51109989000E-03 0. -1.
      611    1    1    2    0    0  0.10553718713E-01  0.17343698436E-02  0.99462378515E+00  0.99468141845E+00  0.51109989000E-03 0. -1.
</event>
<event>
 6   3  0.2312675E+03  0.9118800E+02  0.7818608E-02  0.1180000E+00
       11   -1    0    0    0    0  0.00000000000E+00  0.00000000000E+00  0.54999999763E+01  0.55000000000E+01  0.51109989000E-03 0.  1.
     -623   -1    0    0    0    0  0.00000000000E+00  0.00000000000E+00  0.93234578044E-11  0.17124000000E+03  0.17124000000E+03 0. -1.
       11    1    1    2    0    0  0.12230353407E-01 -0.16724096161E-01  0.62098414520E-01  0.65465649358E-01  0.51109989000E-03 0.  1.
     -623    1    1    2    0    0 -0.88111190406E-01  0.54610253720E-01  0.40606510244E-02  0.17124003142E+03  0.17124000000E+03 0. -1.
     -611    1    1    2    0    0  0.20008199514E-01 -0.98558507114E-02  0.14453354220E+01  0.14455075956E+01  0.51109989000E-03 0.  1.
      611    1    1    2    0    0  0.55872637442E-01 -0.28030306826E-01  0.39885054856E+01  0.39889953270E+01  0.51109989000E-03 0.  1.
</event>
<event>
 6   3  0.2312675E+03  0.9118800E+02  0.7818608E-02  0.1180000E+00
       11   -1    0    0    0    0  0.00000000000E+00  0.00000000000E+00  0.54999999763E+01  0.55000000000E+01  0.51109989000E-03 0.  1.
     -623   -1    0    0    0    0  0.00000000000E+00  0.00000000000E+00  0.93234578044E-11  0.17124000000E+03  0.17124000000E+03 0. -1.
       11    1    1    2    0    0  0.40656214449E-01  0.65204564455E-01  0.89426792323E+00  0.89756333634E+00  0.51109989000E-03 0.  1.
     -623    1    1    2    0    0  0.81143657341E-02 -0.32878595574E-02  0.39709865543E-02  0.17124000027E+03  0.17124000000E+03 0. -1.
     -611    1    1    2    0    0 -0.35332394605E-01 -0.45509108237E-01  0.33941966619E+01  0.33946856553E+01  0.51109989000E-03 0.  1.
      611    1    1    2    0    0 -0.13438185543E-01 -0.16407596615E-01  0.12075644012E+01  0.12077507352E+01  0.51109989000E-03 0. -1.
</event>
<event>
 6   3  0.2312675E+03  0.9118800E+02  0.7818608E-02  0.1180000E+00
       11   -1    0    0    0    0  0.00000000000E+00  0.00000000000E+00  0.54999999763E+01  0.55000000000E+01  0.51109989000E-03 0. -1.
     -623   -1    0    0    0    0  0.00000000000E+00  0.00000000000E+00  0.93234578044E-11  0.17124000000E+03  0.17124000000E+03 0.  1.
       11    1    1    2    0    0 -0.16019557220E-01 -0.82823286052E-02  0.10499969000E-01  0.20874236579E-01  0.51109989000E-03 0. -1.
     -623    1    1    2    0    0 -0.14437028503E-02 -0.12179774065E-01  0.17968343183E-01  0.17124000138E+03  0.17124000000E+03 0.  1.
     -611    1    1    2    0    0 -0.71503763531E-01  0.10247879427E+00  0.13381432068E+01  0.13439651017E+01  0.51109989000E-03 0.  1.
      611    1    1    2    0    0  0.88967023602E-01 -0.82016691600E-01  0.41333884573E+01  0.41351592798E+01  0.51109989000E-03 0. -1.
</event>
<event>
 6   3  0.2312675E+03  0.9118800E+02  0.7818608E-02  0.1180000E+00
       11   -1    0    0    0    0  0.00000000000E+00  0.00000000000E+00  0.54999999763E+01  0.55000000000E+01  0.51109989000E-03 0.  1.
     -623   -1    0    0    0    0  0.00000000000E+00  0.00000000000E+00  0.93234578044E-11  0.17124000000E+03  0.17124000000E+03 0.  1.
       11    1    1    2    0    0  0.30112030347E-01  0.86387298547E-02  0.88188875894E+00  0.88244512939E+00  0.51109989000E-03 0.  1.
     -623    1    1    2    0    0  0.22026496458E-01 -0.13719536458E-01  0.85577008622E-03  0.17124000197E+03  0.17124000000E+03 0.  1.
     -611    1    1    2    0    0 -0.58333780138E-02  0.48394954491E-03  0.51750838172E+00  0.51754173637E+00  0.51109989000E-03 0.  1.
      611    1    1    2    0    0 -0.46305148827E-01  0.45968570623E-02  0.40997470688E+01  0.41000111691E+01  0.51109989000E-03 0.  1.
</event>
<event>
 6   3  0.2312675E+03  0.9118800E+02  0.7818608E-02  0.1180000E+00
       11   -1    0    0    0    0  0.00000000000E+00  0.00000000000E+00  0.54999999763E+01  0.55000000000E+01  0.51109989000E-03 0. -1.
     -623   -1    0    0    0    0  0.00000000000E+00  0.00000000000E+00  0.93234578044E-11  0.17124000000E+03  0.17124000000E+03 0.  1.
       11    1    1    2    0    0 -0.17576981690E-01 -0.27674104431E-01  0.44477191801E+00  0.44597884099E+00  0.51109989000E-03 0. -1.
     -623    1    1    2    0    0  0.75935146475E-01  0.34722590430E-01  0.15694214938E-02  0.17124002036E+03  0.17124000000E+03 0.  1.
     -611    1    1    2    0    0 -0.28891398740E-01 -0.28539928727E-02  0.25233980578E+01  0.25235651126E+01  0.51109989000E-03 0. -1.
      611    1    1    2    0    0 -0.29466766036E-01 -0.41944931254E-02  0.25302605782E+01  0.25304356816E+01  0.51109989000E-03 0. -1.
</event>
<event>
 6   3  0.2312675E+03  0.9118800E+02  0.7818608E-02  0.1180000E+00
       11   -1    0    0    0    0  0.00000000000E+00  0.00000000000E+00  0.54999999763E+01  0.55000000000E+01  0.51109989000E-03 0. -1.
     -623   -1    0    0    0    0  0.00000000000E+00  0.00000000000E+00  0.93234578044E-11  0.17124000000E+03  0.17124000000E+03 0.  1.
       11    1    1    2    0    0  0.62120667401E-01  0.30541988399E-01  0.88880991046E+00  0.89150160322E+00  0.51109989000E-03 0. -1.
     -623    1    1    2    0    0 -0.59646678033E-02  0.38089410930E-02  0.31710015353E-02  0.17124000018E+03  0.17124000000E+03 0.  1.
     -611    1    1    2    0    0 -0.33324673759E-01 -0.25062236187E-01  0.27719233258E+01  0.27722369731E+01  0.51109989000E-03 0. -1.
      611    1    1    2    0    0 -0.22831325838E-01 -0.92886933048E-02  0.18360957384E+01  0.18362612481E+01  0.51109989000E-03 0.  1.
</event>
<event>
 6   3  0.2312675E+03  0.9118800E+02  0.7818608E-02  0.1180000E+00
       11   -1    0    0    0    0  0.00000000000E+00  0.00000000000E+00  0.54999999763E+01  0.55000000000E+01  0.51109989000E-03 0.  1.
     -623   -1    0    0    0    0  0.00000000000E+00  0.00000000000E+00  0.93234578044E-11  0.17124000000E+03  0.17124000000E+03 0.  1.
       11    1    1    2    0    0  0.65134381755E-01 -0.11322184962E-01  0.66997472865E+00  0.67322884505E+00  0.51109989000E-03 0.  1.
     -623    1    1    2    0    0 -0.62632251247E-02  0.12103164489E-01  0.36143059202E-02  0.17124000058E+03  0.17124000000E+03 0.  1.
     -611    1    1    2    0    0 -0.47933293868E-01 -0.10088768329E-02  0.39785694911E+01  0.39788583884E+01  0.51109989000E-03 0. -1.
      611    1    1    2    0    0 -0.10937862766E-01  0.22789730639E-03  0.84784145082E+00  0.84791218633E+00  0.51109989000E-03 0.  1.
</event>
<event>
 6   3  0.2312675E+03  0.9118800E+02  0.7818608E-02  0.1180000E+00
       11   -1    0    0    0    0  0.00000000000E+00  0.00000000000E+00  0.54999999763E+01  0.55000000000E+01  0.51109989000E-03 0. -1.
     -623   -1    0    0    0    0  0.00000000000E+00  0.00000000000E+00  0.93234578044E-11  0.17124000000E+03  0.17124000000E+03 0. -1.
       11    1    1    2    0    0 -0.13470196838E-01  0.12361447823E-01  0.11264446310E+00  0.11411962094E+00  0.51109989000E-03 0. -1.
     -623    1    1    2    0    0  0.42360272135E-03 -0.51099105854E-02  0.27849160526E-02  0.17124000010E+03  0.17124000000E+03 0. -1.
     -611    1    1    2    0    0 -0.47996240227E-01 -0.65484161171E-03  0.34539383673E+01  0.34542719311E+01  0.51109989000E-03 0. -1.
      611    1    1    2    0    0  0.61042834344E-01 -0.65966956256E-02  0.19306322298E+01  0.19316083485E+01  0.51109989000E-03 0.  1.
</event>
<event>
 6   3  0.2312675E+03  0.9118800E+02  0.7818608E-02  0.1180000E+00
       11   -1    0    0    0    0  0.00000000000E+00  0.00000000000E+00  0.54999999763E+01  0.55000000000E+01  0.51109989000E-03 0. -1.
     -623   -1    0    0    0    0  0.00000000000E+00  0.00000000000E+00  0.93234578044E-11  0.17124000000E+03  0.17124000000E+03 0. -1.
       11    1    1    2    0    0  0.15449148141E-01 -0.65240285669E-02  0.57784131928E+00  0.57808484725E+00  0.51109989000E-03 0. -1.
     -623    1    1    2    0    0 -0.69251181787E-01  0.28532941049E-01  0.60370657707E-03  0.17124001638E+03  0.17124000000E+03 0. -1.
     -611    1    1    2    0    0  0.40959134699E-01 -0.17207497130E-01  0.38205390960E+01  0.38207974291E+01  0.51109989000E-03 0. -1.
      611    1    1    2    0    0  0.12842898966E-01 -0.48014153593E-02  0.11010158559E+01  0.11011013440E+01  0.51109989000E-03 0. -1.
</event>
<event>
 6   3  0.2312675E+03  0.9118800E+02  0.7818608E-02  0.1180000E+00
       11   -1    0    0    0    0  0.00000000000E+00  0.00000000000E+00  0.54999999763E+01  0.55000000000E+01  0.51109989000E-03 0.  1.
     -623   -1    0    0    0    0  0.00000000000E+00  0.00000000000E+00  0.93234578044E-11  0.17124000000E+03  0.17124000000E+03 0. -1.
       11    1    1    2    0    0 -0.11916886360E+00 -0.32856242592E-01  0.80627453217E+00  0.81569579696E+00  0.51109989000E-03 0.  1.
     -623    1    1    2    0    0 -0.15942219817E-01 -0.36767416746E-01  0.11893347474E-01  0.17124000510E+03  0.17124000000E+03 0. -1.
     -611    1    1    2    0    0  0.74880539751E-01  0.38254086388E-01  0.26138181961E+01  0.26151704139E+01  0.51109989000E-03 0.  1.
      611    1    1    2    0    0  0.60230543635E-01  0.31369572933E-01  0.20680138994E+01  0.20691286856E+01  0.51109989000E-03 0.  1.
</event>
<event>
 6   3  0.2312675E+03  0.9118800E+02  0.7818608E-02  0.1180000E+00
       11   -1    0    0    0    0  0.00000000000E+00  0.00000000000E+00  0.54999999763E+01  0.55000000000E+01  0.51109989000E-03 0.  1.
     -623   -1    0    0    0    0  0.00000000000E+00  0.00000000000E+00  0.93234578044E-11  0.17124000000E+03  0.17124000000E+03 0.  1.
       11    1    1    2    0    0  0.81527857758E-02  0.65962373312E-02  0.10628867211E-01  0.14940291300E-01  0.51109989000E-03 0.  1.
     -623    1    1    2    0    0 -0.42305467328E-02 -0.59841542653E-02  0.49951526793E-02  0.17124000023E+03  0.17124000000E+03 0.  1.
     -611    1    1    2    0    0  0.40272959617E-01 -0.74981111502E-02  0.22322776252E+01  0.22326535311E+01  0.51109989000E-03 0. -1.
      611    1    1    2    0    0 -0.44195198660E-01  0.68860280843E-02  0.32520983312E+01  0.32524059479E+01  0.51109989000E-03 0.  1.
</event>
<event>
 6   3  0.2312675E+03  0.9118800E+02  0.7818608E-02  0.1180000E+00
       11   -1    0    0    0    0  0.00000000000E+00  0.00000000000E+00  0.54999999763E+01  0.55000000000E+01  0.51109989000E-03 0. -1.
     -623   -1    0    0    0    0  0.00000000000E+00  0.00000000000E+00  0.93234578044E-11  0.17124000000E+03  0.17124000000E+03 0.  1.
       11    1    1    2    0    0  0.13345659213E-01  0.18202068310E-01  0.93262168347E-01  0.95955798045E-01  0.51109989000E-03 0. -1.
     -623    1    1    2    0    0 -0.76370801880E-02  0.38848860787E-02  0.67021944711E-02  0.17124000035E+03  0.17124000000E+03 0.  1.
     -611    1    1    2    0    0  0.64116361835E-01  0.28749340639E-01  0.76923271896E+00  0.77243554397E+00  0.51109989000E-03 0.  1.
      611    1    1    2    0    0 -0.69824940859E-01 -0.50836295027E-01  0.46308028945E+01  0.46316083124E+01  0.51109989000E-03 0. -1.
</event>
<event>
 6   3  0.2312675E+03  0.9118800E+02  0.7818608E-02  0.1180000E+00
       11   -1    0    0    0    0  0.00000000000E+00  0.00000000000E+00  0.54999999763E+01  0.55000000000E+01  0.51109989000E-03 0. -1.
     -623   -1    0    0    0    0  0.00000000000E+00  0.00000000000E+00  0.93234578044E-11  0.17124000000E+03  0.17124000000E+03 0. -1.
       11    1    1    2    0    0 -0.12196872724E-01  0.24150544250E-02 -0.45244486752E-02  0.13241149914E-01  0.51109989000E-03 0. -1.
     -623    1    1    2    0    0 -0.63008869946E-02 -0.13930738472E-01  0.18430134714E-01  0.17124000167E+03  0.17124000000E+03 0. -1.
     -611    1    1    2    0    0 -0.30097979110E-01 -0.89248396721E-02  0.16287235565E+01  0.16290261587E+01  0.51109989000E-03 0.  1.
      611    1    1    2    0    0  0.48595738829E-01  0.20440523719E-01  0.38573707337E+01  0.38577310170E+01  0.51109989000E-03 0. -1.
</event>
<event>
 6   3  0.2312675E+03  0.9118800E+02  0.7818608E-02  0.1180000E+00
       11   -1    0    0    0    0  0.00000000000E+00  0.00000000000E+00  0.54999999763E+01  0.55000000000E+01  0.51109989000E-03 0. -1.
     -623   -1    0    0    0    0  0.00000000000E+00  0.00000000000E+00  0.93234578044E-11  0.17124000000E+03  0.17124000000E+03 0. -1.
       11    1    1    2    0    0 -0.39272214240E-04 -0.25060755201E-03  0.96640932085E-03  0.11222818384E-02  0.51109989000E-03 0.  1.
     -623    1    1    2    0    0 -0.11594627761E-02  0.86807597335E-03  0.83686403692E-03  0.17124000001E+03  0.17124000000E+03 0. -1.
     -611    1    1    2    0    0 -0.35225142922E-01 -0.24558069325E-01  0.26978067372E+01  0.26981485063E+01  0.51109989000E-03 0. -1.
      611    1    1    2    0    0  0.36423877913E-01  0.23940600903E-01  0.28003899658E+01  0.28007292038E+01  0.51109989000E-03 0.  1.
</event>
<event>
 6   3  0.2312675E+03  0.9118800E+02  0.7818608E-02  0.1180000E+00
       11   -1    0    0    0    0  0.00000000000E+00  0.00000000000E+00  0.54999999763E+01  0.55000000000E+01  0.51109989000E-03 0. -1.
     -623   -1    0    0    0    0  0.00000000000E+00  0.00000000000E+00  0.93234578044E-11  0.17124000000E+03  0.17124000000E+03 0. -1.
       11    1    1    2    0    0  0.49270356129E-01 -0.10537662278E-01  0.48944701254E+00  0.49203378911E+00  0.51109989000E-03 0. -1.
     -623    1    1    2    0    0  0.35195378962E-02  0.29555546859E-03  0.28759249624E-02  0.17124000006E+03  0.17124000000E+03 0. -1.
     -611    1    1    2    0    0 -0.35328090717E-01  0.62646287395E-02  0.33892598574E+01  0.33894498022E+01  0.51109989000E-03 0. -1.
      611    1    1    2    0    0 -0.17461803304E-01  0.39774780693E-02  0.16184171809E+01  0.16185163477E+01  0.51109989000E-03 0.  1.
</event>
<event>
 6   3  0.2312675E+03  0.9118800E+02  0.7818608E-02  0.1180000E+00
       11   -1    0    0    0    0  0.00000000000E+00  0.00000000000E+00  0.54999999763E+01  0.55000000000E+01  0.51109989000E-03 0. -1.
     -623   -1    0    0    0    0  0.00000000000E+00  0.00000000000E+00  0.93234578044E-11  0.17124000000E+03  0.17124000000E+03 0.  1.
       11    1    1    2    0    0 -0.38109572487E-01 -0.28630616820E-01  0.95184822224E+00  0.95304110674E+00  0.51109989000E-03 0. -1.
     -623    1    1    2    0    0 -0.26179671584E-01  0.15021245086E-01  0.16747388344E-02  0.17124000267E+03  0.17124000000E+03 0.  1.
     -611    1    1    2    0    0  0.53130649552E-01  0.11264055315E-01  0.39045235125E+01  0.39049012619E+01  0.51109989000E-03 0. -1.
      611    1    1    2    0    0  0.11158594514E-01  0.23453164184E-02  0.64195350233E+00  0.64205496269E+00  0.51109989000E-03 0.  1.
</event>
<event>
 6   3  0.2312675E+03  0.9118800E+02  0.7818608E-02  0.1180000E+00
       11   -1    0    0    0    0  0.00000000000E+00  0.00000000000E+00  0.54999999763E+01  0.55000000000E+01  0.51109989000E-03 0.  1.
     -623   -1    0    0    0    0  0.00000000000E+00  0.00000000000E+00  0.93234578044E-11  0.17124000000E+03  0.17124000000E+03 0.  1.
       11    1    1    2    0    0  0.12346178158E-01 -0.53388517336E-03  0.10706982123E+01  0.10707696466E+01  0.51109989000E-03 0.  1.
     -623    1    1    2    0    0 -0.57672353555E-01  0.96984347003E-02  0.32295217639E-03  0.17124000999E+03  0.17124000000E+03 0.  1.
     -611    1    1    2    0    0  0.22045459876E-01 -0.45140356084E-02  0.21782744222E+01  0.21783907130E+01  0.51109989000E-03 0.  1.
      611    1    1    2    0    0  0.23280715716E-01 -0.46505139537E-02  0.22507044083E+01  0.22508296723E+01  0.51109989000E-03 0.  1.
</event>
<event>
 6   3  0.2312675E+03  0.9118800E+02  0.7818608E-02  0.1180000E+00
       11   -1    0    0    0    0  0.00000000000E+00  0.00000000000E+00  0.54999999763E+01  0.55000000000E+01  0.51109989000E-03 0.  1.
     -623   -1    0    0    0    0  0.00000000000E+00  0.00000000000E+00  0.93234578044E-11  0.17124000000E+03  0.17124000000E+03 0. -1.
       11    1    1    2    0    0 -0.20092922644E-02  0.82282981362E-02  0.22686853157E+00  0.22702716575E+00  0.51109989000E-03 0.  1.
     -623    1    1    2    0    0 -0.64377755457E-01 -0.30030941386E-01  0.65578696948E-03  0.17124001474E+03  0.17124000000E+03 0. -1.
     -611    1    1    2    0    0  0.44820199708E-01  0.11084311559E-01  0.38718601353E+01  0.38721354420E+01  0.51109989000E-03 0.  1.
      611    1    1    2    0    0  0.21566848019E-01  0.10718331693E-01  0.14006155228E+01  0.14008226567E+01  0.51109989000E-03 0. -1.
</event>
<event>
 6   3  0.2312675E+03  0.9118800E+02  0.7818608E-02  0.1180000E+00
       11   -1    0    0    0    0  0.00000000000E+00  0.00000000000E+00  0.54999999763E+01  0.55000000000E+01  0.51109989000E-03 0.  1.
     -623   -1    0    0    0    0  0.00000000000E+00  0.00000000000E+00  0.93234578044E-11  0.17124000000E+03  0.17124000000E+03 0.  1.
       11    1    1    2    0    0 -0.66480437093E-01 -0.17394937297E-01  0.65096670939E+00  0.65458395208E+00  0.51109989000E-03 0.  1.
     -623    1    1    2    0    0  0.14500424920E-02  0.35245295229E-03  0.40837843212E-02  0.17124000006E+03  0.17124000000E+03 0.  1.
     -611    1    1    2    0    0  0.29432030681E-01  0.78974979754E-02  0.22059127425E+01  0.22061232748E+01  0.51109989000E-03 0. -1.
      611    1    1    2    0    0  0.35598363888E-01  0.91449863611E-02  0.26390367377E+01  0.26392927155E+01  0.51109989000E-03 0.  1.
</event>
<event>
 6   3  0.2312675E+03  0.9118800E+02  0.7818608E-02  0.1180000E+00
       11   -1    0    0    0    0  0.00000000000E+00  0.00000000000E+00  0.54999999763E+01  0.55000000000E+01  0.51109989000E-03 0. -1.
     -623   -1    0    0    0    0  0.00000000000E+00  0.00000000000E+00  0.93234578044E-11  0.17124000000E+03  0.17124000000E+03 0. -1.
       11    1    1    2    0    0 -0.46144647430E-01 -0.62855138783E-02  0.36800554584E+00  0.37094093757E+00  0.51109989000E-03 0. -1.
     -623    1    1    2    0    0 -0.42667249813E-01  0.15019309607E-01  0.37776256036E-02  0.17124000602E+03  0.17124000000E+03 0. -1.
     -611    1    1    2    0    0  0.33712531235E-01  0.74624209057E-02  0.22284317764E+01  0.22286993216E+01  0.51109989000E-03 0.  1.
      611    1    1    2    0    0  0.55099366008E-01 -0.16196216635E-01  0.28997850284E+01  0.29003537249E+01  0.51109989000E-03 0. -1.
</event>
<event>
 6   3  0.2312675E+03  0.9118800E+02  0.7818608E-02  0.1180000E+00
       11   -1    0    0    0    0  0.00000000000E+00  0.00000000000E+00  0.54999999763E+01  0.55000000000E+01  0.51109989000E-03 0.  1.
     -623   -1    0    0    0    0  0.00000000000E+00  0.00000000000E+00  0.93234578044E-11  0.17124000000E+03  0.17124000000E+03 0. -1.
       11    1    1    2    0    0 -0.85398531679E-01 -0.54941380297E-01  0.10291488374E+01  0.10341465347E+01  0.51109989000E-03 0.  1.
     -623    1    1    2    0    0 -0.47663096990E-03 -0.71787017645E-02  0.62630088242E-02  0.17124000027E+03  0.17124000000E+03 0. -1.
     -611    1    1    2    0    0  0.67206039363E-01  0.45524406085E-01  0.35050283178E+01  0.35059681820E+01  0.51109989000E-03 0.  1.
      611    1    1    2    0    0  0.18669123288E-01  0.16595675978E-01  0.95955981234E+00  0.95988501776E+00  0.51109989000E-03 0. -1.
</event>
<event>
 6   3  0.2312675E+03  0.9118800E+02  0.7818608E-02  0.1180000E+00
       11   -1    0    0    0    0  0.00000000000E+00  0.00000000000E+00  0.54999999763E+01  0.55000000000E+01  0.51109989000E-03 0.  1.
     -623   -1    0    0    0    0  0.00000000000E+00  0.00000000000E+00  0.93234578044E-11  0.17124000000E+03  0.17124000000E+03 0.  1.
       11    1    1    2    0    0 -0.10991977446E+00  0.41606894957E-01  0.83975450246E+00  0.84793948850E+00  0.51109989000E-03 0.  1.
     -623    1    1    2    0    0 -0.89256242243E-02 -0.16272136867E-01  0.10022272021E-01  0.17124000130E+03  0.17124000000E+03 0.  1.
     -611    1    1    2    0    0  0.84129649183E-01 -0.15186657084E-02  0.24785447836E+01  0.24799727034E+01  0.51109989000E-03 0.  1.
      611    1    1    2    0    0  0.34715749500E-01 -0.23816092381E-01  0.21716784182E+01  0.21720865091E+01  0.51109989000E-03 0. -1.
</event>
<event>
 6   3  0.2312675E+03  0.9118800E+02  0.7818608E-02  0.1180000E+00
       11   -1    0    0    0    0  0.00000000000E+00  0.00000000000E+00  0.54999999763E+01  0.55000000000E+01  0.51109989000E-03 0. -1.
     -623   -1    0    0    0    0  0.00000000000E+00  0.00000000000E+00  0.93234578044E-11  0.17124000000E+03  0.17124000000E+03 0. -1.
       11    1    1    2    0    0  0.17367156014E-02  0.24441993003E-02 -0.40793311040E-04  0.30419037611E-02  0.51109989000E-03 0. -1.
     -623    1    1    2    0    0  0.51338397045E-02 -0.63578459051E-02  0.44960154490E-02  0.17124000025E+03  0.17124000000E+03 0. -1.
     -611    1    1    2    0    0  0.48784950849E-01  0.34348768516E-01  0.22364229115E+01  0.22372186995E+01  0.51109989000E-03 0.  1.
      611    1    1    2    0    0 -0.55655506155E-01 -0.30435121911E-01  0.32591218426E+01  0.32597391427E+01  0.51109989000E-03 0. -1.
</event>
<event>
 6   3  0.2312675E+03  0.9118800E+02  0.7818608E-02  0.1180000E+00
       11   -1    0    0    0    0  0.00000000000E+00  0.00000000000E+00  0.54999999763E+01  0.55000000000E+01  0.51109989000E-03 0. -1.
     -623   -1    0    0    0    0  0.00000000000E+00  0.00000000000E+00  0.93234578044E-11  0.17124000000E+03  0.17124000000E+03 0.  1.
       11    1    1    2    0    0 -0.89895093639E-03  0.27499972809E-02  0.37301654477E-01  0.37417178510E-01  0.51109989000E-03 0.  1.
     -623    1    1    2    0    0  0.43133793090E-03  0.20922355739E-03  0.42395575625E-03  0.17124000000E+03  0.17124000000E+03 0.  1.
     -611    1    1    2    0    0  0.29180693892E-01 -0.26580712242E-02  0.28388275337E+01  0.28389787963E+01  0.51109989000E-03 0.  1.
      611    1    1    2    0    0 -0.28713080886E-01 -0.30114961411E-03  0.26234468322E+01  0.26236040239E+01  0.51109989000E-03 0. -1.
</event>
<event>
 6   3  0.2312675E+03  0.9118800E+02  0.7818608E-02  0.1180000E+00
       11   -1    0    0    0    0  0.00000000000E+00  0.00000000000E+00  0.54999999763E+01  0.55000000000E+01  0.51109989000E-03 0. -1.
     -623   -1    0    0    0    0  0.00000000000E+00  0.00000000000E+00  0.93234578044E-11  0.17124000000E+03  0.17124000000E+03 0. -1.
       11    1    1    2    0    0  0.36881287773E-01  0.14447183027E-01  0.10730841501E+01  0.10738150702E+01  0.51109989000E-03 0. -1.
     -623    1    1    2    0    0  0.15094794198E-01 -0.88076172295E-02  0.10407225379E-02  0.17124000089E+03  0.17124000000E+03 0. -1.
     -611    1    1    2    0    0 -0.28410485086E-01 -0.28338572265E-02  0.24270968708E+01  0.24272648533E+01  0.51109989000E-03 0. -1.
      611    1    1    2    0    0 -0.23565596872E-01 -0.28057085698E-02  0.19987782316E+01  0.19989191804E+01  0.51109989000E-03 0. -1.
</event>
<event>
 6   3  0.2312675E+03  0.9118800E+02  0.7818608E-02  0.1180000E+00
       11   -1    0    0    0    0  0.00000000000E+00  0.00000000000E+00  0.54999999763E+01  0.55000000000E+01  0.51109989000E-03 0. -1.
     -623   -1    0    0    0    0  0.00000000000E+00  0.00000000000E+00  0.93234578044E-11  0.17124000000E+03  0.17124000000E+03 0. -1.
       11    1    1    2    0    0 -0.60492556591E-02  0.19648179031E-01  0.36679162431E+00  0.36736766504E+00  0.51109989000E-03 0. -1.
     -623    1    1    2    0    0  0.13519152107E-02  0.57970724132E-02  0.12366990467E-02  0.17124000011E+03  0.17124000000E+03 0. -1.
     -611    1    1    2    0    0 -0.33056176421E-01  0.20928403330E-02  0.15376695282E+01  0.15380263099E+01  0.51109989000E-03 0.  1.
      611    1    1    2    0    0  0.37753516870E-01 -0.27538091777E-01  0.35943021248E+01  0.35946059172E+01  0.51109989000E-03 0. -1.
</event>
<event>
 6   3  0.2312675E+03  0.9118800E+02  0.7818608E-02  0.1180000E+00
       11   -1    0    0    0    0  0.00000000000E+00  0.00000000000E+00  0.54999999763E+01  0.55000000000E+01  0.51109989000E-03 0. -1.
     -623   -1    0    0    0    0  0.00000000000E+00  0.00000000000E+00  0.93234578044E-11  0.17124000000E+03  0.17124000000E+03 0. -1.
       11    1    1    2    0    0  0.16809839464E-02 -0.12141563149E-03  0.23403674648E+00  0.23404337285E+00  0.51109989000E-03 0. -1.
     -623    1    1    2    0    0 -0.69617184823E-01 -0.11236550153E-01  0.47386993065E-03  0.17124001452E+03  0.17124000000E+03 0. -1.
     -611    1    1    2    0    0  0.36154587998E-01  0.36333946357E-02  0.27680383424E+01  0.27682768796E+01  0.51109989000E-03 0. -1.
      611    1    1    2    0    0  0.31781612960E-01  0.77245711621E-02  0.24974510238E+01  0.24976652333E+01  0.51109989000E-03 0.  1.
</event>
<event>
 6   3  0.2312675E+03  0.9118800E+02  0.7818608E-02  0.1180000E+00
       11   -1    0    0    0    0  0.00000000000E+00  0.00000000000E+00  0.54999999763E+01  0.55000000000E+01  0.51109989000E-03 0.  1.
     -623   -1    0    0    0    0  0.00000000000E+00  0.00000000000E+00  0.93234578044E-11  0.17124000000E+03  0.17124000000E+03 0.  1.
       11    1    1    2    0    0  0.47326147670E-02  0.34223406749E-02  0.31007042376E-01  0.31556424991E-01  0.51109989000E-03 0.  1.
     -623    1    1    2    0    0 -0.37905557216E-03 -0.28043645937E-02  0.14015061263E-02  0.17124000003E+03  0.17124000000E+03 0.  1.
     -611    1    1    2    0    0 -0.48300727412E-01 -0.77698019102E-02  0.35389118026E+01  0.35392499682E+01  0.51109989000E-03 0.  1.
      611    1    1    2    0    0  0.43947168217E-01  0.71518258291E-02  0.19286796252E+01  0.19291935777E+01  0.51109989000E-03 0. -1.
</event>
<event>
 6   3  0.4313136E+03  0.9118800E+02  0.7818608E-02  0.1180000E+00
       11   -1    0    0    0    0  0.00000000000E+00  0.00000000000E+00  0.54999999763E+01  0.55000000000E+01  0.51109989000E-03 0.  1.
     -623   -1    0    0    0    0  0.00000000000E+00  0.00000000000E+00  0.93234578044E-11  0.17124000000E+03  0.17124000000E+03 0. -1.
       11    1    1    2    0    0  0.15091752780E-02 -0.74414772847E-03  0.92954230771E-02  0.94603107318E-02  0.51109989000E-03 0.  1.
     -623    1    1    2    0    0 -0.10691336524E-02  0.61641394038E-03  0.60091787926E-03  0.17124000001E+03  0.17124000000E+03 0. -1.
     -611    1    1    2    0    0 -0.30925378082E-01 -0.15790281190E-01  0.28852783545E+01  0.28854873343E+01  0.51109989000E-03 0. -1.
      611    1    1    2    0    0  0.30485336456E-01  0.15918014978E-01  0.26048252806E+01  0.26050523493E+01  0.51109989000E-03 0.  1.
</event>
<event>
 6   3  0.2312675E+03  0.9118800E+02  0.7818608E-02  0.1180000E+00
       11   -1    0    0    0    0  0.00000000000E+00  0.00000000000E+00  0.54999999763E+01  0.55000000000E+01  0.51109989000E-03 0. -1.
     -623   -1    0    0    0    0  0.00000000000E+00  0.00000000000E+00  0.93234578044E-11  0.17124000000E+03  0.17124000000E+03 0. -1.
       11    1    1    2    0    0  0.32324652474E-02 -0.11119351656E-01  0.41441277051E+00  0.41457483570E+00  0.51109989000E-03 0. -1.
     -623    1    1    2    0    0 -0.99178591283E-03  0.20298766549E-02  0.11940470921E-02  0.17124000002E+03  0.17124000000E+03 0. -1.
     -611    1    1    2    0    0  0.36019070193E-01  0.34315465787E-01  0.17185681928E+01  0.17192881722E+01  0.51109989000E-03 0.  1.
      611    1    1    2    0    0 -0.38259749528E-01 -0.25225990786E-01  0.33658249659E+01  0.33661369731E+01  0.51109989000E-03 0. -1.
</event>
<event>
 6   3  0.2312675E+03  0.9118800E+02  0.7818608E-02  0.1180000E+00
       11   -1    0    0    0    0  0.00000000000E+00  0.00000000000E+00  0.54999999763E+01  0.55000000000E+01  0.51109989000E-03 0.  1.
     -623   -1    0    0    0    0  0.00000000000E+00  0.00000000000E+00  0.93234578044E-11  0.17124000000E+03  0.17124000000E+03 0.  1.
       11    1    1    2    0    0  0.65457177165E-01 -0.17621702112E-01  0.99419453006E+00  0.99650298106E+00  0.51109989000E-03 0.  1.
     -623    1    1    2    0    0  0.78969936134E-02  0.99746903191E-02  0.29132762151E-02  0.17124000050E+03  0.17124000000E+03 0.  1.
     -611    1    1    2    0    0 -0.56927205281E-01  0.54792045782E-02  0.35167281900E+01  0.35171932208E+01  0.51109989000E-03 0.  1.
      611    1    1    2    0    0 -0.16426965438E-01  0.21678072087E-02  0.98616397630E+00  0.98630329714E+00  0.51109989000E-03 0.  1.
</event>
<event>
 6   3  0.2312675E+03  0.9118800E+02  0.7818608E-02  0.1180000E+00
       11   -1    0    0    0    0  0.00000000000E+00  0.00000000000E+00  0.54999999763E+01  0.55000000000E+01  0.51109989000E-03 0.  1.
     -623   -1    0    0    0    0  0.00000000000E+00  0.00000000000E+00  0.93234578044E-11  0.17124000000E+03  0.17124000000E+03 0.  1.
       11    1    1    2    0    0 -0.69443758105E-02 -0.17812595553E-02  0.60986211178E-01  0.61408276462E-01  0.51109989000E-03 0.  1.
     -623    1    1    2    0    0 -0.64426804709E-02  0.17176107955E-01  0.38607028446E-02  0.17124000103E+03  0.17124000000E+03 0.  1.
     -611    1    1    2    0    0  0.75232261761E-01 -0.71934459055E-01  0.36324986531E+01  0.36339897063E+01  0.51109989000E-03 0. -1.
      611    1    1    2    0    0 -0.61845205480E-01  0.56539610655E-01  0.18026544092E+01  0.18046009911E+01  0.51109989000E-03 0.  1.
</event>
<event>
 6   3  0.2312675E+03  0.9118800E+02  0.7818608E-02  0.1180000E+00
       11   -1    0    0    0    0  0.00000000000E+00  0.00000000000E+00  0.54999999763E+01  0.55000000000E+01  0.51109989000E-03 0. -1.
     -623   -1    0    0    0    0  0.00000000000E+00  0.00000000000E+00  0.93234578044E-11  0.17124000000E+03  0.17124000000E+03 0.  1.
       11    1    1    2    0    0  0.11387180210E-01  0.73281575924E-02  0.75389756833E+00  0.75401934625E+00  0.51109989000E-03 0. -1.
     -623    1    1    2    0    0 -0.90000275691E-01 -0.13460305270E-01  0.80271678408E-03  0.17124002418E+03  0.17124000000E+03 0.  1.
     -611    1    1    2    0    0  0.50447272534E-01  0.24608699376E-02  0.29686145879E+01  0.29690442596E+01  0.51109989000E-03 0. -1.
      611    1    1    2    0    0  0.28165822919E-01  0.36712777360E-02  0.17766851016E+01  0.17769122103E+01  0.51109989000E-03 0.  1.
</event>
<event>
 6   3  0.2312675E+03  0.9118800E+02  0.7818608E-02  0.1180000E+00
       11   -1    0    0    0    0  0.00000000000E+00  0.00000000000E+00  0.54999999763E+01  0.55000000000E+01  0.51109989000E-03 0. -1.
     -623   -1    0    0    0    0  0.00000000000E+00  0.00000000000E+00  0.93234578044E-11  0.17124000000E+03  0.17124000000E+03 0.  1.
       11    1    1    2    0    0  0.29574076214E-01  0.82656762101E-01  0.55915451545E+00  0.56600423998E+00  0.51109989000E-03 0. -1.
     -623    1    1    2    0    0  0.34145816610E-01 -0.72118667100E-01  0.72941332769E-02  0.17124001875E+03  0.17124000000E+03 0.  1.
     -611    1    1    2    0    0 -0.42444727687E-01 -0.88565241479E-02  0.34331576754E+01  0.34334315019E+01  0.51109989000E-03 0. -1.
      611    1    1    2    0    0 -0.21275165135E-01 -0.16815708527E-02  0.15003936520E+01  0.15005455116E+01  0.51109989000E-03 0.  1.
</event>
<event>
 6   3  0.2312675E+03  0.9118800E+02  0.7818608E-02  0.1180000E+00
       11   -1    0    0    0    0  0.00000000000E+00  0.00000000000E+00  0.54999999763E+01  0.55000000000E+01  0.51109989000E-03 0.  1.
     -623   -1    0    0    0    0  0.00000000000E+00  0.00000000000E+00  0.93234578044E-11  0.17124000000E+03  0.17124000000E+03 0. -1.
       11    1    1    2    0    0 -0.65887436018E-01 -0.30217451515E-01  0.17814115126E+00  0.19232467235E+00  0.51109989000E-03 0.  1.
     -623    1    1    2    0    0  0.32066278213E-02  0.62654517778E-02  0.14609129385E-01  0.17124000077E+03  0.17124000000E+03 0. -1.
     -611    1    1    2    0    0  0.21001280403E-01  0.92352632511E-02  0.18396080059E+01  0.18397511300E+01  0.51109989000E-03 0. -1.
      611    1    1    2    0    0  0.41679527778E-01  0.14716736480E-01  0.34676416884E+01  0.34679234284E+01  0.51109989000E-03 0.  1.
</event>
<event>
 6   3  0.2312675E+03  0.9118800E+02  0.7818608E-02  0.1180000E+00
       11   -1    0    0    0    0  0.00000000000E+00  0.00000000000E+00  0.54999999763E+01  0.55000000000E+01  0.51109989000E-03 0.  1.
     -623   -1    0    0    0    0  0.00000000000E+00  0.00000000000E+00  0.93234578044E-11  0.17124000000E+03  0.17124000000E+03 0.  1.
       11    1    1    2    0    0  0.37342528873E-02 -0.35835494730E-02  0.20401889831E-01  0.21054329797E-01  0.51109989000E-03 0.  1.
     -623    1    1    2    0    0  0.14764761613E-01  0.80467128354E-02  0.16020811164E-02  0.17124000083E+03  0.17124000000E+03 0.  1.
     -611    1    1    2    0    0  0.32923263335E-01 -0.24837954167E-01  0.32526341711E+01  0.32528956604E+01  0.51109989000E-03 0.  1.
      611    1    1    2    0    0 -0.51422277836E-01  0.20374790805E-01  0.22253618342E+01  0.22260491767E+01  0.51109989000E-03 0. -1.
</event>
<event>
 6   3  0.2312675E+03  0.9118800E+02  0.7818608E-02  0.1180000E+00
       11   -1    0    0    0    0  0.00000000000E+00  0.00000000000E+00  0.54999999763E+01  0.55000000000E+01  0.51109989000E-03 0.  1.
     -623   -1    0    0    0    0  0.00000000000E+00  0.00000000000E+00  0.93234578044E-11  0.17124000000E+03  0.17124000000E+03 0. -1.
       11    1    1    2    0    0  0.51757146204E-01  0.14734815965E-01  0.86483182555E+00  0.86650462474E+00  0.51109989000E-03 0.  1.
     -623    1    1    2    0    0 -0.27904758245E-02 -0.11490050603E-01  0.19333155023E-02  0.17124000042E+03  0.17124000000E+03 0. -1.
     -611    1    1    2    0    0 -0.86854829478E-02 -0.37824378707E-03  0.83591805591E+00  0.83596341912E+00  0.51109989000E-03 0.  1.
      611    1    1    2    0    0 -0.40281187482E-01 -0.28665215784E-02  0.37973167841E+01  0.37975315418E+01  0.51109989000E-03 0.  1.
</event>
<event>
 6   3  0.2312675E+03  0.9118800E+02  0.7818608E-02  0.1180000E+00
       11   -1    0    0    0    0  0.00000000000E+00  0.00000000000E+00  0.54999999763E+01  0.55000000000E+01  0.51109989000E-03 0.  1.
     -623   -1    0    0    0    0  0.00000000000E+00  0.00000000000E+00  0.93234578044E-11  0.17124000000E+03  0.17124000000E+03 0.  1.
       11    1    1    2    0    0 -0.51251348426E-01 -0.67600050460E-01  0.45930599910E+00  0.46707465096E+00  0.51109989000E-03 0.  1.
     -623    1    1    2    0    0 -0.22917487379E-01  0.36081344396E-02  0.87240330793E-02  0.17124000179E+03  0.17124000000E+03 0.  1.
     -611    1    1    2    0    0  0.45323833783E-01  0.39268552292E-01  0.31034168245E+01  0.31039962173E+01  0.51109989000E-03 0.  1.
      611    1    1    2    0    0  0.28845001888E-01  0.24723363612E-01  0.19285531104E+01  0.19289273288E+01  0.51109989000E-03 0.  1.
</event>
<event>
 6   3  0.2312675E+03  0.9118800E+02  0.7818608E-02  0.1180000E+00
       11   -1    0    0    0    0  0.00000000000E+00  0.00000000000E+00  0.54999999763E+01  0.55000000000E+01  0.51109989000E-03 0. -1.
     -623   -1    0    0    0    0  0.00000000000E+00  0.00000000000E+00  0.93234578044E-11  0.17124000000E+03  0.17124000000E+03 0.  1.
       11    1    1    2    0    0 -0.54969154519E-01  0.59583617352E-01  0.10710032870E+01  0.10740670917E+01  0.51109989000E-03 0. -1.
     -623    1    1    2    0    0 -0.12420859547E-01 -0.15420900041E-02  0.39825570056E-02  0.17124000050E+03  0.17124000000E+03 0.  1.
     -611    1    1    2    0    0  0.54830292595E-01 -0.46458406819E-01  0.32541263915E+01  0.32549199034E+01  0.51109989000E-03 0. -1.
      611    1    1    2    0    0  0.12559721472E-01 -0.11583120530E-01  0.11708877407E+01  0.11710125012E+01  0.51109989000E-03 0.  1.
</event>
<event>
 6   3  0.2312675E+03  0.9118800E+02  0.7818608E-02  0.1180000E+00
       11   -1    0    0    0    0  0.00000000000E+00  0.00000000000E+00  0.54999999763E+01  0.55000000000E+01  0.51109989000E-03 0. -1.
     -623   -1    0    0    0    0  0.00000000000E+00  0.00000000000E+00  0.93234578044E-11  0.17124000000E+03  0.17124000000E+03 0.  1.
       11    1    1    2    0    0  0.54642217355E-02 -0.65590647246E-03  0.31181295454E-02  0.63460135073E-02  0.51109989000E-03 0. -1.
     -623    1    1    2    0    0 -0.86606230291E-02  0.16996651044E-03  0.83724431318E-02  0.17124000042E+03  0.17124000000E+03 0.  1.
     -611    1    1    2    0    0 -0.11588353611E+00 -0.99966378294E-02  0.23672979397E+01  0.23701537341E+01  0.51109989000E-03 0.  1.
      611    1    1    2    0    0  0.11907993740E+00  0.10482577791E-01  0.31212114639E+01  0.31234998286E+01  0.51109989000E-03 0. -1.
</event>
<event>
 6   3  0.2312675E+03  0.9118800E+02  0.7818608E-02  0.1180000E+00
       11   -1    0    0    0    0  0.00000000000E+00  0.00000000000E+00  0.54999999763E+01  0.55000000000E+01  0.51109989000E-03 0. -1.
     -623   -1    0    0    0    0  0.00000000000E+00  0.00000000000E+00  0.93234578044E-11  0.17124000000E+03  0.17124000000E+03 0.  1.
       11    1    1    2    0    0  0.38609015342E-02 -0.74488522813E-03  0.27647507785E+00  0.27650351049E+00  0.51109989000E-03 0.  1.
     -623    1    1    2    0    0 -0.86293303299E-01  0.71849565200E-02  0.70487465066E-03  0.17124002190E+03  0.17124000000E+03 0.  1.
     -611    1    1    2    0    0  0.37290155491E-01 -0.30765482399E-02  0.23535360530E+01  0.23538335189E+01  0.51109989000E-03 0. -1.
      611    1    1    2    0    0  0.45142246907E-01 -0.33635231055E-02  0.28692840111E+01  0.28696411158E+01  0.51109989000E-03 0. -1.
</event>
<event>
 6   3  0.2312675E+03  0.9118800E+02  0.7818608E-02  0.1180000E+00
       11   -1    0    0    0    0  0.00000000000E+00  0.00000000000E+00  0.54999999763E+01  0.55000000000E+01  0.51109989000E-03 0. -1.
     -623   -1    0    0    0    0  0.00000000000E+00  0.00000000000E+00  0.93234578044E-11  0.17124000000E+03  0.17124000000E+03 0. -1.
       11    1    1    2    0    0  0.96684598665E-02  0.31792444177E-02  0.63563500884E+00  0.63571669193E+00  0.51109989000E-03 0. -1.
     -623    1    1    2    0    0 -0.93213339981E-01 -0.13703628435E-01  0.84298792835E-03  0.17124002592E+03  0.17124000000E+03 0. -1.
     -611    1    1    2    0    0  0.66787489245E-01  0.11190195820E-01  0.38095574476E+01  0.38101593139E+01  0.51109989000E-03 0. -1.
      611    1    1    2    0    0  0.16757390838E-01 -0.66581180686E-03  0.10539645300E+01  0.10540980719E+01  0.51109989000E-03 0.  1.
</event>
<event>
 6   3  0.2312675E+03  0.9118800E+02  0.7818608E-02  0.1180000E+00
       11   -1    0    0    0    0  0.00000000000E+00  0.00000000000E+00  0.54999999763E+01  0.55000000000E+01  0.51109989000E-03 0. -1.
     -623   -1    0    0    0    0  0.00000000000E+00  0.00000000000E+00  0.93234578044E-11  0.17124000000E+03  0.17124000000E+03 0.  1.
       11    1    1    2    0    0  0.57553457422E-01 -0.30800050386E-02  0.99304766598E+00  0.99471896283E+00  0.51109989000E-03 0. -1.
     -623    1    1    2    0    0 -0.87510244580E-02 -0.11749438137E-01  0.19610894610E-02  0.17124000064E+03  0.17124000000E+03 0.  1.
     -611    1    1    2    0    0 -0.36733371129E-01  0.11204786038E-01  0.34513279568E+01  0.34515416577E+01  0.51109989000E-03 0. -1.
      611    1    1    2    0    0 -0.12069061806E-01  0.36246571290E-02  0.10536632613E+01  0.10537387389E+01  0.51109989000E-03 0.  1.
</event>
<event>
 6   3  0.2312675E+03  0.9118800E+02  0.7818608E-02  0.1180000E+00
       11   -1    0    0    0    0  0.00000000000E+00  0.00000000000E+00  0.54999999763E+01  0.55000000000E+01  0.51109989000E-03 0.  1.
     -623   -1    0    0    0    0  0.00000000000E+00  0.00000000000E+00  0.93234578044E-11  0.17124000000E+03  0.17124000000E+03 0. -1.
       11    1    1    2    0    0 -0.10093294991E-01  0.62112870460E-02  0.13591505591E+00  0.13643173507E+00  0.51109989000E-03 0.  1.
     -623    1    1    2    0    0  0.96612369353E-02 -0.34583997492E-02  0.25312672919E-02  0.17124000033E+03  0.17124000000E+03 0. -1.
     -611    1    1    2    0    0 -0.64191301620E-01  0.75697496913E-02  0.39162015001E+01  0.39167348997E+01  0.51109989000E-03 0.  1.
      611    1    1    2    0    0  0.64623359676E-01 -0.10322636988E-01  0.14453521530E+01  0.14468330391E+01  0.51109989000E-03 0. -1.
</event>
<event>
 6   3  0.2312675E+03  0.9118800E+02  0.7818608E-02  0.1180000E+00
       11   -1    0    0    0    0  0.00000000000E+00  0.00000000000E+00  0.54999999763E+01  0.55000000000E+01  0.51109989000E-03 0. -1.
     -623   -1    0    0    0    0  0.00000000000E+00  0.00000000000E+00  0.93234578044E-11  0.17124000000E+03  0.17124000000E+03 0.  1.
       11    1    1    2    0    0 -0.12712896109E-01  0.22225162600E-02  0.42018782250E+00  0.42038628035E+00  0.51109989000E-03 0. -1.
     -623    1    1    2    0    0  0.27810657132E-01 -0.23302829551E-02  0.93215799947E-03  0.17124000228E+03  0.17124000000E+03 0.  1.
     -611    1    1    2    0    0  0.28583495867E-01 -0.23063966667E-01  0.22170239479E+01  0.22173282142E+01  0.51109989000E-03 0. -1.
      611    1    1    2    0    0 -0.43681256891E-01  0.23171733363E-01  0.28618560481E+01  0.28622832289E+01  0.51109989000E-03 0.  1.
</event>
<event>
 6   3  0.2312675E+03  0.9118800E+02  0.7818608E-02  0.1180000E+00
       11   -1    0    0    0    0  0.00000000000E+00  0.00000000000E+00  0.54999999763E+01  0.55000000000E+01  0.51109989000E-03 0. -1.
     -623   -1    0    0    0    0  0.00000000000E+00  0.00000000000E+00  0.93234578044E-11  0.17124000000E+03  0.17124000000E+03 0. -1.
       11    1    1    2    0    0  0.37900655409E-03 -0.17746432779E-03  0.24593912527E+00  0.24594001240E+00  0.51109989000E-03 0. -1.
     -623    1    1    2    0    0 -0.11104997337E-02  0.18981127686E-03  0.44650806976E-03  0.17124000000E+03  0.17124000000E+03 0. -1.
     -611    1    1    2    0    0 -0.33739891579E-01  0.17618796362E-02  0.27538537910E+01  0.27540610828E+01  0.51109989000E-03 0.  1.
      611    1    1    2    0    0  0.34471384758E-01 -0.17742265852E-02  0.24997605517E+01  0.24999989003E+01  0.51109989000E-03 0. -1.
</event>
<event>
 6   3  0.2312675E+03  0.9118800E+02  0.7818608E-02  0.1180000E+00
       11   -1    0    0    0    0  0.00000000000E+00  0.00000000000E+00  0.54999999763E+01  0.55000000000E+01  0.51109989000E-03 0.  1.
     -623   -1    0    0    0    0  0.00000000000E+00  0.00000000000E+00  0.93234578044E-11  0.17124000000E+03  0.17124000000E+03 0.  1.
       11    1    1    2    0    0  0.48990551838E-02 -0.58916238457E-01  0.70367489963E+00  0.70615419668E+00  0.51109989000E-03 0.  1.
     -623    1    1    2    0    0 -0.16011012175E-01 -0.99711508916E-02  0.38210072849E-02  0.17124000108E+03  0.17124000000E+03 0.  1.
     -611    1    1    2    0    0  0.32674271208E-01  0.80120949583E-01  0.32619054348E+01  0.32630529112E+01  0.51109989000E-03 0.  1.
      611    1    1    2    0    0 -0.21562314217E-01 -0.11233560235E-01  0.15305986345E+01  0.15307918106E+01  0.51109989000E-03 0. -1.
</event>
<event>
 6   3  0.2312675E+03  0.9118800E+02  0.7818608E-02  0.1180000E+00
       11   -1    0    0    0    0  0.00000000000E+00  0.00000000000E+00  0.54999999763E+01  0.55000000000E+01  0.51109989000E-03 0.  1.
     -623   -1    0    0    0    0  0.00000000000E+00  0.00000000000E+00  0.93234578044E-11  0.17124000000E+03  0.17124000000E+03 0. -1.
       11    1    1    2    0    0  0.54866322168E-02  0.91570663990E-02  0.55284125891E+00  0.55294454855E+00  0.51109989000E-03 0.  1.
     -623    1    1    2    0    0 -0.83056937750E-01 -0.15848945101E-01  0.73747820122E-03  0.17124002088E+03  0.17124000000E+03 0. -1.
     -611    1    1    2    0    0  0.27654120670E-01  0.15789910795E-02  0.18038577669E+01  0.18040704942E+01  0.51109989000E-03 0.  1.
      611    1    1    2    0    0  0.49916184880E-01  0.51128876239E-02  0.31425634733E+01  0.31429640806E+01  0.51109989000E-03 0.  1.
</event>
<event>
 6   3  0.2312675E+03  0.9118800E+02  0.7818608E-02  0.1180000E+00
       11   -1    0    0    0    0  0.00000000000E+00  0.00000000000E+00  0.54999999763E+01  0.55000000000E+01  0.51109989000E-03 0.  1.
     -623   -1    0    0    0    0  0.00000000000E+00  0.00000000000E+00  0.93234578044E-11  0.17124000000E+03  0.17124000000E+03 0.  1.
       11    1    1    2    0    0  0.65555748602E-02 -0.68744018951E-02  0.21767647396E-01  0.23755518505E-01  0.51109989000E-03 0.  1.
     -623    1    1    2    0    0  0.30547366263E-02  0.29140062700E-01  0.26917245567E-02  0.17124000253E+03  0.17124000000E+03 0.  1.
     -611    1    1    2    0    0 -0.46274889470E-01 -0.14716473479E-01  0.36021806841E+01  0.36025079989E+01  0.51109989000E-03 0.  1.
      611    1    1    2    0    0  0.36664577983E-01 -0.75491873258E-02  0.18733599202E+01  0.18737339548E+01  0.51109989000E-03 0. -1.
</event>
<event>
 6   3  0.2312675E+03  0.9118800E+02  0.7818608E-02  0.1180000E+00
       11   -1    0    0    0    0  0.00000000000E+00  0.00000000000E+00  0.54999999763E+01  0.55000000000E+01  0.51109989000E-03 0.  1.
     -623   -1    0    0    0    0  0.00000000000E+00  0.00000000000E+00  0.93234578044E-11  0.17124000000E+03  0.17124000000E+03 0.  1.
       11    1    1    2    0    0  0.53677292223E-01  0.60099556347E-01  0.69406432720E+00  0.69872652725E+00  0.51109989000E-03 0.  1.
     -623    1    1    2    0    0 -0.53887913345E-02 -0.21378341338E-02  0.52554657035E-02  0.17124000018E+03  0.17124000000E+03 0.  1.
     -611    1    1    2    0    0 -0.74901930134E-02 -0.94876397082E-02  0.74681217215E+00  0.74691016863E+00  0.51109989000E-03 0. -1.
      611    1    1    2    0    0 -0.40798307912E-01 -0.48474082550E-01  0.40538680149E+01  0.40543631290E+01  0.51109989000E-03 0.  1.
</event>
<event>
 6   3  0.2312675E+03  0.9118800E+02  0.7818608E-02  0.1180000E+00
       11   -1    0    0    0    0  0.00000000000E+00  0.00000000000E+00  0.54999999763E+01  0.55000000000E+01  0.51109989000E-03 0.  1.
     -623   -1    0    0    0    0  0.00000000000E+00  0.00000000000E+00  0.93234578044E-11  0.17124000000E+03  0.17124000000E+03 0.  1.
       11    1    1    2    0    0 -0.44473295568E-02 -0.20461658655E-01  0.84330726752E-01  0.86892985406E-01  0.51109989000E-03 0.  1.
     -623    1    1    2    0    0  0.74816812023E-02  0.15595857478E-02  0.44733440528E-02  0.17124000023E+03  0.17124000000E+03 0.  1.
     -611    1    1    2    0    0 -0.63753232586E-01  0.13726233711E-01  0.14772066086E+01  0.14786454984E+01  0.51109989000E-03 0. -1.
      611    1    1    2    0    0  0.60718880941E-01  0.51758391956E-02  0.39339892969E+01  0.39344612872E+01  0.51109989000E-03 0.  1.
</event>
<event>
 6   3  0.2312675E+03  0.9118800E+02  0.7818608E-02  0.1180000E+00
       11   -1    0    0    0    0  0.00000000000E+00  0.00000000000E+00  0.54999999763E+01  0.55000000000E+01  0.51109989000E-03 0.  1.
     -623   -1    0    0    0    0  0.00000000000E+00  0.00000000000E+00  0.93234578044E-11  0.17124000000E+03  0.17124000000E+03 0.  1.
       11    1    1    2    0    0 -0.31355713591E-01 -0.31711482132E-01  0.97511880702E+00  0.97613818074E+00  0.51109989000E-03 0.  1.
     -623    1    1    2    0    0 -0.22121529881E-01 -0.20060957933E-02  0.14707161767E-02  0.17124000145E+03  0.17124000000E+03 0.  1.
     -611    1    1    2    0    0  0.44312745589E-01  0.31374035977E-01  0.38994448053E+01  0.38998228166E+01  0.51109989000E-03 0.  1.
      611    1    1    2    0    0  0.91644978828E-02  0.23435419478E-02  0.62396564770E+00  0.62403755572E+00  0.51109989000E-03 0. -1.
</event>
<event>
 6   3  0.2312675E+03  0.9118800E+02  0.7818608E-02  0.1180000E+00
       11   -1    0    0    0    0  0.00000000000E+00  0.00000000000E+00  0.54999999763E+01  0.55000000000E+01  0.51109989000E-03 0.  1.
     -623   -1    0    0    0    0  0.00000000000E+00  0.00000000000E+00  0.93234578044E-11  0.17124000000E+03  0.17124000000E+03 0.  1.
       11    1    1    2    0    0  0.19974629020E-02 -0.89367934432E-03 -0.28559604767E-03  0.22652392843E-02  0.51109989000E-03 0.  1.
     -623    1    1    2    0    0  0.26919735736E-02 -0.29275007058E-02  0.47136101474E-02  0.17124000011E+03  0.17124000000E+03 0.  1.
     -611    1    1    2    0    0 -0.76830298756E-01 -0.16072707133E-01  0.31026844410E+01  0.31036772107E+01  0.51109989000E-03 0.  1.
      611    1    1    2    0    0  0.72140862280E-01  0.19893887183E-01  0.23928875212E+01  0.23940574390E+01  0.51109989000E-03 0. -1.
</event>
<event>
 6   3  0.2312675E+03  0.9118800E+02  0.7818608E-02  0.1180000E+00
       11   -1    0    0    0    0  0.00000000000E+00  0.00000000000E+00  0.54999999763E+01  0.55000000000E+01  0.51109989000E-03 0. -1.
     -623   -1    0    0    0    0  0.00000000000E+00  0.00000000000E+00  0.93234578044E-11  0.17124000000E+03  0.17124000000E+03 0. -1.
       11    1    1    2    0    0  0.43656620632E-01 -0.18426853732E-01  0.10372376671E+01  0.10383196467E+01  0.51109989000E-03 0. -1.
     -623    1    1    2    0    0  0.17043984822E-02 -0.33535163211E-02  0.13659815466E-02  0.17124000005E+03  0.17124000000E+03 0. -1.
     -611    1    1    2    0    0 -0.12415784756E-01  0.63433186995E-02  0.12265573601E+01  0.12266367059E+01  0.51109989000E-03 0. -1.
      611    1    1    2    0    0 -0.32945234364E-01  0.15437051357E-01  0.32348389680E+01  0.32350436011E+01  0.51109989000E-03 0. -1.
</event>
<event>
 6   3  0.2312675E+03  0.9118800E+02  0.7818608E-02  0.1180000E+00
       11   -1    0    0    0    0  0.00000000000E+00  0.00000000000E+00  0.54999999763E+01  0.55000000000E+01  0.51109989000E-03 0.  1.
     -623   -1    0    0    0    0  0.00000000000E+00  0.00000000000E+00  0.93234578044E-11  0.17124000000E+03  0.17124000000E+03 0.  1.
       11    1    1    2    0    0 -0.43360953269E-01 -0.31498663612E-01  0.15927378145E+00  0.16804980440E+00  0.51109989000E-03 0.  1.
     -623    1    1    2    0    0 -0.36596032625E-01  0.33005335263E-01  0.99522819535E-02  0.17124000738E+03  0.17124000000E+03 0.  1.
     -611    1    1    2    0    0  0.16572997060E-01 -0.26791921707E-01  0.75121537173E+00  0.75187583233E+00  0.51109989000E-03 0. -1.
      611    1    1    2    0    0  0.63383988834E-01  0.25285250057E-01  0.45795585411E+01  0.45800669828E+01  0.51109989000E-03 0.  1.
</event>
<event>
 6   3  0.2312675E+03  0.9118800E+02  0.7818608E-02  0.1180000E+00
       11   -1    0    0    0    0  0.00000000000E+00  0.00000000000E+00  0.54999999763E+01  0.55000000000E+01  0.51109989000E-03 0. -1.
     -623   -1    0    0    0    0  0.00000000000E+00  0.00000000000E+00  0.93234578044E-11  0.17124000000E+03  0.17124000000E+03 0. -1.
       11    1    1    2    0    0 -0.54052774498E-01  0.12546413465E-02  0.10532598130E+01  0.10546467520E+01  0.51109989000E-03 0. -1.
     -623    1    1    2    0    0  0.20311070165E-02 -0.24028076143E-02  0.17047625723E-02  0.17124000004E+03  0.17124000000E+03 0. -1.
     -611    1    1    2    0    0  0.17297770827E-01 -0.45916967172E-02  0.15930979576E+01  0.15931985628E+01  0.51109989000E-03 0. -1.
      611    1    1    2    0    0  0.34723896654E-01  0.57398629849E-02  0.28519374429E+01  0.28521546477E+01  0.51109989000E-03 0.  1.
</event>
<event>
 6   3  0.2312675E+03  0.9118800E+02  0.7818608E-02  0.1180000E+00
       11   -1    0    0    0    0  0.00000000000E+00  0.00000000000E+00  0.54999999763E+01  0.55000000000E+01  0.51109989000E-03 0.  1.
     -623   -1    0    0    0    0  0.00000000000E+00  0.00000000000E+00  0.93234578044E-11  0.17124000000E+03  0.17124000000E+03 0. -1.
       11    1    1    2    0    0 -0.53531867540E-01 -0.56064987512E-02  0.71624269124E+00  0.71826245040E+00  0.51109989000E-03 0.  1.
     -623    1    1    2    0    0  0.15662462102E-01 -0.56001388423E-01  0.41498392807E-02  0.17124000992E+03  0.17124000000E+03 0. -1.
     -611    1    1    2    0    0 -0.39303630171E-01  0.10856076013E-01  0.79063910218E+00  0.79169001563E+00  0.51109989000E-03 0. -1.
      611    1    1    2    0    0  0.77173035610E-01  0.50751811161E-01  0.39889683436E+01  0.39900376102E+01  0.51109989000E-03 0.  1.
</event>
<event>
 6   3  0.2312675E+03  0.9118800E+02  0.7818608E-02  0.1180000E+00
       11   -1    0    0    0    0  0.00000000000E+00  0.00000000000E+00  0.54999999763E+01  0.55000000000E+01  0.51109989000E-03 0.  1.
     -623   -1    0    0    0    0  0.00000000000E+00  0.00000000000E+00  0.93234578044E-11  0.17124000000E+03  0.17124000000E+03 0. -1.
       11    1    1    2    0    0 -0.63006007713E-02 -0.96865741241E-03  0.39171971949E-01  0.39690559038E-01  0.51109989000E-03 0.  1.
     -623    1    1    2    0    0  0.86822312656E-03 -0.15862781018E-02  0.12333505979E-02  0.17124000001E+03  0.17124000000E+03 0. -1.
     -611    1    1    2    0    0 -0.33409187343E-01 -0.23109795591E-01  0.21083201517E+01  0.21087115402E+01  0.51109989000E-03 0. -1.
      611    1    1    2    0    0  0.38841564987E-01  0.25664731105E-01  0.33512745021E+01  0.33515978868E+01  0.51109989000E-03 0.  1.
</event>
<event>
 6   3  0.2312675E+03  0.9118800E+02  0.7818608E-02  0.1180000E+00
       11   -1    0    0    0    0  0.00000000000E+00  0.00000000000E+00  0.54999999763E+01  0.55000000000E+01  0.51109989000E-03 0. -1.
     -623   -1    0    0    0    0  0.00000000000E+00  0.00000000000E+00  0.93234578044E-11  0.17124000000E+03  0.17124000000E+03 0.  1.
       11    1    1    2    0    0 -0.19509837040E-01 -0.13188453674E-01  0.61460561450E+00  0.61505681986E+00  0.51109989000E-03 0. -1.
     -623    1    1    2    0    0 -0.16408239350E-02  0.15554590635E-02  0.95948880741E-03  0.17124000002E+03  0.17124000000E+03 0.  1.
     -611    1    1    2    0    0 -0.15172593087E-01 -0.17505535511E-01  0.13096058690E+01  0.13098108431E+01  0.51109989000E-03 0.  1.
      611    1    1    2    0    0  0.36323254062E-01  0.29138530121E-01  0.35748290039E+01  0.35751323194E+01  0.51109989000E-03 0. -1.
</event>
<event>
 6   3  0.2312675E+03  0.9118800E+02  0.7818608E-02  0.1180000E+00
       11   -1    0    0    0    0  0.00000000000E+00  0.00000000000E+00  0.54999999763E+01  0.55000000000E+01  0.51109989000E-03 0.  1.
     -623   -1    0    0    0    0  0.00000000000E+00  0.00000000000E+00  0.93234578044E-11  0.17124000000E+03  0.17124000000E+03 0. -1.
       11    1    1    2    0    0 -0.72297500352E-02  0.12414979081E-01  0.83716042987E-01  0.84941380185E-01  0.51109989000E-03 0.  1.
     -623    1    1    2    0    0  0.32863636392E-02 -0.11487640515E-02  0.19295791525E-02  0.17124000005E+03  0.17124000000E+03 0. -1.
     -611    1    1    2    0    0  0.41397704585E-01 -0.13923042065E-01  0.18923621154E+01  0.18928661490E+01  0.51109989000E-03 0. -1.
      611    1    1    2    0    0 -0.37454318189E-01  0.26568270354E-02  0.35219922388E+01  0.35221924246E+01  0.51109989000E-03 0.  1.
</event>
<event>
 6   3  0.2312675E+03  0.9118800E+02  0.7818608E-02  0.1180000E+00
       11   -1    0    0    0    0  0.00000000000E+00  0.00000000000E+00  0.54999999763E+01  0.55000000000E+01  0.51109989000E-03 0.  1.
     -623   -1    0    0    0    0  0.00000000000E+00  0.00000000000E+00  0.93234578044E-11  0.17124000000E+03  0.17124000000E+03 0.  1.
       11    1    1    2    0    0 -0.78234854262E-01  0.18014056981E-01  0.86752662269E+00  0.87123355133E+00  0.51109989000E-03 0.  1.
     -623    1    1    2    0    0 -0.14453478394E-01 -0.14857279004E-01  0.46401387958E-02  0.17124000132E+03  0.17124000000E+03 0.  1.
     -611    1    1    2    0    0  0.76455810467E-01 -0.43096002920E-02  0.37812058287E+01  0.37819812062E+01  0.51109989000E-03 0.  1.
      611    1    1    2    0    0  0.16232522185E-01  0.11528223153E-02  0.84662738593E+00  0.84678392498E+00  0.51109989000E-03 0. -1.
</event>
<event>
 6   3  0.2312675E+03  0.9118800E+02  0.7818608E-02  0.1180000E+00
       11   -1    0    0    0    0  0.00000000000E+00  0.00000000000E+00  0.54999999763E+01  0.55000000000E+01  0.51109989000E-03 0. -1.
     -623   -1    0    0    0    0  0.00000000000E+00  0.00000000000E+00  0.93234578044E-11  0.17124000000E+03  0.17124000000E+03 0.  1.
       11    1    1    2    0    0 -0.15520343524E-01 -0.43435978489E-02  0.22145030119E-01  0.27393639544E-01  0.51109989000E-03 0. -1.
     -623    1    1    2    0    0  0.12315912310E-01  0.16200286381E-03  0.69844272839E-02  0.17124000059E+03  0.17124000000E+03 0.  1.
     -611    1    1    2    0    0 -0.58208687178E-01  0.81601373964E-02  0.13540252711E+01  0.13553005331E+01  0.51109989000E-03 0.  1.
      611    1    1    2    0    0  0.61413118392E-01 -0.39785424114E-02  0.41168452477E+01  0.41173052419E+01  0.51109989000E-03 0. -1.
</event>
<event>
 6   3  0.2312675E+03  0.9118800E+02  0.7818608E-02  0.1180000E+00
       11   -1    0    0    0    0  0.00000000000E+00  0.00000000000E+00  0.54999999763E+01  0.55000000000E+01  0.51109989000E-03 0. -1.
     -623   -1    0    0    0    0  0.00000000000E+00  0.00000000000E+00  0.93234578044E-11  0.17124000000E+03  0.17124000000E+03 0. -1.
       11    1    1    2    0    0  0.43484150220E-01 -0.44926091527E-01  0.10415956538E+01  0.10434706475E+01  0.51109989000E-03 0. -1.
     -623    1    1    2    0    0  0.33118281259E-02 -0.44871031972E-03  0.23520487906E-02  0.17124000005E+03  0.17124000000E+03 0. -1.
     -611    1    1    2    0    0 -0.61656206090E-02  0.59225926627E-02  0.60232592155E+00  0.60238681010E+00  0.51109989000E-03 0. -1.
      611    1    1    2    0    0 -0.40630357731E-01  0.39452209178E-01  0.38537263516E+01  0.38541424931E+01  0.51109989000E-03 0. -1.
</event>
<event>
 6   3  0.2312675E+03  0.9118800E+02  0.7818608E-02  0.1180000E+00
       11   -1    0    0    0    0  0.00000000000E+00  0.00000000000E+00  0.54999999763E+01  0.55000000000E+01  0.51109989000E-03 0.  1.
     -623   -1    0    0    0    0  0.00000000000E+00  0.00000000000E+00  0.93234578044E-11  0.17124000000E+03  0.17124000000E+03 0. -1.
       11    1    1    2    0    0  0.37429150931E-02 -0.75530565109E-03  0.21625160524E+00  0.21628591700E+00  0.51109989000E-03 0.  1.
     -623    1    1    2    0    0 -0.13445475177E-02  0.35569201891E-02  0.13397160264E-02  0.17124000005E+03  0.17124000000E+03 0. -1.
     -611    1    1    2    0    0  0.52156314424E-01  0.13988300141E-01  0.17184801909E+01  0.17193284682E+01  0.51109989000E-03 0. -1.
      611    1    1    2    0    0 -0.54554681999E-01 -0.16789914679E-01  0.35639284641E+01  0.35643855673E+01  0.51109989000E-03 0.  1.
</event>
<event>
 6   3  0.2312675E+03  0.9118800E+02  0.7818608E-02  0.1180000E+00
       11   -1    0    0    0    0  0.00000000000E+00  0.00000000000E+00  0.54999999763E+01  0.55000000000E+01  0.51109989000E-03 0.  1.
     -623   -1    0    0    0    0  0.00000000000E+00  0.00000000000E+00  0.93234578044E-11  0.17124000000E+03  0.17124000000E+03 0. -1.
       11    1    1    2    0    0 -0.63671845588E-02  0.10365838479E-01  0.71562277632E-01  0.72590718756E-01  0.51109989000E-03 0.  1.
     -623    1    1    2    0    0 -0.90486784437E-02 -0.36292273657E-02  0.17123416429E-02  0.17124000029E+03  0.17124000000E+03 0. -1.
     -611    1    1    2    0    0  0.42858577480E-01 -0.24853704626E-01  0.39881999732E+01  0.39885077224E+01  0.51109989000E-03 0.  1.
      611    1    1    2    0    0 -0.27442714478E-01  0.18117093513E-01  0.14385253838E+01  0.14389012728E+01  0.51109989000E-03 0. -1.
</event>
<event>
 6   3  0.2312675E+03  0.9118800E+02  0.7818608E-02  0.1180000E+00
       11   -1    0    0    0    0  0.00000000000E+00  0.00000000000E+00  0.54999999763E+01  0.55000000000E+01  0.51109989000E-03 0. -1.
     -623   -1    0    0    0    0  0.00000000000E+00  0.00000000000E+00  0.93234578044E-11  0.17124000000E+03  0.17124000000E+03 0.  1.
       11    1    1    2    0    0  0.44174505028E-03 -0.20488067999E-02  0.20924199467E-01  0.21035115746E-01  0.51109989000E-03 0. -1.
     -623    1    1    2    0    0 -0.15769349108E-02  0.20142012885E-02  0.77024023768E-03  0.17124000002E+03  0.17124000000E+03 0.  1.
     -611    1    1    2    0    0  0.38000863262E-01 -0.12726443371E-01  0.37740556272E+01  0.37742684279E+01  0.51109989000E-03 0. -1.
      611    1    1    2    0    0 -0.36865673401E-01  0.12761048883E-01  0.17042499093E+01  0.17046964354E+01  0.51109989000E-03 0.  1.
</event>
<event>
 6   3  0.2312675E+03  0.9118800E+02  0.7818608E-02  0.1180000E+00
       11   -1    0    0    0    0  0.00000000000E+00  0.00000000000E+00  0.54999999763E+01  0.55000000000E+01  0.51109989000E-03 0. -1.
     -623   -1    0    0    0    0  0.00000000000E+00  0.00000000000E+00  0.93234578044E-11  0.17124000000E+03  0.17124000000E+03 0.  1.
       11    1    1    2    0    0  0.30606984965E-01  0.29875699999E-01  0.10293504843E+01  0.10302388198E+01  0.51109989000E-03 0. -1.
     -623    1    1    2    0    0 -0.97656963383E-01 -0.26113549016E-01  0.14314055622E-02  0.17124002984E+03  0.17124000000E+03 0.  1.
     -611    1    1    2    0    0  0.15444034052E-01 -0.95564649321E-03  0.12942364214E+01  0.12943290181E+01  0.51109989000E-03 0.  1.
      611    1    1    2    0    0  0.51605944363E-01 -0.28065044910E-02  0.31749816648E+01  0.31754023183E+01  0.51109989000E-03 0. -1.
</event>
<event>
 6   3  0.2312675E+03  0.9118800E+02  0.7818608E-02  0.1180000E+00
       11   -1    0    0    0    0  0.00000000000E+00  0.00000000000E+00  0.54999999763E+01  0.55000000000E+01  0.51109989000E-03 0.  1.
     -623   -1    0    0    0    0  0.00000000000E+00  0.00000000000E+00  0.93234578044E-11  0.17124000000E+03  0.17124000000E+03 0. -1.
       11    1    1    2    0    0 -0.65953390590E-01  0.12426967425E-01  0.25336277272E+00  0.26210157396E+00  0.51109989000E-03 0.  1.
     -623    1    1    2    0    0  0.34632229868E-02 -0.15613747063E-01  0.91157412710E-02  0.17124000099E+03  0.17124000000E+03 0. -1.
     -611    1    1    2    0    0  0.14820057761E-01 -0.45129532604E-03  0.13771324036E+01  0.13772123133E+01  0.51109989000E-03 0. -1.
      611    1    1    2    0    0  0.47670109835E-01  0.36380749634E-02  0.38603890580E+01  0.38606851226E+01  0.51109989000E-03 0.  1.
</event>
<event>
 6   3  0.2312675E+03  0.9118800E+02  0.7818608E-02  0.1180000E+00
       11   -1    0    0    0    0  0.00000000000E+00  0.00000000000E+00  0.54999999763E+01  0.55000000000E+01  0.51109989000E-03 0. -1.
     -623   -1    0    0    0    0  0.00000000000E+00  0.00000000000E+00  0.93234578044E-11  0.17124000000E+03  0.17124000000E+03 0. -1.
       11    1    1    2    0    0 -0.25025243783E-01  0.76021538479E-02  0.54759946862E+00  0.54822394587E+00  0.51109989000E-03 0. -1.
     -623    1    1    2    0    0 -0.25207659087E-01  0.10414263950E-01  0.91440035187E-03  0.17124000217E+03  0.17124000000E+03 0. -1.
     -611    1    1    2    0    0  0.12833186968E-01 -0.44843293267E-02  0.12333039104E+01  0.12333789346E+01  0.51109989000E-03 0. -1.
      611    1    1    2    0    0  0.37399715886E-01 -0.13532088466E-01  0.37181821953E+01  0.37183949434E+01  0.51109989000E-03 0. -1.
</event>
<event>
 6   3  0.2312675E+03  0.9118800E+02  0.7818608E-02  0.1180000E+00
       11   -1    0    0    0    0  0.00000000000E+00  0.00000000000E+00  0.54999999763E+01  0.55000000000E+01  0.51109989000E-03 0.  1.
     -623   -1    0    0    0    0  0.00000000000E+00  0.00000000000E+00  0.93234578044E-11  0.17124000000E+03  0.17124000000E+03 0. -1.
       11    1    1    2    0    0 -0.64742013800E-01 -0.37198784515E-01  0.75213552492E+00  0.75583290944E+00  0.51109989000E-03 0.  1.
     -623    1    1    2    0    0  0.36933136042E-02 -0.71702553176E-02  0.43413713257E-02  0.17124000024E+03  0.17124000000E+03 0. -1.
     -611    1    1    2    0    0  0.43434311412E-01  0.41483002453E-01  0.38027267397E+01  0.38032010592E+01  0.51109989000E-03 0.  1.
      611    1    1    2    0    0  0.17614388784E-01  0.28860373802E-02  0.94079634040E+00  0.94096578643E+00  0.51109989000E-03 0. -1.
</event>
<event>
 6   3  0.2312675E+03  0.9118800E+02  0.7818608E-02  0.1180000E+00
       11   -1    0    0    0    0  0.00000000000E+00  0.00000000000E+00  0.54999999763E+01  0.55000000000E+01  0.51109989000E-03 0.  1.
     -623   -1    0    0    0    0  0.00000000000E+00  0.00000000000E+00  0.93234578044E-11  0.17124000000E+03  0.17124000000E+03 0.  1.
       11    1    1    2    0    0 -0.22920028033E-01  0.61614018476E-02  0.59912401172E+00  0.59959414040E+00  0.51109989000E-03 0.  1.
     -623    1    1    2    0    0  0.18016547917E-01  0.11167555416E-01  0.93390154525E-03  0.17124000131E+03  0.17124000000E+03 0.  1.
     -611    1    1    2    0    0 -0.28108184920E-01 -0.29954658686E-03  0.27273758578E+01  0.27275207590E+01  0.51109989000E-03 0.  1.
      611    1    1    2    0    0  0.33011665036E-01 -0.17029410677E-01  0.21725662052E+01  0.21728837862E+01  0.51109989000E-03 0. -1.
</event>
<event>
 6   3  0.2312675E+03  0.9118800E+02  0.7818608E-02  0.1180000E+00
       11   -1    0    0    0    0  0.00000000000E+00  0.00000000000E+00  0.54999999763E+01  0.55000000000E+01  0.51109989000E-03 0. -1.
     -623   -1    0    0    0    0  0.00000000000E+00  0.00000000000E+00  0.93234578044E-11  0.17124000000E+03  0.17124000000E+03 0.  1.
       11    1    1    2    0    0  0.95713866090E-02  0.26391926884E-01  0.10712060789E+01  0.10715740151E+01  0.51109989000E-03 0. -1.
     -623    1    1    2    0    0 -0.19395299973E-01 -0.42673969869E-01  0.88751597832E-03  0.17124000642E+03  0.17124000000E+03 0.  1.
     -611    1    1    2    0    0  0.36598420563E-01  0.17110643606E-01  0.24844538434E+01  0.24847823606E+01  0.51109989000E-03 0. -1.
      611    1    1    2    0    0 -0.26774507199E-01 -0.82860062013E-03  0.19434525381E+01  0.19436372063E+01  0.51109989000E-03 0.  1.
</event>
<event>
 6   3  0.2312675E+03  0.9118800E+02  0.7818608E-02  0.1180000E+00
       11   -1    0    0    0    0  0.00000000000E+00  0.00000000000E+00  0.54999999763E+01  0.55000000000E+01  0.51109989000E-03 0.  1.
     -623   -1    0    0    0    0  0.00000000000E+00  0.00000000000E+00  0.93234578044E-11  0.17124000000E+03  0.17124000000E+03 0. -1.
       11    1    1    2    0    0  0.88665795718E-02 -0.41323571822E-02  0.14856807549E-01  0.17795464670E-01  0.51109989000E-03 0.  1.
     -623    1    1    2    0    0 -0.35394240523E-02  0.26264387826E-03  0.66304665463E-02  0.17124000017E+03  0.17124000000E+03 0. -1.
     -611    1    1    2    0    0 -0.57569769806E-01  0.86061587816E-01  0.26945950068E+01  0.26965836511E+01  0.51109989000E-03 0.  1.
      611    1    1    2    0    0  0.52242614286E-01 -0.82191874512E-01  0.27839176954E+01  0.27856207191E+01  0.51109989000E-03 0. -1.
</event>
<event>
 6   3  0.2312675E+03  0.9118800E+02  0.7818608E-02  0.1180000E+00
       11   -1    0    0    0    0  0.00000000000E+00  0.00000000000E+00  0.54999999763E+01  0.55000000000E+01  0.51109989000E-03 0. -1.
     -623   -1    0    0    0    0  0.00000000000E+00  0.00000000000E+00  0.93234578044E-11  0.17124000000E+03  0.17124000000E+03 0. -1.
       11    1    1    2    0    0 -0.13522681355E-01 -0.27051435262E-02  0.26405657468E-01  0.29794306200E-01  0.51109989000E-03 0. -1.
     -623    1    1    2    0    0  0.49239175525E-03  0.49436550035E-02  0.39102135304E-02  0.17124000012E+03  0.17124000000E+03 0. -1.
     -611    1    1    2    0    0  0.40432580003E-01  0.92156760276E-02  0.40403740896E+01  0.40405869335E+01  0.51109989000E-03 0.  1.
      611    1    1    2    0    0 -0.27402290404E-01 -0.11454187505E-01  0.14293100156E+01  0.14296186435E+01  0.51109989000E-03 0. -1.
</event>
<event>
 6   3  0.2312675E+03  0.9118800E+02  0.7818608E-02  0.1180000E+00
       11   -1    0    0    0    0  0.00000000000E+00  0.00000000000E+00  0.54999999763E+01  0.55000000000E+01  0.51109989000E-03 0.  1.
     -623   -1    0    0    0    0  0.00000000000E+00  0.00000000000E+00  0.93234578044E-11  0.17124000000E+03  0.17124000000E+03 0.  1.
       11    1    1    2    0    0  0.17944173859E-01  0.28307883550E-01  0.36539752955E+00  0.36693179948E+00  0.51109989000E-03 0.  1.
     -623    1    1    2    0    0 -0.38345119641E-01 -0.18097438882E-01  0.27426944236E-02  0.17124000527E+03  0.17124000000E+03 0.  1.
     -611    1    1    2    0    0 -0.34635282878E-01 -0.13439077077E-01  0.81017279783E+00  0.81102431232E+00  0.51109989000E-03 0. -1.
      611    1    1    2    0    0  0.55036228661E-01  0.32286324086E-02  0.43216869545E+01  0.43220386167E+01  0.51109989000E-03 0.  1.
</event>
<event>
 6   3  0.2312675E+03  0.9118800E+02  0.7818608E-02  0.1180000E+00
       11   -1    0    0    0    0  0.00000000000E+00  0.00000000000E+00  0.54999999763E+01  0.55000000000E+01  0.51109989000E-03 0.  1.
     -623   -1    0    0    0    0  0.00000000000E+00  0.00000000000E+00  0.93234578044E-11  0.17124000000E+03  0.17124000000E+03 0.  1.
       11    1    1    2    0    0 -0.10305217326E-01  0.30342236863E-04  0.81807348512E+00  0.81813854982E+00  0.51109989000E-03 0.  1.
     -623    1    1    2    0    0  0.62832460956E-01  0.33235609874E-04  0.37156195213E-03  0.17124001153E+03  0.17124000000E+03 0.  1.
     -611    1    1    2    0    0 -0.32565832188E-01  0.59794898889E-03  0.28828321910E+01  0.28830162320E+01  0.51109989000E-03 0. -1.
      611    1    1    2    0    0 -0.19961411825E-01 -0.66152683581E-03  0.17987227717E+01  0.17988337239E+01  0.51109989000E-03 0.  1.
</event>
<event>
 6   3  0.2312675E+03  0.9118800E+02  0.7818608E-02  0.1180000E+00
       11   -1    0    0    0    0  0.00000000000E+00  0.00000000000E+00  0.54999999763E+01  0.55000000000E+01  0.51109989000E-03 0.  1.
     -623   -1    0    0    0    0  0.00000000000E+00  0.00000000000E+00  0.93234578044E-11  0.17124000000E+03  0.17124000000E+03 0. -1.
       11    1    1    2    0    0 -0.59536583131E-01  0.10971284120E-01  0.52289525325E+00  0.52638833660E+00  0.51109989000E-03 0.  1.
     -623    1    1    2    0    0 -0.23735659229E-02 -0.57283278990E-02  0.48365464796E-02  0.17124000018E+03  0.17124000000E+03 0. -1.
     -611    1    1    2    0    0  0.86806423404E-01 -0.83847190587E-02  0.32884567012E+01  0.32896129553E+01  0.51109989000E-03 0. -1.
      611    1    1    2    0    0 -0.24896274350E-01  0.31417628378E-02  0.16838114754E+01  0.16839985276E+01  0.51109989000E-03 0.  1.
</event>
<event>
 6   3  0.2312675E+03  0.9118800E+02  0.7818608E-02  0.1180000E+00
       11   -1    0    0    0    0  0.00000000000E+00  0.00000000000E+00  0.54999999763E+01  0.55000000000E+01  0.51109989000E-03 0.  1.
     -623   -1    0    0    0    0  0.00000000000E+00  0.00000000000E+00  0.93234578044E-11  0.17124000000E+03  0.17124000000E+03 0.  1.
       11    1    1    2    0    0  0.47252318927E-03  0.15420615932E-02  0.24707867488E-02  0.29945354193E-02  0.51109989000E-03 0.  1.
     -623    1    1    2    0    0 -0.85937202417E-03 -0.28505689330E-02  0.19816902768E-02  0.17124000004E+03  0.17124000000E+03 0.  1.
     -611    1    1    2    0    0  0.38391626817E-01 -0.49802762139E-01  0.27738769402E+01  0.27745896584E+01  0.51109989000E-03 0. -1.
      611    1    1    2    0    0 -0.38004777982E-01  0.51111269479E-01  0.27216705591E+01  0.27224157688E+01  0.51109989000E-03 0.  1.
</event>
<event>
 6   3  0.2312675E+03  0.9118800E+02  0.7818608E-02  0.1180000E+00
       11   -1    0    0    0    0  0.00000000000E+00  0.00000000000E+00  0.54999999763E+01  0.55000000000E+01  0.51109989000E-03 0.  1.
     -623   -1    0    0    0    0  0.00000000000E+00  0.00000000000E+00  0.93234578044E-11  0.17124000000E+03  0.17124000000E+03 0.  1.
       11    1    1    2    0    0 -0.40212117178E-01 -0.93956808712E-02  0.69354361383E+00  0.69477211997E+00  0.51109989000E-03 0.  1.
     -623    1    1    2    0    0 -0.46700838400E-01 -0.17931229564E-01  0.21031224845E-02  0.17124000732E+03  0.17124000000E+03 0.  1.
     -611    1    1    2    0    0  0.73667212408E-01  0.22740604455E-01  0.41641468759E+01  0.41648605569E+01  0.51109989000E-03 0.  1.
      611    1    1    2    0    0  0.13245743168E-01  0.45863059798E-02  0.64020636382E+00  0.64036000298E+00  0.51109989000E-03 0. -1.
</event>
<event>
 6   3  0.2312675E+03  0.9118800E+02  0.7818608E-02  0.1180000E+00
       11   -1    0    0    0    0  0.00000000000E+00  0.00000000000E+00  0.54999999763E+01  0.55000000000E+01  0.51109989000E-03 0.  1.
     -623   -1    0    0    0    0  0.00000000000E+00  0.00000000000E+00  0.93234578044E-11  0.17124000000E+03  0.17124000000E+03 0.  1.
       11    1    1    2    0    0  0.76760808473E-02 -0.38067399658E-03  0.35241144232E+00  0.35249560711E+00  0.51109989000E-03 0.  1.
     -623    1    1    2    0    0 -0.13054696395E+00 -0.24070833765E-01  0.16610071650E-02  0.17124005146E+03  0.17124000000E+03 0.  1.
     -611    1    1    2    0    0  0.69495317194E-01  0.13432375888E-01  0.28627857489E+01  0.28636606875E+01  0.51109989000E-03 0.  1.
      611    1    1    2    0    0  0.53375565971E-01  0.11019131885E-01  0.22831417805E+01  0.22837922461E+01  0.51109989000E-03 0. -1.
</event>
<event>
 6   3  0.2312675E+03  0.9118800E+02  0.7818608E-02  0.1180000E+00
       11   -1    0    0    0    0  0.00000000000E+00  0.00000000000E+00  0.54999999763E+01  0.55000000000E+01  0.51109989000E-03 0. -1.
     -623   -1    0    0    0    0  0.00000000000E+00  0.00000000000E+00  0.93234578044E-11  0.17124000000E+03  0.17124000000E+03 0. -1.
       11    1    1    2    0    0  0.76792632219E-02  0.18113403507E-01  0.45746884994E+00  0.45789199202E+00  0.51109989000E-03 0. -1.
     -623    1    1    2    0    0  0.33971103221E-03 -0.43408667806E-02  0.83165601018E-03  0.17124000006E+03  0.17124000000E+03 0. -1.
     -611    1    1    2    0    0  0.23374870305E-01  0.91864439435E-02  0.21562968578E+01  0.21564431769E+01  0.51109989000E-03 0.  1.
      611    1    1    2    0    0 -0.31393844559E-01 -0.22958980670E-01  0.28854026125E+01  0.28856647736E+01  0.51109989000E-03 0. -1.
</event>
<event>
 6   3  0.2312675E+03  0.9118800E+02  0.7818608E-02  0.1180000E+00
       11   -1    0    0    0    0  0.00000000000E+00  0.00000000000E+00  0.54999999763E+01  0.55000000000E+01  0.51109989000E-03 0.  1.
     -623   -1    0    0    0    0  0.00000000000E+00  0.00000000000E+00  0.93234578044E-11  0.17124000000E+03  0.17124000000E+03 0.  1.
       11    1    1    2    0    0 -0.35621195807E-02  0.16023346299E-02  0.51139268810E+00  0.51140785958E+00  0.51109989000E-03 0.  1.
     -623    1    1    2    0    0 -0.60637105590E-01 -0.11021518590E-01  0.44907555535E-03  0.17124001109E+03  0.17124000000E+03 0.  1.
     -611    1    1    2    0    0  0.49294610289E-01  0.82696167281E-02  0.38688258331E+01  0.38691487349E+01  0.51109989000E-03 0.  1.
      611    1    1    2    0    0  0.14904614887E-01  0.11495672319E-02  0.11193323798E+01  0.11194323145E+01  0.51109989000E-03 0.  1.
</event>
<event>
 6   3  0.2312675E+03  0.9118800E+02  0.7818608E-02  0.1180000E+00
       11   -1    0    0    0    0  0.00000000000E+00  0.00000000000E+00  0.54999999763E+01  0.55000000000E+01  0.51109989000E-03 0. -1.
     -623   -1    0    0    0    0  0.00000000000E+00  0.00000000000E+00  0.93234578044E-11  0.17124000000E+03  0.17124000000E+03 0. -1.
       11    1    1    2    0    0 -0.12202777626E-01  0.46909383723E-01  0.93896147057E+00  0.94021183916E+00  0.51109989000E-03 0. -1.
     -623    1    1    2    0    0 -0.54092307214E-01 -0.22116119564E-01  0.22296956201E-02  0.17124000999E+03  0.17124000000E+03 0. -1.
     -611    1    1    2    0    0  0.72522662115E-01 -0.71767796870E-02  0.39812311432E+01  0.39818981302E+01  0.51109989000E-03 0. -1.
      611    1    1    2    0    0 -0.62275772752E-02 -0.17616484472E-01  0.57757766696E+00  0.57788004450E+00  0.51109989000E-03 0.  1.
</event>
<event>
 6   3  0.2312675E+03  0.9118800E+02  0.7818608E-02  0.1180000E+00
       11   -1    0    0    0    0  0.00000000000E+00  0.00000000000E+00  0.54999999763E+01  0.55000000000E+01  0.51109989000E-03 0.  1.
     -623   -1    0    0    0    0  0.00000000000E+00  0.00000000000E+00  0.93234578044E-11  0.17124000000E+03  0.17124000000E+03 0.  1.
       11    1    1    2    0    0  0.53358726345E-01 -0.55959871226E-01  0.10052350760E+01  0.10082045824E+01  0.51109989000E-03 0.  1.
     -623    1    1    2    0    0  0.12168894008E-02  0.60964744498E-02  0.35782813183E-02  0.17124000015E+03  0.17124000000E+03 0.  1.
     -611    1    1    2    0    0 -0.75967221831E-02  0.66898963464E-02  0.60838286457E+00  0.60846728427E+00  0.51109989000E-03 0.  1.
      611    1    1    2    0    0 -0.46978893565E-01  0.43173500432E-01  0.38828037546E+01  0.38833279833E+01  0.51109989000E-03 0.  1.
</event>
<event>
 6   3  0.2312675E+03  0.9118800E+02  0.7818608E-02  0.1180000E+00
       11   -1    0    0    0    0  0.00000000000E+00  0.00000000000E+00  0.54999999763E+01  0.55000000000E+01  0.51109989000E-03 0. -1.
     -623   -1    0    0    0    0  0.00000000000E+00  0.00000000000E+00  0.93234578044E-11  0.17124000000E+03  0.17124000000E+03 0. -1.
       11    1    1    2    0    0 -0.79718912487E-02  0.27168004553E-01  0.84699261461E+00  0.84746587067E+00  0.51109989000E-03 0. -1.
     -623    1    1    2    0    0  0.11686985342E+00 -0.48168208810E-01  0.18478211338E-02  0.17124004667E+03  0.17124000000E+03 0. -1.
     -611    1    1    2    0    0 -0.68136955832E-01  0.13168841555E-01  0.30562139698E+01  0.30570018243E+01  0.51109989000E-03 0. -1.
      611    1    1    2    0    0 -0.40761006339E-01  0.78313627007E-02  0.15949455705E+01  0.15954856389E+01  0.51109989000E-03 0.  1.
</event>
<event>
 6   3  0.2312675E+03  0.9118800E+02  0.7818608E-02  0.1180000E+00
       11   -1    0    0    0    0  0.00000000000E+00  0.00000000000E+00  0.54999999763E+01  0.55000000000E+01  0.51109989000E-03 0.  1.
     -623   -1    0    0    0    0  0.00000000000E+00  0.00000000000E+00  0.93234578044E-11  0.17124000000E+03  0.17124000000E+03 0. -1.
       11    1    1    2    0    0  0.60501344590E-01 -0.43772031491E-01  0.98559785438E+00  0.98842288279E+00  0.51109989000E-03 0.  1.
     -623    1    1    2    0    0  0.47376831571E-02  0.93911633749E-02  0.34290422435E-02  0.17124000036E+03  0.17124000000E+03 0. -1.
     -611    1    1    2    0    0 -0.51595496390E-01  0.26268005189E-01  0.35832471533E+01  0.35837149059E+01  0.51109989000E-03 0.  1.
      611    1    1    2    0    0 -0.13643531348E-01  0.81128629216E-02  0.92772592570E+00  0.92786185336E+00  0.51109989000E-03 0. -1.
</event>
<event>
 6   3  0.2312675E+03  0.9118800E+02  0.7818608E-02  0.1180000E+00
       11   -1    0    0    0    0  0.00000000000E+00  0.00000000000E+00  0.54999999763E+01  0.55000000000E+01  0.51109989000E-03 0.  1.
     -623   -1    0    0    0    0  0.00000000000E+00  0.00000000000E+00  0.93234578044E-11  0.17124000000E+03  0.17124000000E+03 0. -1.
       11    1    1    2    0    0  0.59801058737E-01  0.40972644999E-01  0.28824213533E+00  0.29721829363E+00  0.51109989000E-03 0.  1.
     -623    1    1    2    0    0  0.90356505042E-02 -0.43602570022E-02  0.95612207997E-02  0.17124000056E+03  0.17124000000E+03 0. -1.
     -611    1    1    2    0    0 -0.54318113021E-01 -0.28497353911E-01  0.40684083232E+01  0.40688707404E+01  0.51109989000E-03 0.  1.
      611    1    1    2    0    0 -0.14518596142E-01 -0.81150340439E-02  0.11337882911E+01  0.11339103993E+01  0.51109989000E-03 0.  1.
</event>
<event>
 6   3  0.2312675E+03  0.9118800E+02  0.7818608E-02  0.1180000E+00
       11   -1    0    0    0    0  0.00000000000E+00  0.00000000000E+00  0.54999999763E+01  0.55000000000E+01  0.51109989000E-03 0.  1.
     -623   -1    0    0    0    0  0.00000000000E+00  0.00000000000E+00  0.93234578044E-11  0.17124000000E+03  0.17124000000E+03 0.  1.
       11    1    1    2    0    0 -0.30009246633E-02 -0.21638095861E-02  0.14538932812E+00  0.14543729087E+00  0.51109989000E-03 0.  1.
     -623    1    1    2    0    0 -0.12779194481E-01  0.14386287697E-01  0.11789233188E-02  0.17124000109E+03  0.17124000000E+03 0.  1.
     -611    1    1    2    0    0 -0.44402098869E-01 -0.13142961543E-01  0.16854938823E+01  0.16861299393E+01  0.51109989000E-03 0. -1.
      611    1    1    2    0    0  0.60182218013E-01  0.92048343257E-03  0.36679378425E+01  0.36684316846E+01  0.51109989000E-03 0.  1.
</event>
<event>
 6   3  0.2312675E+03  0.9118800E+02  0.7818608E-02  0.1180000E+00
       11   -1    0    0    0    0  0.00000000000E+00  0.00000000000E+00  0.54999999763E+01  0.55000000000E+01  0.51109989000E-03 0.  1.
     -623   -1    0    0    0    0  0.00000000000E+00  0.00000000000E+00  0.93234578044E-11  0.17124000000E+03  0.17124000000E+03 0. -1.
       11    1    1    2    0    0 -0.13150597995E-01  0.50841409017E-02  0.79568342812E-01  0.80809461805E-01  0.51109989000E-03 0.  1.
     -623    1    1    2    0    0 -0.62052049946E-01 -0.81724056641E-01  0.23460575171E-02  0.17124003076E+03  0.17124000000E+03 0. -1.
     -611    1    1    2    0    0  0.37454049070E-01  0.37965543222E-01  0.24264925910E+01  0.24270786439E+01  0.51109989000E-03 0. -1.
      611    1    1    2    0    0  0.37748598873E-01  0.38674372518E-01  0.29915929850E+01  0.29920811341E+01  0.51109989000E-03 0.  1.
</event>
<event>
 6   3  0.2312675E+03  0.9118800E+02  0.7818608E-02  0.1180000E+00
       11   -1    0    0    0    0  0.00000000000E+00  0.00000000000E+00  0.54999999763E+01  0.55000000000E+01  0.51109989000E-03 0. -1.
     -623   -1    0    0    0    0  0.00000000000E+00  0.00000000000E+00  0.93234578044E-11  0.17124000000E+03  0.17124000000E+03 0.  1.
       11    1    1    2    0    0  0.11668227510E-01 -0.38112109454E-01  0.84111533318E+00  0.84205934788E+00  0.51109989000E-03 0. -1.
     -623    1    1    2    0    0  0.17014733011E-01  0.16474817391E-01  0.37535845509E-02  0.17124000168E+03  0.17124000000E+03 0.  1.
     -611    1    1    2    0    0  0.50688664341E-01  0.16844475587E-01  0.33274885965E+01  0.33279173214E+01  0.51109989000E-03 0.  1.
      611    1    1    2    0    0 -0.79371624862E-01  0.47928164765E-02  0.13276424620E+01  0.13300216517E+01  0.51109989000E-03 0. -1.
</event>
<event>
 6   3  0.2312675E+03  0.9118800E+02  0.7818608E-02  0.1180000E+00
       11   -1    0    0    0    0  0.00000000000E+00  0.00000000000E+00  0.54999999763E+01  0.55000000000E+01  0.51109989000E-03 0. -1.
     -623   -1    0    0    0    0  0.00000000000E+00  0.00000000000E+00  0.93234578044E-11  0.17124000000E+03  0.17124000000E+03 0.  1.
       11    1    1    2    0    0 -0.12995497846E-02 -0.55998881199E-03  0.10288889892E-01  0.10398312142E-01  0.51109989000E-03 0. -1.
     -623    1    1    2    0    0  0.37612246525E-03  0.60619983469E-03  0.58411674321E-03  0.17124000000E+03  0.17124000000E+03 0.  1.
     -611    1    1    2    0    0  0.35582459632E-01 -0.80483077875E-02  0.29457904306E+01  0.29460163627E+01  0.51109989000E-03 0.  1.
      611    1    1    2    0    0 -0.34659032313E-01  0.80020967648E-02  0.25433365391E+01  0.25435853228E+01  0.51109989000E-03 0. -1.
</event>
<event>
 6   3  0.2312675E+03  0.9118800E+02  0.7818608E-02  0.1180000E+00
       11   -1    0    0    0    0  0.00000000000E+00  0.00000000000E+00  0.54999999763E+01  0.55000000000E+01  0.51109989000E-03 0.  1.
     -623   -1    0    0    0    0  0.00000000000E+00  0.00000000000E+00  0.93234578044E-11  0.17124000000E+03  0.17124000000E+03 0.  1.
       11    1    1    2    0    0 -0.56590184761E-02  0.21309142923E-02  0.56871789400E-02  0.83168812200E-02  0.51109989000E-03 0.  1.
     -623    1    1    2    0    0  0.25716429542E-02 -0.54042637287E-02  0.41745493736E-02  0.17124000016E+03  0.17124000000E+03 0.  1.
     -611    1    1    2    0    0  0.46126607288E-01 -0.45748398789E-01  0.26706475168E+01  0.26714376280E+01  0.51109989000E-03 0. -1.
      611    1    1    2    0    0 -0.43039231766E-01  0.49021748226E-01  0.28194907311E+01  0.28202453353E+01  0.51109989000E-03 0.  1.
</event>
<event>
 6   3  0.2312675E+03  0.9118800E+02  0.7818608E-02  0.1180000E+00
       11   -1    0    0    0    0  0.00000000000E+00  0.00000000000E+00  0.54999999763E+01  0.55000000000E+01  0.51109989000E-03 0.  1.
     -623   -1    0    0    0    0  0.00000000000E+00  0.00000000000E+00  0.93234578044E-11  0.17124000000E+03  0.17124000000E+03 0.  1.
       11    1    1    2    0    0 -0.41672506884E-01 -0.40581852828E-01  0.99777643610E+00  0.99947064103E+00  0.51109989000E-03 0.  1.
     -623    1    1    2    0    0  0.64381362726E-02  0.78769224052E-02  0.54998268163E-02  0.17124000039E+03  0.17124000000E+03 0.  1.
     -611    1    1    2    0    0 -0.29077260659E-01 -0.48195660842E-01  0.28553253447E+01  0.28558801435E+01  0.51109989000E-03 0.  1.
      611    1    1    2    0    0  0.64311631271E-01  0.80900591264E-01  0.16413983687E+01  0.16446488250E+01  0.51109989000E-03 0. -1.
</event>
<event>
 6   3  0.2312675E+03  0.9118800E+02  0.7818608E-02  0.1180000E+00
       11   -1    0    0    0    0  0.00000000000E+00  0.00000000000E+00  0.54999999763E+01  0.55000000000E+01  0.51109989000E-03 0.  1.
     -623   -1    0    0    0    0  0.00000000000E+00  0.00000000000E+00  0.93234578044E-11  0.17124000000E+03  0.17124000000E+03 0. -1.
       11    1    1    2    0    0  0.50805601183E-02 -0.37883269028E-02  0.65657634147E-01  0.65964760719E-01  0.51109989000E-03 0.  1.
     -623    1    1    2    0    0 -0.10875827300E-01 -0.14993460989E-02  0.15464554551E-02  0.17124000036E+03  0.17124000000E+03 0. -1.
     -611    1    1    2    0    0  0.54958363732E-01  0.22668488030E-01  0.36233560310E+01  0.36238437426E+01  0.51109989000E-03 0.  1.
      611    1    1    2    0    0 -0.49163096550E-01 -0.17380815028E-01  0.18094398557E+01  0.18101911378E+01  0.51109989000E-03 0. -1.
</event>
<event>
 6   3  0.2360699E+03  0.9118800E+02  0.7818608E-02  0.1180000E+00
       11   -1    0    0    0    0  0.00000000000E+00  0.00000000000E+00  0.54999999763E+01  0.55000000000E+01  0.51109989000E-03 0.  1.
     -623   -1    0    0    0    0  0.00000000000E+00  0.00000000000E+00  0.93234578044E-11  0.17124000000E+03  0.17124000000E+03 0. -1.
       11    1    1    2    0    0 -0.12661213806E-02  0.92115413129E-02  0.28565429120E-01  0.30044974964E-01  0.51109989000E-03 0.  1.
     -623    1    1    2    0    0  0.16569546733E-02 -0.11420080735E-01  0.25170690637E-02  0.17124000041E+03  0.17124000000E+03 0. -1.
     -611    1    1    2    0    0  0.43526368168E-01 -0.29289646096E-01  0.26898316159E+01  0.26903432516E+01  0.51109989000E-03 0. -1.
      611    1    1    2    0    0 -0.43917201461E-01  0.31498185519E-01  0.27790858622E+01  0.27796113661E+01  0.51109989000E-03 0.  1.
</event>
<event>
 6   3  0.2312675E+03  0.9118800E+02  0.7818608E-02  0.1180000E+00
       11   -1    0    0    0    0  0.00000000000E+00  0.00000000000E+00  0.54999999763E+01  0.55000000000E+01  0.51109989000E-03 0. -1.
     -623   -1    0    0    0    0  0.00000000000E+00  0.00000000000E+00  0.93234578044E-11  0.17124000000E+03  0.17124000000E+03 0. -1.
       11    1    1    2    0    0  0.43188929468E-01  0.21726334232E-01  0.10949027294E+01  0.10959696918E+01  0.51109989000E-03 0. -1.
     -623    1    1    2    0    0  0.38068447556E-02 -0.62279489471E-02  0.13460357270E-02  0.17124000016E+03  0.17124000000E+03 0. -1.
     -611    1    1    2    0    0 -0.14965251254E-01 -0.39162595872E-02  0.13124386589E+01  0.13125299199E+01  0.51109989000E-03 0.  1.
      611    1    1    2    0    0 -0.32030522974E-01 -0.11582125699E-01  0.30913125527E+01  0.30915002280E+01  0.51109989000E-03 0. -1.
</event>
<event>
 6   3  0.2312675E+03  0.9118800E+02  0.7818608E-02  0.1180000E+00
       11   -1    0    0    0    0  0.00000000000E+00  0.00000000000E+00  0.54999999763E+01  0.55000000000E+01  0.51109989000E-03 0. -1.
     -623   -1    0    0    0    0  0.00000000000E+00  0.00000000000E+00  0.93234578044E-11  0.17124000000E+03  0.17124000000E+03 0. -1.
       11    1    1    2    0    0  0.56931538326E-03 -0.43418319782E-02  0.33080564367E-02  0.55118132605E-02  0.51109989000E-03 0. -1.
     -623    1    1    2    0    0 -0.43365546738E-02 -0.95565992969E-03  0.30158682467E-02  0.17124000008E+03  0.17124000000E+03 0. -1.
     -611    1    1    2    0    0 -0.39146527217E-01 -0.17244788765E-01  0.32950361052E+01  0.32953137983E+01  0.51109989000E-03 0. -1.
      611    1    1    2    0    0  0.42913766508E-01  0.22542280673E-01  0.21986399463E+01  0.21991743043E+01  0.51109989000E-03 0.  1.
</event>
<event>
 6   3  0.2312675E+03  0.9118800E+02  0.7818608E-02  0.1180000E+00
       11   -1    0    0    0    0  0.00000000000E+00  0.00000000000E+00  0.54999999763E+01  0.55000000000E+01  0.51109989000E-03 0.  1.
     -623   -1    0    0    0    0  0.00000000000E+00  0.00000000000E+00  0.93234578044E-11  0.17124000000E+03  0.17124000000E+03 0. -1.
       11    1    1    2    0    0 -0.20887065682E-02  0.33517208917E-03  0.13719207097E-01  0.13890748790E-01  0.51109989000E-03 0.  1.
     -623    1    1    2    0    0  0.17286370584E-01 -0.12448415133E-01  0.97487082239E-03  0.17124000133E+03  0.17124000000E+03 0. -1.
     -611    1    1    2    0    0  0.28861178973E-01 -0.18818607086E-01  0.13029847882E+01  0.13034403427E+01  0.51109989000E-03 0. -1.
      611    1    1    2    0    0 -0.44058842988E-01  0.30931850130E-01  0.41823211101E+01  0.41826675807E+01  0.51109989000E-03 0.  1.
</event>
<event>
 6   3  0.2312675E+03  0.9118800E+02  0.7818608E-02  0.1180000E+00
       11   -1    0    0    0    0  0.00000000000E+00  0.00000000000E+00  0.54999999763E+01  0.55000000000E+01  0.51109989000E-03 0. -1.
     -623   -1    0    0    0    0  0.00000000000E+00  0.00000000000E+00  0.93234578044E-11  0.17124000000E+03  0.17124000000E+03 0. -1.
       11    1    1    2    0    0  0.99136303255E-01 -0.33416964857E-01  0.49285686136E+00  0.50383811604E+00  0.51109989000E-03 0. -1.
     -623    1    1    2    0    0  0.60239289988E-02  0.53504056755E-01  0.12137515182E-01  0.17124000889E+03  0.17124000000E+03 0. -1.
     -611    1    1    2    0    0 -0.42586282086E-01 -0.82506931289E-02  0.20085837252E+01  0.20090521416E+01  0.51109989000E-03 0. -1.
      611    1    1    2    0    0 -0.62573950225E-01 -0.11836398780E-01  0.29864218772E+01  0.29871008503E+01  0.51109989000E-03 0. -1.
</event>
<event>
 6   3  0.2312675E+03  0.9118800E+02  0.7818608E-02  0.1180000E+00
       11   -1    0    0    0    0  0.00000000000E+00  0.00000000000E+00  0.54999999763E+01  0.55000000000E+01  0.51109989000E-03 0. -1.
     -623   -1    0    0    0    0  0.00000000000E+00  0.00000000000E+00  0.93234578044E-11  0.17124000000E+03  0.17124000000E+03 0. -1.
       11    1    1    2    0    0 -0.42772066602E-01  0.13577041838E-01  0.63598446604E+00  0.63756590876E+00  0.51109989000E-03 0. -1.
     -623    1    1    2    0    0 -0.10272211940E-01  0.70648065245E-05  0.18932678497E-02  0.17124000032E+03  0.17124000000E+03 0. -1.
     -611    1    1    2    0    0  0.34897799898E-01 -0.62339465582E-02  0.31502824830E+01  0.31504819794E+01  0.51109989000E-03 0. -1.
      611    1    1    2    0    0  0.18146478646E-01 -0.73501600867E-02  0.17118397597E+01  0.17119517936E+01  0.51109989000E-03 0.  1.
</event>
<event>
 6   3  0.2312675E+03  0.9118800E+02  0.7818608E-02  0.1180000E+00
       11   -1    0    0    0    0  0.00000000000E+00  0.00000000000E+00  0.54999999763E+01  0.55000000000E+01  0.51109989000E-03 0. -1.
     -623   -1    0    0    0    0  0.00000000000E+00  0.00000000000E+00  0.93234578044E-11  0.17124000000E+03  0.17124000000E+03 0.  1.
       11    1    1    2    0    0 -0.33055904198E-02  0.14502392634E-01  0.47833241948E-01  0.50095175202E-01  0.51109989000E-03 0. -1.
     -623    1    1    2    0    0  0.19447370868E-01 -0.11502009202E-01  0.46730151821E-02  0.17124000155E+03  0.17124000000E+03 0.  1.
     -611    1    1    2    0    0 -0.74553648888E-01  0.39866642145E-01  0.22480377302E+01  0.22496269676E+01  0.51109989000E-03 0.  1.
      611    1    1    2    0    0  0.58411868440E-01 -0.42867025577E-01  0.31994559889E+01  0.32002763028E+01  0.51109989000E-03 0. -1.
</event>
<event>
 6   3  0.2312675E+03  0.9118800E+02  0.7818608E-02  0.1180000E+00
       11   -1    0    0    0    0  0.00000000000E+00  0.00000000000E+00  0.54999999763E+01  0.55000000000E+01  0.51109989000E-03 0. -1.
     -623   -1    0    0    0    0  0.00000000000E+00  0.00000000000E+00  0.93234578044E-11  0.17124000000E+03  0.17124000000E+03 0.  1.
       11    1    1    2    0    0  0.25957699270E-01 -0.19984936917E-01  0.51607220577E+00  0.51711118983E+00  0.51109989000E-03 0. -1.
     -623    1    1    2    0    0  0.29055335995E-01  0.46560591992E-01  0.14225653108E-02  0.17124000880E+03  0.17124000000E+03 0.  1.
     -611    1    1    2    0    0 -0.10615817368E-01 -0.48005361326E-02  0.96150534085E+00  0.96157606170E+00  0.51109989000E-03 0. -1.
      611    1    1    2    0    0 -0.44397217930E-01 -0.21775118959E-01  0.40209998673E+01  0.40213039505E+01  0.51109989000E-03 0. -1.
</event>
<event>
 6   3  0.2312675E+03  0.9118800E+02  0.7818608E-02  0.1180000E+00
       11   -1    0    0    0    0  0.00000000000E+00  0.00000000000E+00  0.54999999763E+01  0.55000000000E+01  0.51109989000E-03 0.  1.
     -623   -1    0    0    0    0  0.00000000000E+00  0.00000000000E+00  0.93234578044E-11  0.17124000000E+03  0.17124000000E+03 0.  1.
       11    1    1    2    0    0 -0.71602697396E-02 -0.37579954733E-02  0.14860155027E+00  0.14882228986E+00  0.51109989000E-03 0.  1.
     -623    1    1    2    0    0 -0.47701280451E-01  0.34330919187E-01  0.59959731401E-03  0.17124001009E+03  0.17124000000E+03 0.  1.
     -611    1    1    2    0    0  0.30543450662E-01 -0.16730690168E-01  0.30095564055E+01  0.30097579367E+01  0.51109989000E-03 0.  1.
      611    1    1    2    0    0  0.24318099496E-01 -0.13842233527E-01  0.23412424199E+01  0.23414096838E+01  0.51109989000E-03 0.  1.
</event>
<event>
 6   3  0.2312675E+03  0.9118800E+02  0.7818608E-02  0.1180000E+00
       11   -1    0    0    0    0  0.00000000000E+00  0.00000000000E+00  0.54999999763E+01  0.55000000000E+01  0.51109989000E-03 0.  1.
     -623   -1    0    0    0    0  0.00000000000E+00  0.00000000000E+00  0.93234578044E-11  0.17124000000E+03  0.17124000000E+03 0.  1.
       11    1    1    2    0    0 -0.60322797755E-01  0.71446901651E-01  0.23153148753E+00  0.24970100245E+00  0.51109989000E-03 0.  1.
     -623    1    1    2    0    0 -0.35615530806E-01 -0.11244186187E+00  0.19249906085E-01  0.17124004170E+03  0.17124000000E+03 0.  1.
     -611    1    1    2    0    0  0.20670317435E-01  0.10791804449E-01  0.11520873861E+01  0.11523234492E+01  0.51109989000E-03 0. -1.
      611    1    1    2    0    0  0.75268011133E-01  0.30203155778E-01  0.40971311969E+01  0.40979338464E+01  0.51109989000E-03 0.  1.
</event>
<event>
 6   3  0.2312675E+03  0.9118800E+02  0.7818608E-02  0.1180000E+00
       11   -1    0    0    0    0  0.00000000000E+00  0.00000000000E+00  0.54999999763E+01  0.55000000000E+01  0.51109989000E-03 0.  1.
     -623   -1    0    0    0    0  0.00000000000E+00  0.00000000000E+00  0.93234578044E-11  0.17124000000E+03  0.17124000000E+03 0.  1.
       11    1    1    2    0    0  0.52118133181E-02 -0.78924560389E-02  0.21308160749E-01  0.23318507628E-01  0.51109989000E-03 0.  1.
     -623    1    1    2    0    0 -0.94859361716E-02 -0.27232588891E-02  0.84223798213E-02  0.17124000049E+03  0.17124000000E+03 0.  1.
     -611    1    1    2    0    0  0.82996636255E-01  0.35694462091E-01  0.48604810493E+01  0.48613206876E+01  0.51109989000E-03 0.  1.
      611    1    1    2    0    0 -0.78722513401E-01 -0.25078747163E-01  0.60978838638E+00  0.61536031320E+00  0.51109989000E-03 0. -1.
</event>
<event>
 6   3  0.2312675E+03  0.9118800E+02  0.7818608E-02  0.1180000E+00
       11   -1    0    0    0    0  0.00000000000E+00  0.00000000000E+00  0.54999999763E+01  0.55000000000E+01  0.51109989000E-03 0. -1.
     -623   -1    0    0    0    0  0.00000000000E+00  0.00000000000E+00  0.93234578044E-11  0.17124000000E+03  0.17124000000E+03 0. -1.
       11    1    1    2    0    0  0.54622352699E-01  0.36033742973E-01  0.72583383293E+00  0.72877777566E+00  0.51109989000E-03 0. -1.
     -623    1    1    2    0    0 -0.14353682198E-02 -0.24398256830E-01  0.32566026354E-02  0.17124000178E+03  0.17124000000E+03 0. -1.
     -611    1    1    2    0    0 -0.30843264924E-01 -0.71765725176E-02  0.28103743280E+01  0.28105527810E+01  0.51109989000E-03 0. -1.
      611    1    1    2    0    0 -0.22343719574E-01 -0.44589136298E-02  0.19605352143E+01  0.19606676699E+01  0.51109989000E-03 0.  1.
</event>
<event>
 6   3  0.2312675E+03  0.9118800E+02  0.7818608E-02  0.1180000E+00
       11   -1    0    0    0    0  0.00000000000E+00  0.00000000000E+00  0.54999999763E+01  0.55000000000E+01  0.51109989000E-03 0. -1.
     -623   -1    0    0    0    0  0.00000000000E+00  0.00000000000E+00  0.93234578044E-11  0.17124000000E+03  0.17124000000E+03 0.  1.
       11    1    1    2    0    0 -0.30526705212E-01  0.33757031762E-01  0.65549752736E+00  0.65707586055E+00  0.51109989000E-03 0. -1.
     -623    1    1    2    0    0 -0.13551511687E-02 -0.18798396101E-02  0.24653718731E-02  0.17124000003E+03  0.17124000000E+03 0.  1.
     -611    1    1    2    0    0  0.43214048128E-01 -0.21402679799E-02  0.40715979256E+01  0.40718278407E+01  0.51109989000E-03 0. -1.
      611    1    1    2    0    0 -0.11332191748E-01 -0.29736924172E-01  0.77043915140E+00  0.77109626537E+00  0.51109989000E-03 0.  1.
</event>
<event>
 6   3  0.2312675E+03  0.9118800E+02  0.7818608E-02  0.1180000E+00
       11   -1    0    0    0    0  0.00000000000E+00  0.00000000000E+00  0.54999999763E+01  0.55000000000E+01  0.51109989000E-03 0.  1.
     -623   -1    0    0    0    0  0.00000000000E+00  0.00000000000E+00  0.93234578044E-11  0.17124000000E+03  0.17124000000E+03 0.  1.
       11    1    1    2    0    0  0.24767473399E-02  0.28713811041E-02  0.30838592105E+00  0.30840965716E+00  0.51109989000E-03 0.  1.
     -623    1    1    2    0    0 -0.69255845892E-01 -0.37579956572E-01  0.58790245448E-03  0.17124001813E+03  0.17124000000E+03 0.  1.
     -611    1    1    2    0    0  0.83182516661E-02  0.49509021506E-02  0.65582291489E+00  0.65589455071E+00  0.51109989000E-03 0.  1.
      611    1    1    2    0    0  0.58460846541E-01  0.29757673131E-01  0.45352032105E+01  0.45356776353E+01  0.51109989000E-03 0.  1.
</event>
<event>
 6   3  0.2312675E+03  0.9118800E+02  0.7818608E-02  0.1180000E+00
       11   -1    0    0    0    0  0.00000000000E+00  0.00000000000E+00  0.54999999763E+01  0.55000000000E+01  0.51109989000E-03 0. -1.
     -623   -1    0    0    0    0  0.00000000000E+00  0.00000000000E+00  0.93234578044E-11  0.17124000000E+03  0.17124000000E+03 0. -1.
       11    1    1    2    0    0  0.16609961811E-02 -0.20887174486E-02  0.61091284849E+00  0.61091889095E+00  0.51109989000E-03 0. -1.
     -623    1    1    2    0    0  0.27918094575E-02  0.41657907941E-03  0.38717376489E-03  0.17124000002E+03  0.17124000000E+03 0. -1.
     -611    1    1    2    0    0  0.27835463222E-01 -0.23404949494E-02  0.19303206746E+01  0.19305228460E+01  0.51109989000E-03 0. -1.
      611    1    1    2    0    0 -0.32288268861E-01  0.40126333186E-02  0.29583792794E+01  0.29585582394E+01  0.51109989000E-03 0.  1.
</event>
<event>
 6   3  0.2312675E+03  0.9118800E+02  0.7818608E-02  0.1180000E+00
       11   -1    0    0    0    0  0.00000000000E+00  0.00000000000E+00  0.54999999763E+01  0.55000000000E+01  0.51109989000E-03 0. -1.
     -623   -1    0    0    0    0  0.00000000000E+00  0.00000000000E+00  0.93234578044E-11  0.17124000000E+03  0.17124000000E+03 0.  1.
       11    1    1    2    0    0  0.90107132785E-02 -0.13391144520E-01  0.42620550282E+00  0.42651132173E+00  0.51109989000E-03 0. -1.
     -623    1    1    2    0    0  0.25637082041E-02  0.11557163798E-01  0.81984022497E-03  0.17124000041E+03  0.17124000000E+03 0.  1.
     -611    1    1    2    0    0  0.28428357336E-01 -0.10512230849E-01  0.20902476727E+01  0.20904674771E+01  0.51109989000E-03 0. -1.
      611    1    1    2    0    0 -0.40002778819E-01  0.12346211570E-01  0.29827269605E+01  0.29830207900E+01  0.51109989000E-03 0.  1.
</event>
<event>
 6   3  0.2312675E+03  0.9118800E+02  0.7818608E-02  0.1180000E+00
       11   -1    0    0    0    0  0.00000000000E+00  0.00000000000E+00  0.54999999763E+01  0.55000000000E+01  0.51109989000E-03 0.  1.
     -623   -1    0    0    0    0  0.00000000000E+00  0.00000000000E+00  0.93234578044E-11  0.17124000000E+03  0.17124000000E+03 0. -1.
       11    1    1    2    0    0 -0.11951459844E-01  0.28105362770E-01  0.84228629679E+00  0.84283997045E+00  0.51109989000E-03 0.  1.
     -623    1    1    2    0    0 -0.71207575255E-01 -0.11712438705E-01  0.13415752391E-02  0.17124001521E+03  0.17124000000E+03 0. -1.
     -611    1    1    2    0    0  0.48368690690E-01 -0.90998385910E-02  0.27917290290E+01  0.27921628839E+01  0.51109989000E-03 0.  1.
      611    1    1    2    0    0  0.34790344394E-01 -0.72930854710E-02  0.18646430744E+01  0.18649819338E+01  0.51109989000E-03 0. -1.
</event>
<event>
 6   3  0.2312675E+03  0.9118800E+02  0.7818608E-02  0.1180000E+00
       11   -1    0    0    0    0  0.00000000000E+00  0.00000000000E+00  0.54999999763E+01  0.55000000000E+01  0.51109989000E-03 0. -1.
     -623   -1    0    0    0    0  0.00000000000E+00  0.00000000000E+00  0.93234578044E-11  0.17124000000E+03  0.17124000000E+03 0. -1.
       11    1    1    2    0    0  0.24014906196E-01 -0.18581372043E-01  0.26712693757E+00  0.26884762432E+00  0.51109989000E-03 0. -1.
     -623    1    1    2    0    0 -0.22351453846E-01  0.30038349147E-01  0.60961927730E-02  0.17124000420E+03  0.17124000000E+03 0. -1.
     -611    1    1    2    0    0  0.67075632626E-01 -0.86356244232E-01  0.31278195398E+01  0.31297303200E+01  0.51109989000E-03 0. -1.
      611    1    1    2    0    0 -0.68739084976E-01  0.74899267128E-01  0.20989573061E+01  0.21014178538E+01  0.51109989000E-03 0.  1.
</event>
<event>
 6   3  0.2312675E+03  0.9118800E+02  0.7818608E-02  0.1180000E+00
       11   -1    0    0    0    0  0.00000000000E+00  0.00000000000E+00  0.54999999763E+01  0.55000000000E+01  0.51109989000E-03 0. -1.
     -623   -1    0    0    0    0  0.00000000000E+00  0.00000000000E+00  0.93234578044E-11  0.17124000000E+03  0.17124000000E+03 0.  1.
       11    1    1    2    0    0 -0.62464040663E-02  0.97539889941E-02  0.11119736680E+00  0.11180014970E+00  0.51109989000E-03 0. -1.
     -623    1    1    2    0    0 -0.17587790197E-02 -0.16108019270E-01  0.10648060851E-02  0.17124000077E+03  0.17124000000E+03 0.  1.
     -611    1    1    2    0    0  0.38689223086E-01  0.44887377762E-02  0.26004025637E+01  0.26006942841E+01  0.51109989000E-03 0.  1.
      611    1    1    2    0    0 -0.30684040000E-01  0.18652924998E-02  0.27873352396E+01  0.27875047962E+01  0.51109989000E-03 0. -1.
</event>
<event>
 6   3  0.2312675E+03  0.9118800E+02  0.7818608E-02  0.1180000E+00
       11   -1    0    0    0    0  0.00000000000E+00  0.00000000000E+00  0.54999999763E+01  0.55000000000E+01  0.51109989000E-03 0. -1.
     -623   -1    0    0    0    0  0.00000000000E+00  0.00000000000E+00  0.93234578044E-11  0.17124000000E+03  0.17124000000E+03 0.  1.
       11    1    1    2    0    0 -0.25469994604E-01  0.10866174590E-01  0.41309837669E+00  0.41402575333E+00  0.51109989000E-03 0. -1.
     -623    1    1    2    0    0 -0.46849806963E-02 -0.10233514916E-01  0.34632406583E-02  0.17124000040E+03  0.17124000000E+03 0.  1.
     -611    1    1    2    0    0 -0.33498598396E-01 -0.63065913686E-01  0.22561998573E+01  0.22573297329E+01  0.51109989000E-03 0.  1.
      611    1    1    2    0    0  0.63653573697E-01  0.62433254012E-01  0.28272385016E+01  0.28286441089E+01  0.51109989000E-03 0. -1.
</event>
<event>
 6   3  0.2312675E+03  0.9118800E+02  0.7818608E-02  0.1180000E+00
       11   -1    0    0    0    0  0.00000000000E+00  0.00000000000E+00  0.54999999763E+01  0.55000000000E+01  0.51109989000E-03 0.  1.
     -623   -1    0    0    0    0  0.00000000000E+00  0.00000000000E+00  0.93234578044E-11  0.17124000000E+03  0.17124000000E+03 0.  1.
       11    1    1    2    0    0 -0.23837018640E-01 -0.17800391873E-01  0.15464130487E+00  0.15747778194E+00  0.51109989000E-03 0.  1.
     -623    1    1    2    0    0 -0.49682364372E-02 -0.42059557487E-01  0.36291505295E-02  0.17124000528E+03  0.17124000000E+03 0.  1.
     -611    1    1    2    0    0 -0.17765115994E-01  0.91776531010E-02  0.73074571849E+00  0.73101942176E+00  0.51109989000E-03 0. -1.
      611    1    1    2    0    0  0.46570371071E-01  0.50682296258E-01  0.46109838023E+01  0.46114975205E+01  0.51109989000E-03 0.  1.
</event>
<event>
 6   3  0.2312675E+03  0.9118800E+02  0.7818608E-02  0.1180000E+00
       11   -1    0    0    0    0  0.00000000000E+00  0.00000000000E+00  0.54999999763E+01  0.55000000000E+01  0.51109989000E-03 0.  1.
     -623   -1    0    0    0    0  0.00000000000E+00  0.00000000000E+00  0.93234578044E-11  0.17124000000E+03  0.17124000000E+03 0.  1.
       11    1    1    2    0    0 -0.13538782997E-01 -0.16559277345E-01  0.93934407271E+00  0.93958770558E+00  0.51109989000E-03 0. -1.
     -623    1    1    2    0    0  0.64343311263E-01  0.64688286167E-01  0.80503238782E-03  0.17124002431E+03  0.17124000000E+03 0.  1.
     -611    1    1    2    0    0 -0.20801886330E-01 -0.19772975759E-01  0.18654619947E+01  0.18656828251E+01  0.51109989000E-03 0.  1.
      611    1    1    2    0    0 -0.30002641846E-01 -0.28356032978E-01  0.26943888685E+01  0.26947051525E+01  0.51109989000E-03 0.  1.
</event>
<event>
 6   3  0.2312675E+03  0.9118800E+02  0.7818608E-02  0.1180000E+00
       11   -1    0    0    0    0  0.00000000000E+00  0.00000000000E+00  0.54999999763E+01  0.55000000000E+01  0.51109989000E-03 0.  1.
     -623   -1    0    0    0    0  0.00000000000E+00  0.00000000000E+00  0.93234578044E-11  0.17124000000E+03  0.17124000000E+03 0.  1.
       11    1    1    2    0    0 -0.76520166631E-02  0.15305084496E-01  0.49017533829E+00  0.49047418124E+00  0.51109989000E-03 0.  1.
     -623    1    1    2    0    0 -0.17538698976E-02  0.35918114594E-02  0.14959121340E-02  0.17124000005E+03  0.17124000000E+03 0.  1.
     -611    1    1    2    0    0  0.57972713125E-01 -0.34503315560E-02  0.28956379013E+01  0.28962202708E+01  0.51109989000E-03 0.  1.
      611    1    1    2    0    0 -0.48566826565E-01 -0.15446564400E-01  0.21126908245E+01  0.21133054948E+01  0.51109989000E-03 0. -1.
</event>
<event>
 6   3  0.2312675E+03  0.9118800E+02  0.7818608E-02  0.1180000E+00
       11   -1    0    0    0    0  0.00000000000E+00  0.00000000000E+00  0.54999999763E+01  0.55000000000E+01  0.51109989000E-03 0.  1.
     -623   -1    0    0    0    0  0.00000000000E+00  0.00000000000E+00  0.93234578044E-11  0.17124000000E+03  0.17124000000E+03 0. -1.
       11    1    1    2    0    0  0.37414303948E-02  0.52849909011E-02  0.21756019452E-01  0.22704956193E-01  0.51109989000E-03 0.  1.
     -623    1    1    2    0    0 -0.29375990429E-02 -0.45320012298E-02  0.22788207652E-02  0.17124000010E+03  0.17124000000E+03 0. -1.
     -611    1    1    2    0    0  0.55913836376E-01  0.20975852083E-01  0.25467001931E+01  0.25474003373E+01  0.51109989000E-03 0. -1.
      611    1    1    2    0    0 -0.56717667727E-01 -0.21728841754E-01  0.29292649429E+01  0.29298946062E+01  0.51109989000E-03 0.  1.
</event>
<event>
 6   3  0.2312675E+03  0.9118800E+02  0.7818608E-02  0.1180000E+00
       11   -1    0    0    0    0  0.00000000000E+00  0.00000000000E+00  0.54999999763E+01  0.55000000000E+01  0.51109989000E-03 0.  1.
     -623   -1    0    0    0    0  0.00000000000E+00  0.00000000000E+00  0.93234578044E-11  0.17124000000E+03  0.17124000000E+03 0.  1.
       11    1    1    2    0    0 -0.43563696532E-02  0.30758696890E-01  0.62727533509E-01  0.70000571955E-01  0.51109989000E-03 0.  1.
     -623    1    1    2    0    0  0.55111439433E-03  0.12266349932E-01  0.81968089288E-02  0.17124000064E+03  0.17124000000E+03 0.  1.
     -611    1    1    2    0    0 -0.38574843582E-01 -0.42062371688E-01  0.28034260189E+01  0.28040069483E+01  0.51109989000E-03 0. -1.
      611    1    1    2    0    0  0.42380098841E-01 -0.96267513359E-03  0.26256496149E+01  0.26259918433E+01  0.51109989000E-03 0.  1.
</event>
<event>
 6   3  0.2312675E+03  0.9118800E+02  0.7818608E-02  0.1180000E+00
       11   -1    0    0    0    0  0.00000000000E+00  0.00000000000E+00  0.54999999763E+01  0.55000000000E+01  0.51109989000E-03 0. -1.
     -623   -1    0    0    0    0  0.00000000000E+00  0.00000000000E+00  0.93234578044E-11  0.17124000000E+03  0.17124000000E+03 0. -1.
       11    1    1    2    0    0  0.53954237720E-01  0.24007348125E-02  0.66504303336E+00  0.66723258369E+00  0.51109989000E-03 0. -1.
     -623    1    1    2    0    0  0.33938800545E-02 -0.30741941115E-02  0.33080067276E-02  0.17124000009E+03  0.17124000000E+03 0. -1.
     -611    1    1    2    0    0  0.21836685695E-01  0.69759471098E-02  0.76871076455E+00  0.76905266753E+00  0.51109989000E-03 0.  1.
      611    1    1    2    0    0 -0.79184803470E-01 -0.63024878109E-02  0.40629381716E+01  0.40637146555E+01  0.51109989000E-03 0. -1.
</event>
<event>
 6   3  0.2312675E+03  0.9118800E+02  0.7818608E-02  0.1180000E+00
       11   -1    0    0    0    0  0.00000000000E+00  0.00000000000E+00  0.54999999763E+01  0.55000000000E+01  0.51109989000E-03 0. -1.
     -623   -1    0    0    0    0  0.00000000000E+00  0.00000000000E+00  0.93234578044E-11  0.17124000000E+03  0.17124000000E+03 0.  1.
       11    1    1    2    0    0  0.12443155667E-02 -0.10648891233E-01  0.66824536463E-01  0.67681069010E-01  0.51109989000E-03 0. -1.
     -623    1    1    2    0    0  0.92468123742E-02 -0.48139048100E-03  0.22371446561E-02  0.17124000026E+03  0.17124000000E+03 0.  1.
     -611    1    1    2    0    0  0.44475643560E-01  0.36843953012E-01  0.33420663354E+01  0.33425653638E+01  0.51109989000E-03 0. -1.
      611    1    1    2    0    0 -0.54966771501E-01 -0.25713671298E-01  0.20888719597E+01  0.20897533022E+01  0.51109989000E-03 0.  1.
</event>
<event>
 6   3  0.2312675E+03  0.9118800E+02  0.7818608E-02  0.1180000E+00
       11   -1    0    0    0    0  0.00000000000E+00  0.00000000000E+00  0.54999999763E+01  0.55000000000E+01  0.51109989000E-03 0. -1.
     -623   -1    0    0    0    0  0.00000000000E+00  0.00000000000E+00  0.93234578044E-11  0.17124000000E+03  0.17124000000E+03 0.  1.
       11    1    1    2    0    0  0.48906269340E-01 -0.35115467049E-02  0.40015199633E+00  0.40314517922E+00  0.51109989000E-03 0. -1.
     -623    1    1    2    0    0  0.20291071926E-01 -0.11728690509E-01  0.34976251891E-02  0.17124000164E+03  0.17124000000E+03 0.  1.
     -611    1    1    2    0    0 -0.27141334575E-01  0.40504123498E-02  0.23079162035E+01  0.23080794011E+01  0.51109989000E-03 0.  1.
      611    1    1    2    0    0 -0.42056006690E-01  0.11189824864E-01  0.27884341511E+01  0.27887737800E+01  0.51109989000E-03 0. -1.
</event>
<event>
 6   3  0.2312675E+03  0.9118800E+02  0.7818608E-02  0.1180000E+00
       11   -1    0    0    0    0  0.00000000000E+00  0.00000000000E+00  0.54999999763E+01  0.55000000000E+01  0.51109989000E-03 0.  1.
     -623   -1    0    0    0    0  0.00000000000E+00  0.00000000000E+00  0.93234578044E-11  0.17124000000E+03  0.17124000000E+03 0. -1.
       11    1    1    2    0    0 -0.18974119225E-01 -0.24890402339E-01  0.48459252132E+00  0.48560243231E+00  0.51109989000E-03 0.  1.
     -623    1    1    2    0    0 -0.38116737182E-01 -0.61671786695E-02  0.15182993511E-02  0.17124000436E+03  0.17124000000E+03 0. -1.
     -611    1    1    2    0    0  0.16965444593E-01  0.17547199197E-01  0.10784808121E+01  0.10787570875E+01  0.51109989000E-03 0. -1.
      611    1    1    2    0    0  0.40125411814E-01  0.13510381812E-01  0.39354083435E+01  0.39356361202E+01  0.51109989000E-03 0.  1.
</event>
<event>
 6   3  0.2312675E+03  0.9118800E+02  0.7818608E-02  0.1180000E+00
       11   -1    0    0    0    0  0.00000000000E+00  0.00000000000E+00  0.54999999763E+01  0.55000000000E+01  0.51109989000E-03 0. -1.
     -623   -1    0    0    0    0  0.00000000000E+00  0.00000000000E+00  0.93234578044E-11  0.17124000000E+03  0.17124000000E+03 0.  1.
       11    1    1    2    0    0  0.73469285064E-02 -0.21413363096E-01  0.62283004310E+00  0.62324155292E+00  0.51109989000E-03 0. -1.
     -623    1    1    2    0    0 -0.36164368811E-02 -0.32987698368E-02  0.10749176543E-02  0.17124000007E+03  0.17124000000E+03 0.  1.
     -611    1    1    2    0    0 -0.36110116477E-01  0.77737322025E-02  0.34402882421E+01  0.34404865675E+01  0.51109989000E-03 0. -1.
      611    1    1    2    0    0  0.32379624852E-01  0.16938400730E-01  0.14358067734E+01  0.14362718062E+01  0.51109989000E-03 0.  1.
</event>
<event>
 6   3  0.2312675E+03  0.9118800E+02  0.7818608E-02  0.1180000E+00
       11   -1    0    0    0    0  0.00000000000E+00  0.00000000000E+00  0.54999999763E+01  0.55000000000E+01  0.51109989000E-03 0. -1.
     -623   -1    0    0    0    0  0.00000000000E+00  0.00000000000E+00  0.93234578044E-11  0.17124000000E+03  0.17124000000E+03 0. -1.
       11    1    1    2    0    0 -0.97545504959E-03 -0.10727101172E-01  0.44411202536E+00  0.44424292285E+00  0.51109989000E-03 0. -1.
     -623    1    1    2    0    0 -0.57660542717E-01  0.94380145815E-02  0.48666927920E-03  0.17124000997E+03  0.17124000000E+03 0. -1.
     -611    1    1    2    0    0  0.45070594994E-01  0.24574679771E-02  0.41045191506E+01  0.41047673645E+01  0.51109989000E-03 0. -1.
      611    1    1    2    0    0  0.13565402778E-01 -0.11683813882E-02  0.95088213151E+00  0.95097974454E+00  0.51109989000E-03 0.  1.
</event>
<event>
 6   3  0.2312675E+03  0.9118800E+02  0.7818608E-02  0.1180000E+00
       11   -1    0    0    0    0  0.00000000000E+00  0.00000000000E+00  0.54999999763E+01  0.55000000000E+01  0.51109989000E-03 0.  1.
     -623   -1    0    0    0    0  0.00000000000E+00  0.00000000000E+00  0.93234578044E-11  0.17124000000E+03  0.17124000000E+03 0. -1.
       11    1    1    2    0    0  0.55094547395E-01 -0.24585963090E-01  0.68673511978E+00  0.68938034835E+00  0.51109989000E-03 0.  1.
     -623    1    1    2    0    0 -0.12665479988E-01  0.79493824546E-02  0.32367031673E-02  0.17124000068E+03  0.17124000000E+03 0. -1.
     -611    1    1    2    0    0 -0.54122288653E-01  0.25506908265E-01  0.41208156217E+01  0.41212499893E+01  0.51109989000E-03 0.  1.
      611    1    1    2    0    0  0.11693221246E-01 -0.88703276296E-02  0.68921253157E+00  0.68936897887E+00  0.51109989000E-03 0. -1.
</event>
<event>
 6   3  0.2312675E+03  0.9118800E+02  0.7818608E-02  0.1180000E+00
       11   -1    0    0    0    0  0.00000000000E+00  0.00000000000E+00  0.54999999763E+01  0.55000000000E+01  0.51109989000E-03 0. -1.
     -623   -1    0    0    0    0  0.00000000000E+00  0.00000000000E+00  0.93234578044E-11  0.17124000000E+03  0.17124000000E+03 0.  1.
       11    1    1    2    0    0  0.10452363966E-01  0.14342791413E-01  0.19775015401E+00  0.19854559228E+00  0.51109989000E-03 0. -1.
     -623    1    1    2    0    0  0.71125081615E-01 -0.25480428693E-01  0.14533981572E-02  0.17124001667E+03  0.17124000000E+03 0.  1.
     -611    1    1    2    0    0 -0.22541371674E-01  0.15279532976E-02  0.13776459700E+01  0.13778313133E+01  0.51109989000E-03 0. -1.
      611    1    1    2    0    0 -0.59036073917E-01  0.96096839833E-02  0.39231504547E+01  0.39236064221E+01  0.51109989000E-03 0.  1.
</event>
<event>
 6   3  0.2312675E+03  0.9118800E+02  0.7818608E-02  0.1180000E+00
       11   -1    0    0    0    0  0.00000000000E+00  0.00000000000E+00  0.54999999763E+01  0.55000000000E+01  0.51109989000E-03 0.  1.
     -623   -1    0    0    0    0  0.00000000000E+00  0.00000000000E+00  0.93234578044E-11  0.17124000000E+03  0.17124000000E+03 0. -1.
       11    1    1    2    0    0  0.13490481544E+00 -0.25727065613E-01  0.88565115260E+00  0.89623625036E+00  0.51109989000E-03 0.  1.
     -623    1    1    2    0    0 -0.49618935386E-02  0.11281532433E-01  0.12443108142E-01  0.17124000090E+03  0.17124000000E+03 0. -1.
     -611    1    1    2    0    0 -0.48158743418E-01  0.49229346480E-02  0.17154574006E+01  0.17161403947E+01  0.51109989000E-03 0. -1.
      611    1    1    2    0    0 -0.81784178458E-01  0.95225985291E-02  0.28864483142E+01  0.28876224586E+01  0.51109989000E-03 0.  1.
</event>
<event>
 6   3  0.2312675E+03  0.9118800E+02  0.7818608E-02  0.1180000E+00
       11   -1    0    0    0    0  0.00000000000E+00  0.00000000000E+00  0.54999999763E+01  0.55000000000E+01  0.51109989000E-03 0. -1.
     -623   -1    0    0    0    0  0.00000000000E+00  0.00000000000E+00  0.93234578044E-11  0.17124000000E+03  0.17124000000E+03 0. -1.
       11    1    1    2    0    0 -0.76498503016E-02 -0.31903240205E-01  0.85715023820E+00  0.85777801849E+00  0.51109989000E-03 0. -1.
     -623    1    1    2    0    0 -0.30452897238E-02 -0.45636048741E-02  0.24192177991E-02  0.17124000010E+03  0.17124000000E+03 0. -1.
     -611    1    1    2    0    0  0.48980037476E-01 -0.13164292806E-01  0.32310516797E+01  0.32314497615E+01  0.51109989000E-03 0. -1.
      611    1    1    2    0    0 -0.38284897451E-01  0.49631137885E-01  0.14093788406E+01  0.14107721151E+01  0.51109989000E-03 0.  1.
</event>
<event>
 6   3  0.2312675E+03  0.9118800E+02  0.7818608E-02  0.1180000E+00
       11   -1    0    0    0    0  0.00000000000E+00  0.00000000000E+00  0.54999999763E+01  0.55000000000E+01  0.51109989000E-03 0. -1.
     -623   -1    0    0    0    0  0.00000000000E+00  0.00000000000E+00  0.93234578044E-11  0.17124000000E+03  0.17124000000E+03 0.  1.
       11    1    1    2    0    0 -0.48148958089E-02  0.46931605995E-02  0.14965758243E+00  0.14980941953E+00  0.51109989000E-03 0. -1.
     -623    1    1    2    0    0 -0.98414711133E-03 -0.14891604334E-02  0.87891712970E-03  0.17124000001E+03  0.17124000000E+03 0.  1.
     -611    1    1    2    0    0  0.36112097384E-01 -0.30587221394E-01  0.28125045462E+01  0.28129027258E+01  0.51109989000E-03 0.  1.
      611    1    1    2    0    0 -0.30313054464E-01  0.27383221228E-01  0.25369589307E+01  0.25372878433E+01  0.51109989000E-03 0. -1.
</event>
<event>
 6   3  0.2312675E+03  0.9118800E+02  0.7818608E-02  0.1180000E+00
       11   -1    0    0    0    0  0.00000000000E+00  0.00000000000E+00  0.54999999763E+01  0.55000000000E+01  0.51109989000E-03 0. -1.
     -623   -1    0    0    0    0  0.00000000000E+00  0.00000000000E+00  0.93234578044E-11  0.17124000000E+03  0.17124000000E+03 0.  1.
       11    1    1    2    0    0  0.60254244760E-01 -0.52553398903E-02  0.10834876303E+01  0.10851745937E+01  0.51109989000E-03 0. -1.
     -623    1    1    2    0    0  0.52683776335E-02  0.16391558544E-02  0.21891273312E-02  0.17124000010E+03  0.17124000000E+03 0.  1.
     -611    1    1    2    0    0 -0.33002234014E-01  0.47980888071E-03  0.18572452938E+01  0.18575386188E+01  0.51109989000E-03 0. -1.
      611    1    1    2    0    0 -0.32520388378E-01  0.31363751552E-02  0.25570779248E+01  0.25572866846E+01  0.51109989000E-03 0.  1.
</event>
<event>
 6   3  0.2312675E+03  0.9118800E+02  0.7818608E-02  0.1180000E+00
       11   -1    0    0    0    0  0.00000000000E+00  0.00000000000E+00  0.54999999763E+01  0.55000000000E+01  0.51109989000E-03 0.  1.
     -623   -1    0    0    0    0  0.00000000000E+00  0.00000000000E+00  0.93234578044E-11  0.17124000000E+03  0.17124000000E+03 0. -1.
       11    1    1    2    0    0 -0.26607174830E-02  0.39106175764E-02  0.57238396796E+00  0.57240373893E+00  0.51109989000E-03 0.  1.
     -623    1    1    2    0    0 -0.10321361924E-02 -0.52772032455E-02  0.53528140681E-03  0.17124000009E+03  0.17124000000E+03 0. -1.
     -611    1    1    2    0    0 -0.29051828770E-01  0.18186241543E-01  0.25496551052E+01  0.25498855199E+01  0.51109989000E-03 0. -1.
      611    1    1    2    0    0  0.32744682446E-01 -0.16819655874E-01  0.23774256218E+01  0.23777106560E+01  0.51109989000E-03 0.  1.
</event>
<event>
 6   3  0.2312675E+03  0.9118800E+02  0.7818608E-02  0.1180000E+00
       11   -1    0    0    0    0  0.00000000000E+00  0.00000000000E+00  0.54999999763E+01  0.55000000000E+01  0.51109989000E-03 0.  1.
     -623   -1    0    0    0    0  0.00000000000E+00  0.00000000000E+00  0.93234578044E-11  0.17124000000E+03  0.17124000000E+03 0.  1.
       11    1    1    2    0    0 -0.10943979151E-01  0.27436508146E-01  0.44411701520E-01  0.53340351648E-01  0.51109989000E-03 0.  1.
     -623    1    1    2    0    0  0.17103204320E-01 -0.36427816154E-01  0.96300198711E-02  0.17124000500E+03  0.17124000000E+03 0.  1.
     -611    1    1    2    0    0  0.39594723210E-01  0.64903786291E-02  0.29860717518E+01  0.29863413460E+01  0.51109989000E-03 0. -1.
      611    1    1    2    0    0 -0.45753948379E-01  0.25009293786E-02  0.24598865031E+01  0.24603133028E+01  0.51109989000E-03 0.  1.
</event>
<event>
 6   3  0.2312675E+03  0.9118800E+02  0.7818608E-02  0.1180000E+00
       11   -1    0    0    0    0  0.00000000000E+00  0.00000000000E+00  0.54999999763E+01  0.55000000000E+01  0.51109989000E-03 0.  1.
     -623   -1    0    0    0    0  0.00000000000E+00  0.00000000000E+00  0.93234578044E-11  0.17124000000E+03  0.17124000000E+03 0.  1.
       11    1    1    2    0    0  0.30136935415E-01  0.21181056424E-01  0.79788641275E+00  0.79873641516E+00  0.51109989000E-03 0.  1.
     -623    1    1    2    0    0  0.35172001701E-01 -0.30244962507E-01  0.13191547059E-02  0.17124000629E+03  0.17124000000E+03 0.  1.
     -611    1    1    2    0    0 -0.14134258850E-01  0.12789335560E-02  0.99291814427E+00  0.99301969537E+00  0.51109989000E-03 0. -1.
      611    1    1    2    0    0 -0.51174678273E-01  0.77849725278E-02  0.37078762651E+01  0.37082376019E+01  0.51109989000E-03 0.  1.
</event>
<event>
 6   3  0.2312675E+03  0.9118800E+02  0.7818608E-02  0.1180000E+00
       11   -1    0    0    0    0  0.00000000000E+00  0.00000000000E+00  0.54999999763E+01  0.55000000000E+01  0.51109989000E-03 0. -1.
     -623   -1    0    0    0    0  0.00000000000E+00  0.00000000000E+00  0.93234578044E-11  0.17124000000E+03  0.17124000000E+03 0.  1.
       11    1    1    2    0    0 -0.31100360388E-01  0.16495310523E-01  0.17388932993E+00  0.17741783443E+00  0.51109989000E-03 0. -1.
     -623    1    1    2    0    0 -0.26062097722E-01 -0.16289677466E-01  0.38385435846E-02  0.17124000280E+03  0.17124000000E+03 0.  1.
     -611    1    1    2    0    0  0.45931972371E-01 -0.13398416471E-03  0.42296501991E+01  0.42298996244E+01  0.51109989000E-03 0. -1.
      611    1    1    2    0    0  0.11230485776E-01 -0.71648891934E-04  0.10926219071E+01  0.10926797435E+01  0.51109989000E-03 0. -1.
</event>
<event>
 6   3  0.2312675E+03  0.9118800E+02  0.7818608E-02  0.1180000E+00
       11   -1    0    0    0    0  0.00000000000E+00  0.00000000000E+00  0.54999999763E+01  0.55000000000E+01  0.51109989000E-03 0.  1.
     -623   -1    0    0    0    0  0.00000000000E+00  0.00000000000E+00  0.93234578044E-11  0.17124000000E+03  0.17124000000E+03 0. -1.
       11    1    1    2    0    0  0.66782139285E-03  0.16718625720E-02  0.71496190379E-03  0.20033730291E-02  0.51109989000E-03 0.  1.
     -623    1    1    2    0    0  0.53000671800E-04 -0.26791487393E-02  0.19705494956E-02  0.17124000003E+03  0.17124000000E+03 0. -1.
     -611    1    1    2    0    0 -0.36508810764E-01 -0.19632850856E-01  0.35614915809E+01  0.35617328486E+01  0.51109989000E-03 0. -1.
      611    1    1    2    0    0  0.35787988700E-01  0.20640137023E-01  0.19358228839E+01  0.19362637461E+01  0.51109989000E-03 0.  1.
</event>
<event>
 6   3  0.2312675E+03  0.9118800E+02  0.7818608E-02  0.1180000E+00
       11   -1    0    0    0    0  0.00000000000E+00  0.00000000000E+00  0.54999999763E+01  0.55000000000E+01  0.51109989000E-03 0. -1.
     -623   -1    0    0    0    0  0.00000000000E+00  0.00000000000E+00  0.93234578044E-11  0.17124000000E+03  0.17124000000E+03 0. -1.
       11    1    1    2    0    0 -0.66098689193E-01  0.32711653570E-01  0.81580852227E+00  0.81913545597E+00  0.51109989000E-03 0. -1.
     -623    1    1    2    0    0 -0.16367519318E-01  0.33414185908E-02  0.42493028407E-02  0.17124000087E+03  0.17124000000E+03 0. -1.
     -611    1    1    2    0    0  0.32917645602E-01 -0.14479995676E-01  0.13324406020E+01  0.13329259022E+01  0.51109989000E-03 0.  1.
      611    1    1    2    0    0  0.49548562909E-01 -0.21573076485E-01  0.33475015491E+01  0.33479377743E+01  0.51109989000E-03 0. -1.
</event>
<event>
 6   3  0.2312675E+03  0.9118800E+02  0.7818608E-02  0.1180000E+00
       11   -1    0    0    0    0  0.00000000000E+00  0.00000000000E+00  0.54999999763E+01  0.55000000000E+01  0.51109989000E-03 0.  1.
     -623   -1    0    0    0    0  0.00000000000E+00  0.00000000000E+00  0.93234578044E-11  0.17124000000E+03  0.17124000000E+03 0.  1.
       11    1    1    2    0    0  0.47962891390E-02  0.46691799421E-02  0.29678006970E+00  0.29685598634E+00  0.51109989000E-03 0.  1.
     -623    1    1    2    0    0 -0.63437788058E-01  0.77866074504E-01  0.11029461976E-02  0.17124002946E+03  0.17124000000E+03 0.  1.
     -611    1    1    2    0    0  0.12244418376E-01 -0.16691616887E-01  0.84967854797E+00  0.84993083951E+00  0.51109989000E-03 0. -1.
      611    1    1    2    0    0  0.46397080546E-01 -0.65843637564E-01  0.43524384127E+01  0.43531837167E+01  0.51109989000E-03 0.  1.
</event>
<event>
 6   3  0.2312675E+03  0.9118800E+02  0.7818608E-02  0.1180000E+00
       11   -1    0    0    0    0  0.00000000000E+00  0.00000000000E+00  0.54999999763E+01  0.55000000000E+01  0.51109989000E-03 0. -1.
     -623   -1    0    0    0    0  0.00000000000E+00  0.00000000000E+00  0.93234578044E-11  0.17124000000E+03  0.17124000000E+03 0. -1.
       11    1    1    2    0    0  0.20677385647E-01 -0.17493903944E-01  0.29995694418E+00  0.30117772251E+00  0.51109989000E-03 0. -1.
     -623    1    1    2    0    0 -0.50707045183E-02 -0.57032257767E-02  0.36647916497E-02  0.17124000021E+03  0.17124000000E+03 0. -1.
     -611    1    1    2    0    0  0.62460526637E-01 -0.64609491005E-02  0.33106372875E+01  0.33112327873E+01  0.51109989000E-03 0.  1.
      611    1    1    2    0    0 -0.78067207765E-01  0.29658078822E-01  0.18857409530E+01  0.18875892810E+01  0.51109989000E-03 0. -1.
</event>
<event>
 6   3  0.2312675E+03  0.9118800E+02  0.7818608E-02  0.1180000E+00
       11   -1    0    0    0    0  0.00000000000E+00  0.00000000000E+00  0.54999999763E+01  0.55000000000E+01  0.51109989000E-03 0. -1.
     -623   -1    0    0    0    0  0.00000000000E+00  0.00000000000E+00  0.93234578044E-11  0.17124000000E+03  0.17124000000E+03 0.  1.
       11    1    1    2    0    0 -0.26406048893E-02  0.21909082284E-01  0.30610569930E+00  0.30690053934E+00  0.51109989000E-03 0. -1.
     -623    1    1    2    0    0  0.10787464264E-01 -0.25616832992E-01  0.23044207495E-02  0.17124000227E+03  0.17124000000E+03 0.  1.
     -611    1    1    2    0    0  0.53136631888E-01  0.98705733168E-02  0.14619142989E+01  0.14629130557E+01  0.51109989000E-03 0.  1.
      611    1    1    2    0    0 -0.61283491264E-01 -0.61628226084E-02  0.37296755574E+01  0.37301841337E+01  0.51109989000E-03 0. -1.
</event>
<event>
 6   3  0.2312675E+03  0.9118800E+02  0.7818608E-02  0.1180000E+00
       11   -1    0    0    0    0  0.00000000000E+00  0.00000000000E+00  0.54999999763E+01  0.55000000000E+01  0.51109989000E-03 0.  1.
     -623   -1    0    0    0    0  0.00000000000E+00  0.00000000000E+00  0.93234578044E-11  0.17124000000E+03  0.17124000000E+03 0. -1.
       11    1    1    2    0    0 -0.11940456926E+00 -0.46593825317E-01  0.48936512456E+00  0.50587243656E+00  0.51109989000E-03 0.  1.
     -623    1    1    2    0    0  0.24526141047E-01 -0.29228846208E-02  0.17689405100E-01  0.17124000270E+03  0.17124000000E+03 0. -1.
     -611    1    1    2    0    0  0.19643846843E-01  0.43546539178E-02  0.11643437953E+01  0.11645177451E+01  0.51109989000E-03 0. -1.
      611    1    1    2    0    0  0.75234581367E-01  0.45162056020E-01  0.38286016513E+01  0.38296071233E+01  0.51109989000E-03 0.  1.
</event>
<event>
 6   3  0.2312675E+03  0.9118800E+02  0.7818608E-02  0.1180000E+00
       11   -1    0    0    0    0  0.00000000000E+00  0.00000000000E+00  0.54999999763E+01  0.55000000000E+01  0.51109989000E-03 0.  1.
     -623   -1    0    0    0    0  0.00000000000E+00  0.00000000000E+00  0.93234578044E-11  0.17124000000E+03  0.17124000000E+03 0.  1.
       11    1    1    2    0    0 -0.22791989006E-01 -0.75011590839E-05  0.25775638909E+00  0.25876261739E+00  0.51109989000E-03 0.  1.
     -623    1    1    2    0    0 -0.43002802899E-01  0.13838735707E-01  0.14435172120E-02  0.17124000596E+03  0.17124000000E+03 0.  1.
     -611    1    1    2    0    0  0.35251647019E-01 -0.74309117503E-02  0.28199845399E+01  0.28202147017E+01  0.51109989000E-03 0.  1.
      611    1    1    2    0    0  0.30543144913E-01 -0.64003228039E-02  0.24208155323E+01  0.24210167183E+01  0.51109989000E-03 0.  1.
</event>
<event>
 6   3  0.2312675E+03  0.9118800E+02  0.7818608E-02  0.1180000E+00
       11   -1    0    0    0    0  0.00000000000E+00  0.00000000000E+00  0.54999999763E+01  0.55000000000E+01  0.51109989000E-03 0.  1.
     -623   -1    0    0    0    0  0.00000000000E+00  0.00000000000E+00  0.93234578044E-11  0.17124000000E+03  0.17124000000E+03 0. -1.
       11    1    1    2    0    0 -0.41068682038E-03 -0.60213619553E-03  0.85699217471E-03  0.12356740458E-02  0.51109989000E-03 0. -1.
     -623    1    1    2    0    0 -0.76248770349E-03  0.66041312036E-03  0.17064434307E-02  0.17124000001E+03  0.17124000000E+03 0. -1.
     -611    1    1    2    0    0  0.56695619781E-01  0.65849802676E-03  0.17547827933E+01  0.17556986472E+01  0.51109989000E-03 0. -1.
      611    1    1    2    0    0 -0.55522445257E-01 -0.71677495157E-03  0.37426537472E+01  0.37430656671E+01  0.51109989000E-03 0.  1.
</event>
<event>
 6   3  0.2312675E+03  0.9118800E+02  0.7818608E-02  0.1180000E+00
       11   -1    0    0    0    0  0.00000000000E+00  0.00000000000E+00  0.54999999763E+01  0.55000000000E+01  0.51109989000E-03 0. -1.
     -623   -1    0    0    0    0  0.00000000000E+00  0.00000000000E+00  0.93234578044E-11  0.17124000000E+03  0.17124000000E+03 0. -1.
       11    1    1    2    0    0  0.80071431797E-01 -0.20392942587E+00  0.89422551666E+00  0.92067267842E+00  0.51109989000E-03 0. -1.
     -623    1    1    2    0    0 -0.31161388995E-01  0.62201140618E-01  0.28920149043E-01  0.17124001657E+03  0.17124000000E+03 0. -1.
     -611    1    1    2    0    0 -0.54805448050E-02  0.17844766130E-01  0.54519848188E+00  0.54551821043E+00  0.51109989000E-03 0.  1.
      611    1    1    2    0    0 -0.43429497988E-01  0.12388351910E+00  0.40316558278E+01  0.40337925359E+01  0.51109989000E-03 0. -1.
</event>
<event>
 6   3  0.2312675E+03  0.9118800E+02  0.7818608E-02  0.1180000E+00
       11   -1    0    0    0    0  0.00000000000E+00  0.00000000000E+00  0.54999999763E+01  0.55000000000E+01  0.51109989000E-03 0.  1.
     -623   -1    0    0    0    0  0.00000000000E+00  0.00000000000E+00  0.93234578044E-11  0.17124000000E+03  0.17124000000E+03 0.  1.
       11    1    1    2    0    0 -0.11170919028E-02 -0.60812050931E-03  0.80708175094E-01  0.80719814513E-01  0.51109989000E-03 0.  1.
     -623    1    1    2    0    0  0.10679496667E-02  0.11160126039E-02  0.46935700293E-03  0.17124000001E+03  0.17124000000E+03 0.  1.
     -611    1    1    2    0    0  0.35154379328E-01 -0.23918066880E-03  0.25258003671E+01  0.25260450597E+01  0.51109989000E-03 0.  1.
      611    1    1    2    0    0 -0.35105237091E-01 -0.26871142583E-03  0.28930220771E+01  0.28932351183E+01  0.51109989000E-03 0. -1.
</event>
<event>
 6   3  0.2312675E+03  0.9118800E+02  0.7818608E-02  0.1180000E+00
       11   -1    0    0    0    0  0.00000000000E+00  0.00000000000E+00  0.54999999763E+01  0.55000000000E+01  0.51109989000E-03 0. -1.
     -623   -1    0    0    0    0  0.00000000000E+00  0.00000000000E+00  0.93234578044E-11  0.17124000000E+03  0.17124000000E+03 0. -1.
       11    1    1    2    0    0 -0.54728935705E-01 -0.93040912129E-02  0.25785463837E+00  0.26376333761E+00  0.51109989000E-03 0. -1.
     -623    1    1    2    0    0 -0.27110614432E-02 -0.13121653740E-02  0.62428658943E-02  0.17124000014E+03  0.17124000000E+03 0. -1.
     -611    1    1    2    0    0  0.45029022964E-01  0.60372318542E-02  0.43086601401E+01  0.43088996884E+01  0.51109989000E-03 0. -1.
      611    1    1    2    0    0  0.12410974182E-01  0.45790247324E-02  0.92724233176E+00  0.92733683350E+00  0.51109989000E-03 0.  1.
</event>
<event>
 6   3  0.2312675E+03  0.9118800E+02  0.7818608E-02  0.1180000E+00
       11   -1    0    0    0    0  0.00000000000E+00  0.00000000000E+00  0.54999999763E+01  0.55000000000E+01  0.51109989000E-03 0.  1.
     -623   -1    0    0    0    0  0.00000000000E+00  0.00000000000E+00  0.93234578044E-11  0.17124000000E+03  0.17124000000E+03 0. -1.
       11    1    1    2    0    0 -0.67896396525E-01 -0.14435451162E-01  0.55537993372E+00  0.55970120146E+00  0.51109989000E-03 0.  1.
     -623    1    1    2    0    0  0.16745182804E-01  0.90719776405E-03  0.52731846212E-02  0.17124000090E+03  0.17124000000E+03 0. -1.
     -611    1    1    2    0    0 -0.18591879684E-01  0.13432195512E-01  0.69628567424E+00  0.69666353661E+00  0.51109989000E-03 0. -1.
      611    1    1    2    0    0  0.69743093406E-01  0.96057886247E-04  0.42430611837E+01  0.42436343596E+01  0.51109989000E-03 0.  1.
</event>
<event>
 6   3  0.2312675E+03  0.9118800E+02  0.7818608E-02  0.1180000E+00
       11   -1    0    0    0    0  0.00000000000E+00  0.00000000000E+00  0.54999999763E+01  0.55000000000E+01  0.51109989000E-03 0.  1.
     -623   -1    0    0    0    0  0.00000000000E+00  0.00000000000E+00  0.93234578044E-11  0.17124000000E+03  0.17124000000E+03 0. -1.
       11    1    1    2    0    0  0.28078116742E-02  0.22396710347E-02  0.34740991182E+00  0.34742885313E+00  0.51109989000E-03 0.  1.
     -623    1    1    2    0    0 -0.66019093455E-01 -0.40881126538E-01  0.56933553684E-03  0.17124001761E+03  0.17124000000E+03 0. -1.
     -611    1    1    2    0    0  0.33422476082E-01  0.20282894945E-01  0.26954429749E+01  0.26957265347E+01  0.51109989000E-03 0.  1.
      611    1    1    2    0    0  0.29788805457E-01  0.18358560408E-01  0.24565777337E+01  0.24568269846E+01  0.51109989000E-03 0.  1.
</event>
<event>
 6   3  0.2312675E+03  0.9118800E+02  0.7818608E-02  0.1180000E+00
       11   -1    0    0    0    0  0.00000000000E+00  0.00000000000E+00  0.54999999763E+01  0.55000000000E+01  0.51109989000E-03 0.  1.
     -623   -1    0    0    0    0  0.00000000000E+00  0.00000000000E+00  0.93234578044E-11  0.17124000000E+03  0.17124000000E+03 0. -1.
       11    1    1    2    0    0  0.17683646915E-01 -0.26569524499E-01  0.91735663273E-01  0.97130552040E-01  0.51109989000E-03 0.  1.
     -623    1    1    2    0    0 -0.87973563662E-01 -0.31235161553E-01  0.61873339388E-02  0.17124002556E+03  0.17124000000E+03 0. -1.
     -611    1    1    2    0    0  0.59799588214E-01  0.48595031168E-01  0.45539892810E+01  0.45546411605E+01  0.51109989000E-03 0.  1.
      611    1    1    2    0    0  0.10490328572E-01  0.92096549150E-02  0.84808770097E+00  0.84820273195E+00  0.51109989000E-03 0.  1.
</event>
<event>
 6   3  0.2312675E+03  0.9118800E+02  0.7818608E-02  0.1180000E+00
       11   -1    0    0    0    0  0.00000000000E+00  0.00000000000E+00  0.54999999763E+01  0.55000000000E+01  0.51109989000E-03 0. -1.
     -623   -1    0    0    0    0  0.00000000000E+00  0.00000000000E+00  0.93234578044E-11  0.17124000000E+03  0.17124000000E+03 0.  1.
       11    1    1    2    0    0 -0.64790886237E-01 -0.12794360033E-01  0.69091585348E+00  0.69406522201E+00  0.51109989000E-03 0. -1.
     -623    1    1    2    0    0 -0.54064523776E-02 -0.14466176967E-02  0.38026231367E-02  0.17124000013E+03  0.17124000000E+03 0.  1.
     -611    1    1    2    0    0  0.44355401227E-01  0.18596638914E-01  0.22239613075E+01  0.22244813766E+01  0.51109989000E-03 0.  1.
      611    1    1    2    0    0  0.25841937387E-01 -0.43556611839E-02  0.25813201922E+01  0.25814532677E+01  0.51109989000E-03 0. -1.
</event>
<event>
 6   3  0.2312675E+03  0.9118800E+02  0.7818608E-02  0.1180000E+00
       11   -1    0    0    0    0  0.00000000000E+00  0.00000000000E+00  0.54999999763E+01  0.55000000000E+01  0.51109989000E-03 0. -1.
     -623   -1    0    0    0    0  0.00000000000E+00  0.00000000000E+00  0.93234578044E-11  0.17124000000E+03  0.17124000000E+03 0. -1.
       11    1    1    2    0    0 -0.59143363645E-02 -0.49432264793E-02  0.28381966761E+00  0.28392477844E+00  0.51109989000E-03 0. -1.
     -623    1    1    2    0    0 -0.69920560141E-01  0.56344537867E-01  0.94021375064E-03  0.17124002355E+03  0.17124000000E+03 0. -1.
     -611    1    1    2    0    0  0.17479539109E-01 -0.10470025834E-01  0.98199908322E+00  0.98221057641E+00  0.51109989000E-03 0. -1.
      611    1    1    2    0    0  0.58355357409E-01 -0.40931285564E-01  0.42332410127E+01  0.42338410989E+01  0.51109989000E-03 0. -1.
</event>
<event>
 6   3  0.2312675E+03  0.9118800E+02  0.7818608E-02  0.1180000E+00
       11   -1    0    0    0    0  0.00000000000E+00  0.00000000000E+00  0.54999999763E+01  0.55000000000E+01  0.51109989000E-03 0.  1.
     -623   -1    0    0    0    0  0.00000000000E+00  0.00000000000E+00  0.93234578044E-11  0.17124000000E+03  0.17124000000E+03 0.  1.
       11    1    1    2    0    0  0.26713021699E-02 -0.76433340751E-02  0.10697872932E+00  0.10728590849E+00  0.51109989000E-03 0.  1.
     -623    1    1    2    0    0  0.24337703437E-02  0.56424261907E-03  0.84983518067E-03  0.17124000002E+03  0.17124000000E+03 0.  1.
     -611    1    1    2    0    0  0.30876759608E-01  0.20526174427E-01  0.30852970026E+01  0.30855198190E+01  0.51109989000E-03 0.  1.
      611    1    1    2    0    0 -0.35981832122E-01 -0.13447082971E-01  0.23068744090E+01  0.23071942520E+01  0.51109989000E-03 0. -1.
</event>
<event>
 6   3  0.2312675E+03  0.9118800E+02  0.7818608E-02  0.1180000E+00
       11   -1    0    0    0    0  0.00000000000E+00  0.00000000000E+00  0.54999999763E+01  0.55000000000E+01  0.51109989000E-03 0. -1.
     -623   -1    0    0    0    0  0.00000000000E+00  0.00000000000E+00  0.93234578044E-11  0.17124000000E+03  0.17124000000E+03 0. -1.
       11    1    1    2    0    0  0.38790396585E-02 -0.72762503481E-02  0.13589646453E-01  0.15903788279E-01  0.51109989000E-03 0. -1.
     -623    1    1    2    0    0 -0.76728576662E-02 -0.10102175676E-03  0.44766951419E-02  0.17124000023E+03  0.17124000000E+03 0. -1.
     -611    1    1    2    0    0 -0.53354776308E-01 -0.19145109698E-01  0.43772555934E+01  0.43776226492E+01  0.51109989000E-03 0. -1.
      611    1    1    2    0    0  0.57148594316E-01  0.26522381803E-01  0.11046780412E+01  0.11064733321E+01  0.51109989000E-03 0.  1.
</event>
<event>
 6   3  0.2312675E+03  0.9118800E+02  0.7818608E-02  0.1180000E+00
       11   -1    0    0    0    0  0.00000000000E+00  0.00000000000E+00  0.54999999763E+01  0.55000000000E+01  0.51109989000E-03 0.  1.
     -623   -1    0    0    0    0  0.00000000000E+00  0.00000000000E+00  0.93234578044E-11  0.17124000000E+03  0.17124000000E+03 0.  1.
       11    1    1    2    0    0  0.30579748555E-02 -0.56904073748E-03 -0.74820328714E-03  0.32397606137E-02  0.51109989000E-03 0.  1.
     -623    1    1    2    0    0  0.14977001529E-02 -0.51743363061E-02  0.58894101156E-02  0.17124000019E+03  0.17124000000E+03 0.  1.
     -611    1    1    2    0    0  0.47936786187E-01  0.24790738967E-01  0.93311132719E+00  0.93467081177E+00  0.51109989000E-03 0. -1.
      611    1    1    2    0    0 -0.52492461196E-01 -0.19047361923E-01  0.45617474422E+01  0.45620892416E+01  0.51109989000E-03 0.  1.
</event>
<event>
 6   3  0.2312675E+03  0.9118800E+02  0.7818608E-02  0.1180000E+00
       11   -1    0    0    0    0  0.00000000000E+00  0.00000000000E+00  0.54999999763E+01  0.55000000000E+01  0.51109989000E-03 0. -1.
     -623   -1    0    0    0    0  0.00000000000E+00  0.00000000000E+00  0.93234578044E-11  0.17124000000E+03  0.17124000000E+03 0.  1.
       11    1    1    2    0    0 -0.24449973689E-01  0.30626488073E-01  0.69557488344E+00  0.69667816291E+00  0.51109989000E-03 0. -1.
     -623    1    1    2    0    0  0.14860612201E-01 -0.51885401080E-02  0.11532126059E-01  0.17124000111E+03  0.17124000000E+03 0.  1.
     -611    1    1    2    0    0 -0.12237347063E+00 -0.12057218540E-01  0.37514828865E+01  0.37534976690E+01  0.51109989000E-03 0. -1.
      611    1    1    2    0    0  0.13196283212E+00 -0.13380729425E-01  0.10414100803E+01  0.10498230563E+01  0.51109989000E-03 0.  1.
</event>
<event>
 6   3  0.2312675E+03  0.9118800E+02  0.7818608E-02  0.1180000E+00
       11   -1    0    0    0    0  0.00000000000E+00  0.00000000000E+00  0.54999999763E+01  0.55000000000E+01  0.51109989000E-03 0.  1.
     -623   -1    0    0    0    0  0.00000000000E+00  0.00000000000E+00  0.93234578044E-11  0.17124000000E+03  0.17124000000E+03 0.  1.
       11    1    1    2    0    0  0.51510667923E-01 -0.97725694767E-03  0.41631675690E+00  0.41949279760E+00  0.51109989000E-03 0.  1.
     -623    1    1    2    0    0  0.19329649299E-02  0.12301494269E-01  0.34771630931E-02  0.17124000049E+03  0.17124000000E+03 0.  1.
     -611    1    1    2    0    0 -0.34817683527E-01 -0.33137860350E-02  0.32631691534E+01  0.32633566212E+01  0.51109989000E-03 0.  1.
      611    1    1    2    0    0 -0.18625949327E-01 -0.80104512864E-02  0.18170369030E+01  0.18171500932E+01  0.51109989000E-03 0.  1.
</event>
<event>
 6   3  0.2312675E+03  0.9118800E+02  0.7818608E-02  0.1180000E+00
       11   -1    0    0    0    0  0.00000000000E+00  0.00000000000E+00  0.54999999763E+01  0.55000000000E+01  0.51109989000E-03 0.  1.
     -623   -1    0    0    0    0  0.00000000000E+00  0.00000000000E+00  0.93234578044E-11  0.17124000000E+03  0.17124000000E+03 0. -1.
       11    1    1    2    0    0  0.52064582477E-02  0.19456728618E-02  0.54968001349E+00  0.54970835114E+00  0.51109989000E-03 0.  1.
     -623    1    1    2    0    0  0.22179845100E-03  0.57267989483E-03  0.55753510096E-03  0.17124000000E+03  0.17124000000E+03 0. -1.
     -611    1    1    2    0    0  0.26058504272E-01 -0.22907048360E-01  0.25475977264E+01  0.25478340243E+01  0.51109989000E-03 0. -1.
      611    1    1    2    0    0 -0.31486760970E-01  0.20388695603E-01  0.24021647013E+01  0.24024576226E+01  0.51109989000E-03 0.  1.
</event>
<event>
 6   3  0.2312675E+03  0.9118800E+02  0.7818608E-02  0.1180000E+00
       11   -1    0    0    0    0  0.00000000000E+00  0.00000000000E+00  0.54999999763E+01  0.55000000000E+01  0.51109989000E-03 0. -1.
     -623   -1    0    0    0    0  0.00000000000E+00  0.00000000000E+00  0.93234578044E-11  0.17124000000E+03  0.17124000000E+03 0.  1.
       11    1    1    2    0    0 -0.47744613555E-01  0.66554295622E-01  0.56240821625E+00  0.56834169768E+00  0.51109989000E-03 0. -1.
     -623    1    1    2    0    0 -0.23105533429E-01 -0.29375649893E-01  0.65926210155E-02  0.17124000421E+03  0.17124000000E+03 0.  1.
     -611    1    1    2    0    0  0.13996875323E-01 -0.10742150674E-01  0.10391482237E+01  0.10392981278E+01  0.51109989000E-03 0.  1.
      611    1    1    2    0    0  0.56853271661E-01 -0.26436495054E-01  0.38918509153E+01  0.38923559692E+01  0.51109989000E-03 0. -1.
</event>
<event>
 6   3  0.2312675E+03  0.9118800E+02  0.7818608E-02  0.1180000E+00
       11   -1    0    0    0    0  0.00000000000E+00  0.00000000000E+00  0.54999999763E+01  0.55000000000E+01  0.51109989000E-03 0. -1.
     -623   -1    0    0    0    0  0.00000000000E+00  0.00000000000E+00  0.93234578044E-11  0.17124000000E+03  0.17124000000E+03 0. -1.
       11    1    1    2    0    0 -0.39609302571E-01  0.22057350483E-02  0.10434978491E+01  0.10442517821E+01  0.51109989000E-03 0. -1.
     -623    1    1    2    0    0 -0.94165780974E-02  0.44366168209E-02  0.10291440320E-02  0.17124000032E+03  0.17124000000E+03 0. -1.
     -611    1    1    2    0    0  0.13415769341E-01 -0.14688574403E-02  0.12361180445E+01  0.12361918224E+01  0.51109989000E-03 0. -1.
      611    1    1    2    0    0  0.35610111266E-01 -0.51734944204E-02  0.32193549329E+01  0.32195560704E+01  0.51109989000E-03 0. -1.
</event>
<event>
 6   3  0.2312675E+03  0.9118800E+02  0.7818608E-02  0.1180000E+00
       11   -1    0    0    0    0  0.00000000000E+00  0.00000000000E+00  0.54999999763E+01  0.55000000000E+01  0.51109989000E-03 0. -1.
     -623   -1    0    0    0    0  0.00000000000E+00  0.00000000000E+00  0.93234578044E-11  0.17124000000E+03  0.17124000000E+03 0.  1.
       11    1    1    2    0    0  0.56949100345E-01 -0.10802825134E-01  0.45639964155E+00  0.46006607688E+00  0.51109989000E-03 0. -1.
     -623    1    1    2    0    0  0.15075030392E-01 -0.26678359296E-01  0.43236661280E-02  0.17124000280E+03  0.17124000000E+03 0.  1.
     -611    1    1    2    0    0 -0.16595403997E-01  0.91361895818E-02  0.12089175842E+01  0.12090661123E+01  0.51109989000E-03 0. -1.
      611    1    1    2    0    0 -0.55428726801E-01  0.28344994879E-01  0.38303590886E+01  0.38308650187E+01  0.51109989000E-03 0. -1.
</event>
<event>
 6   3  0.2312675E+03  0.9118800E+02  0.7818608E-02  0.1180000E+00
       11   -1    0    0    0    0  0.00000000000E+00  0.00000000000E+00  0.54999999763E+01  0.55000000000E+01  0.51109989000E-03 0. -1.
     -623   -1    0    0    0    0  0.00000000000E+00  0.00000000000E+00  0.93234578044E-11  0.17124000000E+03  0.17124000000E+03 0.  1.
       11    1    1    2    0    0 -0.65863448215E-02 -0.23677273041E-02  0.68846316101E-01  0.69203052928E-01  0.51109989000E-03 0. -1.
     -623    1    1    2    0    0  0.52751722439E-03  0.24482654588E-02  0.13520910113E-02  0.17124000002E+03  0.17124000000E+03 0.  1.
     -611    1    1    2    0    0  0.52046210973E-01 -0.24888417130E-02  0.19706552054E+01  0.19713440091E+01  0.51109989000E-03 0. -1.
      611    1    1    2    0    0 -0.45987383376E-01  0.24083035583E-02  0.34591463636E+01  0.34594529142E+01  0.51109989000E-03 0.  1.
</event>
<event>
 6   3  0.2312675E+03  0.9118800E+02  0.7818608E-02  0.1180000E+00
       11   -1    0    0    0    0  0.00000000000E+00  0.00000000000E+00  0.54999999763E+01  0.55000000000E+01  0.51109989000E-03 0. -1.
     -623   -1    0    0    0    0  0.00000000000E+00  0.00000000000E+00  0.93234578044E-11  0.17124000000E+03  0.17124000000E+03 0.  1.
       11    1    1    2    0    0  0.29770544415E-02  0.20766915518E-02  0.46819398873E+00  0.46820833803E+00  0.51109989000E-03 0. -1.
     -623    1    1    2    0    0  0.58273345927E-01  0.31754649869E-04  0.39855066375E-03  0.17124000992E+03  0.17124000000E+03 0.  1.
     -611    1    1    2    0    0 -0.31618770288E-01 -0.42887689140E-03  0.24800477760E+01  0.24802494155E+01  0.51109989000E-03 0. -1.
      611    1    1    2    0    0 -0.29631630089E-01 -0.16795693106E-02  0.25513596616E+01  0.25515323314E+01  0.51109989000E-03 0.  1.
</event>
<event>
 6   3  0.2312675E+03  0.9118800E+02  0.7818608E-02  0.1180000E+00
       11   -1    0    0    0    0  0.00000000000E+00  0.00000000000E+00  0.54999999763E+01  0.55000000000E+01  0.51109989000E-03 0. -1.
     -623   -1    0    0    0    0  0.00000000000E+00  0.00000000000E+00  0.93234578044E-11  0.17124000000E+03  0.17124000000E+03 0.  1.
       11    1    1    2    0    0  0.17783046574E-01 -0.48372986545E-02  0.67209387703E+00  0.67234669403E+00  0.51109989000E-03 0. -1.
     -623    1    1    2    0    0  0.80040246752E-03 -0.44732358001E-03  0.75138388029E-03  0.17124000000E+03  0.17124000000E+03 0.  1.
     -611    1    1    2    0    0  0.18225944972E-01  0.22033842963E-01  0.17692334664E+01  0.17694646069E+01  0.51109989000E-03 0.  1.
      611    1    1    2    0    0 -0.36809394013E-01 -0.16749220728E-01  0.30579212488E+01  0.30581886948E+01  0.51109989000E-03 0. -1.
</event>
<event>
 6   3  0.2312675E+03  0.9118800E+02  0.7818608E-02  0.1180000E+00
       11   -1    0    0    0    0  0.00000000000E+00  0.00000000000E+00  0.54999999763E+01  0.55000000000E+01  0.51109989000E-03 0. -1.
     -623   -1    0    0    0    0  0.00000000000E+00  0.00000000000E+00  0.93234578044E-11  0.17124000000E+03  0.17124000000E+03 0. -1.
       11    1    1    2    0    0  0.28471387582E-01  0.52939122916E-02  0.27148394854E+00  0.27302461603E+00  0.51109989000E-03 0. -1.
     -623    1    1    2    0    0  0.41531164015E-01  0.29903314431E-01  0.21363420538E-02  0.17124000766E+03  0.17124000000E+03 0. -1.
     -611    1    1    2    0    0 -0.45270086521E-01 -0.21791252061E-01  0.32912449230E+01  0.32916284183E+01  0.51109989000E-03 0. -1.
      611    1    1    2    0    0 -0.24732465102E-01 -0.13405974675E-01  0.19351347646E+01  0.19353393070E+01  0.51109989000E-03 0.  1.
</event>
<event>
 6   3  0.2312675E+03  0.9118800E+02  0.7818608E-02  0.1180000E+00
       11   -1    0    0    0    0  0.00000000000E+00  0.00000000000E+00  0.54999999763E+01  0.55000000000E+01  0.51109989000E-03 0. -1.
     -623   -1    0    0    0    0  0.00000000000E+00  0.00000000000E+00  0.93234578044E-11  0.17124000000E+03  0.17124000000E+03 0.  1.
       11    1    1    2    0    0 -0.20942328517E-01  0.41276942924E-01  0.56217668287E+00  0.56407911779E+00  0.51109989000E-03 0. -1.
     -623    1    1    2    0    0 -0.27186316034E-01 -0.19722879523E-01  0.25275210545E-02  0.17124000331E+03  0.17124000000E+03 0.  1.
     -611    1    1    2    0    0 -0.13231617243E-01 -0.74039471623E-02  0.82587845874E+00  0.82601778671E+00  0.51109989000E-03 0.  1.
      611    1    1    2    0    0  0.61360261794E-01 -0.14150116238E-01  0.41094173136E+01  0.41098997830E+01  0.51109989000E-03 0. -1.
</event>
<event>
 6   3  0.2312675E+03  0.9118800E+02  0.7818608E-02  0.1180000E+00
       11   -1    0    0    0    0  0.00000000000E+00  0.00000000000E+00  0.54999999763E+01  0.55000000000E+01  0.51109989000E-03 0. -1.
     -623   -1    0    0    0    0  0.00000000000E+00  0.00000000000E+00  0.93234578044E-11  0.17124000000E+03  0.17124000000E+03 0. -1.
       11    1    1    2    0    0  0.34462085217E-02 -0.57957707164E-02  0.12934059491E+00  0.12951724992E+00  0.51109989000E-03 0. -1.
     -623    1    1    2    0    0 -0.47096370605E-02  0.13836180119E-02  0.31262496163E-02  0.17124000010E+03  0.17124000000E+03 0. -1.
     -611    1    1    2    0    0  0.53801028640E-01  0.37721503205E-03  0.48450987979E+01  0.48453975394E+01  0.51109989000E-03 0. -1.
      611    1    1    2    0    0 -0.52537600101E-01  0.40349376724E-02  0.52243433390E+00  0.52508511177E+00  0.51109989000E-03 0.  1.
</event>
<event>
 6   3  0.2312675E+03  0.9118800E+02  0.7818608E-02  0.1180000E+00
       11   -1    0    0    0    0  0.00000000000E+00  0.00000000000E+00  0.54999999763E+01  0.55000000000E+01  0.51109989000E-03 0.  1.
     -623   -1    0    0    0    0  0.00000000000E+00  0.00000000000E+00  0.93234578044E-11  0.17124000000E+03  0.17124000000E+03 0. -1.
       11    1    1    2    0    0  0.34815921393E-05 -0.18883493206E-02  0.12367002634E-01  0.12520776834E-01  0.51109989000E-03 0.  1.
     -623    1    1    2    0    0  0.41250878516E-02  0.22298900295E-02  0.11597469704E-02  0.17124000007E+03  0.17124000000E+03 0. -1.
     -611    1    1    2    0    0  0.50266822726E-01 -0.39264591991E-02  0.27719800924E+01  0.27724386493E+01  0.51109989000E-03 0.  1.
      611    1    1    2    0    0 -0.54395392170E-01  0.35849184902E-02  0.27144931343E+01  0.27150405057E+01  0.51109989000E-03 0. -1.
</event>
<event>
 6   3  0.2312675E+03  0.9118800E+02  0.7818608E-02  0.1180000E+00
       11   -1    0    0    0    0  0.00000000000E+00  0.00000000000E+00  0.54999999763E+01  0.55000000000E+01  0.51109989000E-03 0. -1.
     -623   -1    0    0    0    0  0.00000000000E+00  0.00000000000E+00  0.93234578044E-11  0.17124000000E+03  0.17124000000E+03 0. -1.
       11    1    1    2    0    0  0.17787553938E-01  0.23510155381E-02  0.25384287367E+00  0.25447669851E+00  0.51109989000E-03 0. -1.
     -623    1    1    2    0    0 -0.52895898565E-02  0.44349410437E-02  0.34144433642E-02  0.17124000017E+03  0.17124000000E+03 0. -1.
     -611    1    1    2    0    0 -0.48394422592E-01  0.68120848481E-01  0.20546986758E+01  0.20563971843E+01  0.51109989000E-03 0.  1.
      611    1    1    2    0    0  0.35896458511E-01 -0.74906805063E-01  0.31880439834E+01  0.31891259440E+01  0.51109989000E-03 0. -1.
</event>
<event>
 6   3  0.2312675E+03  0.9118800E+02  0.7818608E-02  0.1180000E+00
       11   -1    0    0    0    0  0.00000000000E+00  0.00000000000E+00  0.54999999763E+01  0.55000000000E+01  0.51109989000E-03 0.  1.
     -623   -1    0    0    0    0  0.00000000000E+00  0.00000000000E+00  0.93234578044E-11  0.17124000000E+03  0.17124000000E+03 0. -1.
       11    1    1    2    0    0 -0.34585515243E-03  0.14463149558E-02  0.26179253625E+00  0.26179725878E+00  0.51109989000E-03 0.  1.
     -623    1    1    2    0    0  0.57131918838E-01 -0.45496430175E-01  0.51612139441E-03  0.17124001558E+03  0.17124000000E+03 0. -1.
     -611    1    1    2    0    0 -0.18584420090E-01  0.14325629016E-01  0.15343163087E+01  0.15344958132E+01  0.51109989000E-03 0.  1.
      611    1    1    2    0    0 -0.38201643529E-01  0.29724486150E-01  0.37033750035E+01  0.37036913463E+01  0.51109989000E-03 0. -1.
</event>
<event>
 6   3  0.2312675E+03  0.9118800E+02  0.7818608E-02  0.1180000E+00
       11   -1    0    0    0    0  0.00000000000E+00  0.00000000000E+00  0.54999999763E+01  0.55000000000E+01  0.51109989000E-03 0.  1.
     -623   -1    0    0    0    0  0.00000000000E+00  0.00000000000E+00  0.93234578044E-11  0.17124000000E+03  0.17124000000E+03 0. -1.
       11    1    1    2    0    0 -0.11715914886E-01  0.11529363677E-01  0.77251448335E+00  0.77268950885E+00  0.51109989000E-03 0.  1.
     -623    1    1    2    0    0  0.77768863419E-01 -0.10336372848E+00  0.15784098529E-02  0.17124004886E+03  0.17124000000E+03 0. -1.
     -611    1    1    2    0    0 -0.56066469830E-01  0.76937538164E-01  0.39469775935E+01  0.39481255323E+01  0.51109989000E-03 0.  1.
      611    1    1    2    0    0 -0.99864785729E-02  0.14896826465E-01  0.77892948038E+00  0.77913608684E+00  0.51109989000E-03 0. -1.
</event>
<event>
 6   3  0.2312675E+03  0.9118800E+02  0.7818608E-02  0.1180000E+00
       11   -1    0    0    0    0  0.00000000000E+00  0.00000000000E+00  0.54999999763E+01  0.55000000000E+01  0.51109989000E-03 0.  1.
     -623   -1    0    0    0    0  0.00000000000E+00  0.00000000000E+00  0.93234578044E-11  0.17124000000E+03  0.17124000000E+03 0.  1.
       11    1    1    2    0    0  0.69898867591E-02  0.22228366535E-01  0.68552189797E+00  0.68591799263E+00  0.51109989000E-03 0.  1.
     -623    1    1    2    0    0 -0.47035263510E-02  0.88930805591E-02  0.11433038729E-02  0.17124000030E+03  0.17124000000E+03 0.  1.
     -611    1    1    2    0    0  0.35065653842E-01 -0.19285115145E-01  0.15692707666E+01  0.15697810407E+01  0.51109989000E-03 0. -1.
      611    1    1    2    0    0 -0.37352014250E-01 -0.11836331950E-01  0.32440640080E+01  0.32443006675E+01  0.51109989000E-03 0.  1.
</event>
<event>
 6   3  0.2312675E+03  0.9118800E+02  0.7818608E-02  0.1180000E+00
       11   -1    0    0    0    0  0.00000000000E+00  0.00000000000E+00  0.54999999763E+01  0.55000000000E+01  0.51109989000E-03 0. -1.
     -623   -1    0    0    0    0  0.00000000000E+00  0.00000000000E+00  0.93234578044E-11  0.17124000000E+03  0.17124000000E+03 0. -1.
       11    1    1    2    0    0  0.24374985927E-02 -0.30157010824E-02  0.32386749261E-02  0.50780006679E-02  0.51109989000E-03 0. -1.
     -623    1    1    2    0    0 -0.10932269959E-02  0.56300965641E-02  0.23804610788E-02  0.17124000011E+03  0.17124000000E+03 0. -1.
     -611    1    1    2    0    0  0.32277517926E-01  0.18151743530E-01  0.29873814869E+01  0.29876110412E+01  0.51109989000E-03 0. -1.
      611    1    1    2    0    0 -0.33621789523E-01 -0.20766139012E-01  0.25069993534E+01  0.25073108456E+01  0.51109989000E-03 0.  1.
</event>
<event>
 6   3  0.2312675E+03  0.9118800E+02  0.7818608E-02  0.1180000E+00
       11   -1    0    0    0    0  0.00000000000E+00  0.00000000000E+00  0.54999999763E+01  0.55000000000E+01  0.51109989000E-03 0.  1.
     -623   -1    0    0    0    0  0.00000000000E+00  0.00000000000E+00  0.93234578044E-11  0.17124000000E+03  0.17124000000E+03 0. -1.
       11    1    1    2    0    0  0.72192349824E-01  0.19290224305E-02  0.85102169903E+00  0.85408058750E+00  0.51109989000E-03 0.  1.
     -623    1    1    2    0    0  0.40688711725E-01 -0.49995221813E-01  0.48937683440E-02  0.17124001220E+03  0.17124000000E+03 0. -1.
     -611    1    1    2    0    0 -0.79285496289E-01  0.42457958067E-01  0.39081327947E+01  0.39091675675E+01  0.51109989000E-03 0.  1.
      611    1    1    2    0    0 -0.33595565260E-01  0.56082413154E-02  0.73595171417E+00  0.73673964274E+00  0.51109989000E-03 0. -1.
</event>
<event>
 6   3  0.2312675E+03  0.9118800E+02  0.7818608E-02  0.1180000E+00
       11   -1    0    0    0    0  0.00000000000E+00  0.00000000000E+00  0.54999999763E+01  0.55000000000E+01  0.51109989000E-03 0. -1.
     -623   -1    0    0    0    0  0.00000000000E+00  0.00000000000E+00  0.93234578044E-11  0.17124000000E+03  0.17124000000E+03 0. -1.
       11    1    1    2    0    0 -0.71686709479E-01  0.19024276715E-01  0.48795768708E+00  0.49356243073E+00  0.51109989000E-03 0. -1.
     -623    1    1    2    0    0  0.55763290096E-02  0.92637178829E-02  0.61244926237E-02  0.17124000045E+03  0.17124000000E+03 0. -1.
     -611    1    1    2    0    0  0.34463646985E-01 -0.17466039266E-01  0.26266296475E+01  0.26269138493E+01  0.51109989000E-03 0. -1.
      611    1    1    2    0    0  0.31646733483E-01 -0.10821955331E-01  0.23792881490E+01  0.23795232690E+01  0.51109989000E-03 0.  1.
</event>
<event>
 6   3  0.2312675E+03  0.9118800E+02  0.7818608E-02  0.1180000E+00
       11   -1    0    0    0    0  0.00000000000E+00  0.00000000000E+00  0.54999999763E+01  0.55000000000E+01  0.51109989000E-03 0.  1.
     -623   -1    0    0    0    0  0.00000000000E+00  0.00000000000E+00  0.93234578044E-11  0.17124000000E+03  0.17124000000E+03 0.  1.
       11    1    1    2    0    0 -0.54633992812E-01  0.95937831000E-02  0.89363765114E+00  0.89535770874E+00  0.51109989000E-03 0.  1.
     -623    1    1    2    0    0 -0.75398208066E-02 -0.28728967744E-01  0.21915214069E-02  0.17124000259E+03  0.17124000000E+03 0.  1.
     -611    1    1    2    0    0  0.44205492156E-01  0.10434296884E-01  0.33979008128E+01  0.33982044075E+01  0.51109989000E-03 0.  1.
      611    1    1    2    0    0  0.17968321461E-01  0.87008877590E-02  0.12062699907E+01  0.12064352936E+01  0.51109989000E-03 0.  1.
</event>
<event>
 6   3  0.2312675E+03  0.9118800E+02  0.7818608E-02  0.1180000E+00
       11   -1    0    0    0    0  0.00000000000E+00  0.00000000000E+00  0.54999999763E+01  0.55000000000E+01  0.51109989000E-03 0.  1.
     -623   -1    0    0    0    0  0.00000000000E+00  0.00000000000E+00  0.93234578044E-11  0.17124000000E+03  0.17124000000E+03 0. -1.
       11    1    1    2    0    0 -0.12381945302E-02  0.47767508848E-02  0.65046812527E-01  0.65235722712E-01  0.51109989000E-03 0.  1.
     -623    1    1    2    0    0 -0.52314303827E-02 -0.27537627211E-02  0.13346145037E-02  0.17124000011E+03  0.17124000000E+03 0. -1.
     -611    1    1    2    0    0  0.48387930201E-01 -0.23558780346E-01  0.40198518665E+01  0.40202121458E+01  0.51109989000E-03 0.  1.
      611    1    1    2    0    0 -0.41918305288E-01  0.21535792182E-01  0.14137666827E+01  0.14145520241E+01  0.51109989000E-03 0. -1.
</event>
<event>
 6   3  0.2312675E+03  0.9118800E+02  0.7818608E-02  0.1180000E+00
       11   -1    0    0    0    0  0.00000000000E+00  0.00000000000E+00  0.54999999763E+01  0.55000000000E+01  0.51109989000E-03 0.  1.
     -623   -1    0    0    0    0  0.00000000000E+00  0.00000000000E+00  0.93234578044E-11  0.17124000000E+03  0.17124000000E+03 0.  1.
       11    1    1    2    0    0 -0.38520321372E-01 -0.11488094973E-01  0.16535963574E+00  0.17017597316E+00  0.51109989000E-03 0.  1.
     -623    1    1    2    0    0 -0.99058215171E-02 -0.37387747625E-02  0.67482658116E-02  0.17124000046E+03  0.17124000000E+03 0.  1.
     -611    1    1    2    0    0 -0.43384793583E-01  0.13957153890E-01  0.11152686637E+01  0.11161995771E+01  0.51109989000E-03 0. -1.
      611    1    1    2    0    0  0.91810936473E-01  0.12697158448E-02  0.42126234110E+01  0.42136239894E+01  0.51109989000E-03 0.  1.
</event>
<event>
 6   3  0.2312675E+03  0.9118800E+02  0.7818608E-02  0.1180000E+00
       11   -1    0    0    0    0  0.00000000000E+00  0.00000000000E+00  0.54999999763E+01  0.55000000000E+01  0.51109989000E-03 0. -1.
     -623   -1    0    0    0    0  0.00000000000E+00  0.00000000000E+00  0.93234578044E-11  0.17124000000E+03  0.17124000000E+03 0.  1.
       11    1    1    2    0    0 -0.27245808654E-01 -0.10445504027E+00  0.78324865238E+00  0.79065283292E+00  0.51109989000E-03 0. -1.
     -623    1    1    2    0    0 -0.99104831571E-02 -0.31473075823E-01  0.13238521284E-01  0.17124000369E+03  0.17124000000E+03 0.  1.
     -611    1    1    2    0    0  0.10943858212E+00  0.11429152765E+00  0.33356434381E+01  0.33393946703E+01  0.51109989000E-03 0. -1.
      611    1    1    2    0    0 -0.72282290313E-01  0.21636588450E-01  0.13678693645E+01  0.13699488060E+01  0.51109989000E-03 0.  1.
</event>
<event>
 6   3  0.2312675E+03  0.9118800E+02  0.7818608E-02  0.1180000E+00
       11   -1    0    0    0    0  0.00000000000E+00  0.00000000000E+00  0.54999999763E+01  0.55000000000E+01  0.51109989000E-03 0. -1.
     -623   -1    0    0    0    0  0.00000000000E+00  0.00000000000E+00  0.93234578044E-11  0.17124000000E+03  0.17124000000E+03 0. -1.
       11    1    1    2    0    0 -0.28260632818E-01 -0.17948449218E-01  0.22410336210E+00  0.22659079488E+00  0.51109989000E-03 0. -1.
     -623    1    1    2    0    0  0.20564817612E-01  0.53652902864E-02  0.13758849601E-01  0.17124000187E+03  0.17124000000E+03 0. -1.
     -611    1    1    2    0    0 -0.14973141781E+00 -0.45092163905E-01  0.34462544401E+01  0.34498003896E+01  0.51109989000E-03 0. -1.
      611    1    1    2    0    0  0.15742723302E+00  0.57675322836E-01  0.18158833245E+01  0.18236069439E+01  0.51109989000E-03 0.  1.
</event>
<event>
 6   3  0.2312675E+03  0.9118800E+02  0.7818608E-02  0.1180000E+00
       11   -1    0    0    0    0  0.00000000000E+00  0.00000000000E+00  0.54999999763E+01  0.55000000000E+01  0.51109989000E-03 0.  1.
     -623   -1    0    0    0    0  0.00000000000E+00  0.00000000000E+00  0.93234578044E-11  0.17124000000E+03  0.17124000000E+03 0. -1.
       11    1    1    2    0    0  0.10781947976E-01  0.71289006832E-02  0.73441221336E+00  0.73452612750E+00  0.51109989000E-03 0.  1.
     -623    1    1    2    0    0 -0.66905778558E-01 -0.37938646699E-01  0.56139338083E-03  0.17124001727E+03  0.17124000000E+03 0. -1.
     -611    1    1    2    0    0  0.27552091277E-01  0.15116932119E-01  0.23261392839E+01  0.23263516219E+01  0.51109989000E-03 0.  1.
      611    1    1    2    0    0  0.28571739125E-01  0.15692813797E-01  0.24388870706E+01  0.24391049614E+01  0.51109989000E-03 0.  1.
</event>
<event>
 6   3  0.2312675E+03  0.9118800E+02  0.7818608E-02  0.1180000E+00
       11   -1    0    0    0    0  0.00000000000E+00  0.00000000000E+00  0.54999999763E+01  0.55000000000E+01  0.51109989000E-03 0.  1.
     -623   -1    0    0    0    0  0.00000000000E+00  0.00000000000E+00  0.93234578044E-11  0.17124000000E+03  0.17124000000E+03 0. -1.
       11    1    1    2    0    0 -0.65577485323E-01 -0.20789584536E-02  0.96659554665E+00  0.96881987009E+00  0.51109989000E-03 0.  1.
     -623    1    1    2    0    0 -0.89801077602E-03 -0.28148811616E-01  0.28441219747E-02  0.17124000234E+03  0.17124000000E+03 0. -1.
     -611    1    1    2    0    0  0.44838510820E-01  0.14672288622E-01  0.32283747180E+01  0.32287194597E+01  0.51109989000E-03 0.  1.
      611    1    1    2    0    0  0.21636985279E-01  0.15555481447E-01  0.13021855896E+01  0.13024583307E+01  0.51109989000E-03 0. -1.
</event>
<event>
 6   3  0.2312675E+03  0.9118800E+02  0.7818608E-02  0.1180000E+00
       11   -1    0    0    0    0  0.00000000000E+00  0.00000000000E+00  0.54999999763E+01  0.55000000000E+01  0.51109989000E-03 0. -1.
     -623   -1    0    0    0    0  0.00000000000E+00  0.00000000000E+00  0.93234578044E-11  0.17124000000E+03  0.17124000000E+03 0. -1.
       11    1    1    2    0    0  0.77748498703E-03  0.41065200188E-02  0.52777796616E-01  0.52945491104E-01  0.51109989000E-03 0. -1.
     -623    1    1    2    0    0 -0.25414969051E-02  0.19003532701E-02  0.21961519433E-02  0.17124000004E+03  0.17124000000E+03 0. -1.
     -611    1    1    2    0    0  0.74373025193E-01  0.50705476182E-02  0.29953287331E+01  0.29962562537E+01  0.51109989000E-03 0. -1.
      611    1    1    2    0    0 -0.72609013275E-01 -0.11077420907E-01  0.24496972945E+01  0.24507982116E+01  0.51109989000E-03 0.  1.
</event>
<event>
 6   3  0.2312675E+03  0.9118800E+02  0.7818608E-02  0.1180000E+00
       11   -1    0    0    0    0  0.00000000000E+00  0.00000000000E+00  0.54999999763E+01  0.55000000000E+01  0.51109989000E-03 0. -1.
     -623   -1    0    0    0    0  0.00000000000E+00  0.00000000000E+00  0.93234578044E-11  0.17124000000E+03  0.17124000000E+03 0.  1.
       11    1    1    2    0    0  0.20522429617E-03 -0.34672495553E-03  0.26150551646E-03  0.70138679716E-03  0.51109989000E-03 0. -1.
     -623    1    1    2    0    0  0.32502729795E-03 -0.74997949289E-03  0.16101617392E-02  0.17124000001E+03  0.17124000000E+03 0.  1.
     -611    1    1    2    0    0  0.52514973664E-01  0.11977701966E-01  0.19020543534E+01  0.19028169413E+01  0.51109989000E-03 0.  1.
      611    1    1    2    0    0 -0.53045225258E-01 -0.10880997517E-01  0.35960739556E+01  0.35964816623E+01  0.51109989000E-03 0. -1.
</event>
<event>
 6   3  0.2312675E+03  0.9118800E+02  0.7818608E-02  0.1180000E+00
       11   -1    0    0    0    0  0.00000000000E+00  0.00000000000E+00  0.54999999763E+01  0.55000000000E+01  0.51109989000E-03 0. -1.
     -623   -1    0    0    0    0  0.00000000000E+00  0.00000000000E+00  0.93234578044E-11  0.17124000000E+03  0.17124000000E+03 0.  1.
       11    1    1    2    0    0 -0.33778588431E-01 -0.28331496099E-01  0.93485124413E+00  0.93589036569E+00  0.51109989000E-03 0. -1.
     -623    1    1    2    0    0  0.49955836151E-02 -0.88877071256E-02  0.14921288345E-02  0.17124000031E+03  0.17124000000E+03 0.  1.
     -611    1    1    2    0    0 -0.10693783229E-01  0.11438940128E-02  0.82384919807E+00  0.82391955182E+00  0.51109989000E-03 0.  1.
      611    1    1    2    0    0  0.39476788045E-01  0.36075309212E-01  0.37398074052E+01  0.37401897724E+01  0.51109989000E-03 0. -1.
</event>
<event>
 6   3  0.2312675E+03  0.9118800E+02  0.7818608E-02  0.1180000E+00
       11   -1    0    0    0    0  0.00000000000E+00  0.00000000000E+00  0.54999999763E+01  0.55000000000E+01  0.51109989000E-03 0. -1.
     -623   -1    0    0    0    0  0.00000000000E+00  0.00000000000E+00  0.93234578044E-11  0.17124000000E+03  0.17124000000E+03 0.  1.
       11    1    1    2    0    0  0.45269527255E-04  0.89204697718E-03 -0.24083424436E-03  0.10568923173E-02  0.51109989000E-03 0. -1.
     -623    1    1    2    0    0  0.32122245087E-02 -0.33868077495E-02  0.24566071440E-02  0.17124000008E+03  0.17124000000E+03 0.  1.
     -611    1    1    2    0    0 -0.49287495331E-01 -0.28353085188E-01  0.24986322505E+01  0.24992792039E+01  0.51109989000E-03 0. -1.
      611    1    1    2    0    0  0.46030001295E-01  0.30847845960E-01  0.29991519529E+01  0.29996638226E+01  0.51109989000E-03 0.  1.
</event>
<event>
 6   3  0.2312675E+03  0.9118800E+02  0.7818608E-02  0.1180000E+00
       11   -1    0    0    0    0  0.00000000000E+00  0.00000000000E+00  0.54999999763E+01  0.55000000000E+01  0.51109989000E-03 0.  1.
     -623   -1    0    0    0    0  0.00000000000E+00  0.00000000000E+00  0.93234578044E-11  0.17124000000E+03  0.17124000000E+03 0. -1.
       11    1    1    2    0    0 -0.30577663597E-01  0.58218237379E-01  0.88021929584E+00  0.88267243452E+00  0.51109989000E-03 0.  1.
     -623    1    1    2    0    0 -0.46290330594E-02  0.50456544827E-02  0.11247121655E-01  0.17124000051E+03  0.17124000000E+03 0. -1.
     -611    1    1    2    0    0 -0.11469040685E+00 -0.50016854727E-01  0.26862022625E+01  0.26891148045E+01  0.51109989000E-03 0.  1.
      611    1    1    2    0    0  0.14989710351E+00 -0.13247037135E-01  0.19223312962E+01  0.19282122547E+01  0.51109989000E-03 0. -1.
</event>
<event>
 6   3  0.2312675E+03  0.9118800E+02  0.7818608E-02  0.1180000E+00
       11   -1    0    0    0    0  0.00000000000E+00  0.00000000000E+00  0.54999999763E+01  0.55000000000E+01  0.51109989000E-03 0.  1.
     -623   -1    0    0    0    0  0.00000000000E+00  0.00000000000E+00  0.93234578044E-11  0.17124000000E+03  0.17124000000E+03 0. -1.
       11    1    1    2    0    0  0.68559214268E-01 -0.16997063150E-01  0.48295828959E+00  0.48809654447E+00  0.51109989000E-03 0.  1.
     -623    1    1    2    0    0  0.30239109179E-01 -0.54520385592E-01  0.66345694639E-02  0.17124001148E+03  0.17124000000E+03 0. -1.
     -611    1    1    2    0    0 -0.39507304822E-01  0.27841253229E-01  0.20214644185E+01  0.20220421902E+01  0.51109989000E-03 0.  1.
      611    1    1    2    0    0 -0.59291018598E-01  0.43676195493E-01  0.29889426973E+01  0.29898497862E+01  0.51109989000E-03 0. -1.
</event>
<event>
 6   3  0.2312675E+03  0.9118800E+02  0.7818608E-02  0.1180000E+00
       11   -1    0    0    0    0  0.00000000000E+00  0.00000000000E+00  0.54999999763E+01  0.55000000000E+01  0.51109989000E-03 0. -1.
     -623   -1    0    0    0    0  0.00000000000E+00  0.00000000000E+00  0.93234578044E-11  0.17124000000E+03  0.17124000000E+03 0. -1.
       11    1    1    2    0    0 -0.61484004715E-03  0.13984998021E-01  0.22074910763E+00  0.22119310102E+00  0.51109989000E-03 0. -1.
     -623    1    1    2    0    0 -0.62358707013E-01 -0.18645303372E-01  0.83659708254E-03  0.17124001237E+03  0.17124000000E+03 0. -1.
     -611    1    1    2    0    0  0.43108933247E-01  0.15991047809E-02  0.37434604982E+01  0.37437090833E+01  0.51109989000E-03 0. -1.
      611    1    1    2    0    0  0.19864613808E-01  0.30612005708E-02  0.15349537729E+01  0.15350854438E+01  0.51109989000E-03 0.  1.
</event>
<event>
 6   3  0.2312675E+03  0.9118800E+02  0.7818608E-02  0.1180000E+00
       11   -1    0    0    0    0  0.00000000000E+00  0.00000000000E+00  0.54999999763E+01  0.55000000000E+01  0.51109989000E-03 0. -1.
     -623   -1    0    0    0    0  0.00000000000E+00  0.00000000000E+00  0.93234578044E-11  0.17124000000E+03  0.17124000000E+03 0. -1.
       11    1    1    2    0    0  0.27448149080E-02 -0.46435359863E-02  0.10563218903E+01  0.10563357864E+01  0.51109989000E-03 0. -1.
     -623    1    1    2    0    0  0.62935521254E-01  0.25517400179E-01  0.56198897855E-03  0.17124001347E+03  0.17124000000E+03 0. -1.
     -611    1    1    2    0    0 -0.33157984963E-01 -0.10131586217E-01  0.22292594123E+01  0.22295290735E+01  0.51109989000E-03 0.  1.
      611    1    1    2    0    0 -0.32522351196E-01 -0.10742277976E-01  0.22138566846E+01  0.22141216726E+01  0.51109989000E-03 0. -1.
</event>
<event>
 6   3  0.2312675E+03  0.9118800E+02  0.7818608E-02  0.1180000E+00
       11   -1    0    0    0    0  0.00000000000E+00  0.00000000000E+00  0.54999999763E+01  0.55000000000E+01  0.51109989000E-03 0. -1.
     -623   -1    0    0    0    0  0.00000000000E+00  0.00000000000E+00  0.93234578044E-11  0.17124000000E+03  0.17124000000E+03 0. -1.
       11    1    1    2    0    0 -0.54863705957E-02  0.18897126848E-03  0.25332452696E+00  0.25338451641E+00  0.51109989000E-03 0. -1.
     -623    1    1    2    0    0  0.14969174116E+00 -0.22733817421E-01  0.21578303985E-02  0.17124006695E+03  0.17124000000E+03 0. -1.
     -611    1    1    2    0    0 -0.60794661591E-01  0.94469713791E-02  0.21861809794E+01  0.21870465866E+01  0.51109989000E-03 0. -1.
      611    1    1    2    0    0 -0.83410709209E-01  0.13097874809E-01  0.30583366482E+01  0.30595019555E+01  0.51109989000E-03 0. -1.
</event>
<event>
 6   3  0.2312675E+03  0.9118800E+02  0.7818608E-02  0.1180000E+00
       11   -1    0    0    0    0  0.00000000000E+00  0.00000000000E+00  0.54999999763E+01  0.55000000000E+01  0.51109989000E-03 0.  1.
     -623   -1    0    0    0    0  0.00000000000E+00  0.00000000000E+00  0.93234578044E-11  0.17124000000E+03  0.17124000000E+03 0. -1.
       11    1    1    2    0    0  0.78563838715E-02  0.10672598379E-02  0.22057092968E+00  0.22071397340E+00  0.51109989000E-03 0.  1.
     -623    1    1    2    0    0 -0.26211239492E-01 -0.43566525791E-03  0.11975575380E-02  0.17124000201E+03  0.17124000000E+03 0. -1.
     -611    1    1    2    0    0 -0.34598809718E-01  0.28232682465E-01  0.24879903258E+01  0.24883911036E+01  0.51109989000E-03 0. -1.
      611    1    1    2    0    0  0.52953665339E-01 -0.28864277045E-01  0.27902411633E+01  0.27908929123E+01  0.51109989000E-03 0.  1.
</event>
<event>
 6   3  0.2312675E+03  0.9118800E+02  0.7818608E-02  0.1180000E+00
       11   -1    0    0    0    0  0.00000000000E+00  0.00000000000E+00  0.54999999763E+01  0.55000000000E+01  0.51109989000E-03 0. -1.
     -623   -1    0    0    0    0  0.00000000000E+00  0.00000000000E+00  0.93234578044E-11  0.17124000000E+03  0.17124000000E+03 0. -1.
       11    1    1    2    0    0 -0.22559809218E-01  0.60417342120E-02  0.70504214641E+00  0.70542904461E+00  0.51109989000E-03 0. -1.
     -623    1    1    2    0    0  0.78422802214E-01  0.25089998118E-01  0.83498463671E-03  0.17124001980E+03  0.17124000000E+03 0. -1.
     -611    1    1    2    0    0 -0.18230351374E-01 -0.10361516329E-01  0.17148009883E+01  0.17149292689E+01  0.51109989000E-03 0.  1.
      611    1    1    2    0    0 -0.37632641609E-01 -0.20770215996E-01  0.30793218560E+01  0.30796218877E+01  0.51109989000E-03 0. -1.
</event>
<event>
 6   3  0.2312675E+03  0.9118800E+02  0.7818608E-02  0.1180000E+00
       11   -1    0    0    0    0  0.00000000000E+00  0.00000000000E+00  0.54999999763E+01  0.55000000000E+01  0.51109989000E-03 0. -1.
     -623   -1    0    0    0    0  0.00000000000E+00  0.00000000000E+00  0.93234578044E-11  0.17124000000E+03  0.17124000000E+03 0.  1.
       11    1    1    2    0    0  0.88043785059E-01 -0.48233260823E-01  0.28214289663E+00  0.29947125217E+00  0.51109989000E-03 0. -1.
     -623    1    1    2    0    0 -0.11307416224E-01  0.72062340676E-03  0.18116384665E-01  0.17124000133E+03  0.17124000000E+03 0.  1.
     -611    1    1    2    0    0 -0.14281456636E-01  0.10266565766E-01  0.90362137930E+00  0.90379268681E+00  0.51109989000E-03 0. -1.
      611    1    1    2    0    0 -0.62454912202E-01  0.37246071651E-01  0.42961193158E+01  0.42967347280E+01  0.51109989000E-03 0. -1.
</event>
<event>
 6   3  0.2312675E+03  0.9118800E+02  0.7818608E-02  0.1180000E+00
       11   -1    0    0    0    0  0.00000000000E+00  0.00000000000E+00  0.54999999763E+01  0.55000000000E+01  0.51109989000E-03 0. -1.
     -623   -1    0    0    0    0  0.00000000000E+00  0.00000000000E+00  0.93234578044E-11  0.17124000000E+03  0.17124000000E+03 0. -1.
       11    1    1    2    0    0 -0.15065009303E+00 -0.62159655079E-01  0.10713417535E+01  0.10836663173E+01  0.51109989000E-03 0. -1.
     -623    1    1    2    0    0  0.20980040049E-01  0.38648436381E-01  0.14297624367E-01  0.17124000624E+03  0.17124000000E+03 0. -1.
     -611    1    1    2    0    0  0.91795645317E-01  0.16843888197E-01  0.31272937543E+01  0.31286860891E+01  0.51109989000E-03 0. -1.
      611    1    1    2    0    0  0.37874407819E-01  0.66673305294E-02  0.12870668494E+01  0.12876413554E+01  0.51109989000E-03 0. -1.
</event>
<event>
 6   3  0.2312675E+03  0.9118800E+02  0.7818608E-02  0.1180000E+00
       11   -1    0    0    0    0  0.00000000000E+00  0.00000000000E+00  0.54999999763E+01  0.55000000000E+01  0.51109989000E-03 0. -1.
     -623   -1    0    0    0    0  0.00000000000E+00  0.00000000000E+00  0.93234578044E-11  0.17124000000E+03  0.17124000000E+03 0. -1.
       11    1    1    2    0    0  0.51519850217E-02  0.12538495566E-02  0.11624463451E+00  0.11636662479E+00  0.51109989000E-03 0. -1.
     -623    1    1    2    0    0 -0.10181584921E-01 -0.16189582001E-01  0.79855424208E-03  0.17124000107E+03  0.17124000000E+03 0. -1.
     -611    1    1    2    0    0  0.41849114080E-01  0.20200360425E-01  0.24607904972E+01  0.24612292732E+01  0.51109989000E-03 0.  1.
      611    1    1    2    0    0 -0.36819514181E-01 -0.52646279807E-02  0.29221662903E+01  0.29224030321E+01  0.51109989000E-03 0. -1.
</event>
<event>
 6   3  0.2312675E+03  0.9118800E+02  0.7818608E-02  0.1180000E+00
       11   -1    0    0    0    0  0.00000000000E+00  0.00000000000E+00  0.54999999763E+01  0.55000000000E+01  0.51109989000E-03 0.  1.
     -623   -1    0    0    0    0  0.00000000000E+00  0.00000000000E+00  0.93234578044E-11  0.17124000000E+03  0.17124000000E+03 0. -1.
       11    1    1    2    0    0 -0.54683856525E-02 -0.66028026063E-02  0.57940253203E+00  0.57946618158E+00  0.51109989000E-03 0.  1.
     -623    1    1    2    0    0  0.57293274692E-01 -0.17740533769E-01  0.40965080314E-03  0.17124001050E+03  0.17124000000E+03 0. -1.
     -611    1    1    2    0    0 -0.37387085683E-01  0.15651930079E-01  0.35805718157E+01  0.35808012463E+01  0.51109989000E-03 0.  1.
      611    1    1    2    0    0 -0.14437803368E-01  0.86914062999E-02  0.13396159788E+01  0.13397220692E+01  0.51109989000E-03 0. -1.
</event>
<event>
 6   3  0.2312675E+03  0.9118800E+02  0.7818608E-02  0.1180000E+00
       11   -1    0    0    0    0  0.00000000000E+00  0.00000000000E+00  0.54999999763E+01  0.55000000000E+01  0.51109989000E-03 0.  1.
     -623   -1    0    0    0    0  0.00000000000E+00  0.00000000000E+00  0.93234578044E-11  0.17124000000E+03  0.17124000000E+03 0.  1.
       11    1    1    2    0    0 -0.27042670482E-02  0.11714620541E-01  0.22187304360E+00  0.22219913163E+00  0.51109989000E-03 0.  1.
     -623    1    1    2    0    0  0.29041274538E-01  0.55904889425E-02  0.87829212098E-03  0.17124000256E+03  0.17124000000E+03 0.  1.
     -611    1    1    2    0    0 -0.49736737306E-01 -0.93267193116E-02  0.38918764165E+01  0.38922054202E+01  0.51109989000E-03 0.  1.
      611    1    1    2    0    0  0.23399729818E-01 -0.79783901718E-02  0.13853722240E+01  0.13855928919E+01  0.51109989000E-03 0. -1.
</event>
<event>
 6   3  0.2312675E+03  0.9118800E+02  0.7818608E-02  0.1180000E+00
       11   -1    0    0    0    0  0.00000000000E+00  0.00000000000E+00  0.54999999763E+01  0.55000000000E+01  0.51109989000E-03 0.  1.
     -623   -1    0    0    0    0  0.00000000000E+00  0.00000000000E+00  0.93234578044E-11  0.17124000000E+03  0.17124000000E+03 0. -1.
       11    1    1    2    0    0 -0.58379871479E-02  0.25358013501E-01  0.88404911376E+00  0.88443213855E+00  0.51109989000E-03 0.  1.
     -623    1    1    2    0    0  0.57412176747E-01 -0.30897273392E-01  0.68730543323E-03  0.17124001241E+03  0.17124000000E+03 0. -1.
     -611    1    1    2    0    0 -0.25951707622E-01  0.26496822568E-02  0.22480587637E+01  0.22482101722E+01  0.51109989000E-03 0.  1.
      611    1    1    2    0    0 -0.25622481967E-01  0.28895776328E-02  0.23672047924E+01  0.23673452751E+01  0.51109989000E-03 0.  1.
</event>
<event>
 6   3  0.2312675E+03  0.9118800E+02  0.7818608E-02  0.1180000E+00
       11   -1    0    0    0    0  0.00000000000E+00  0.00000000000E+00  0.54999999763E+01  0.55000000000E+01  0.51109989000E-03 0. -1.
     -623   -1    0    0    0    0  0.00000000000E+00  0.00000000000E+00  0.93234578044E-11  0.17124000000E+03  0.17124000000E+03 0. -1.
       11    1    1    2    0    0  0.16348329475E-01  0.72182505641E-02  0.47835042657E+00  0.47868440839E+00  0.51109989000E-03 0. -1.
     -623    1    1    2    0    0 -0.14836811418E-01 -0.55085837183E-02  0.10368882019E-02  0.17124000073E+03  0.17124000000E+03 0. -1.
     -611    1    1    2    0    0  0.40726878523E-01 -0.69887093734E-02  0.25807511827E+01  0.25810820306E+01  0.51109989000E-03 0. -1.
      611    1    1    2    0    0 -0.42238396580E-01  0.52790425275E-02  0.24398614787E+01  0.24402328264E+01  0.51109989000E-03 0.  1.
</event>
<event>
 6   3  0.2312675E+03  0.9118800E+02  0.7818608E-02  0.1180000E+00
       11   -1    0    0    0    0  0.00000000000E+00  0.00000000000E+00  0.54999999763E+01  0.55000000000E+01  0.51109989000E-03 0.  1.
     -623   -1    0    0    0    0  0.00000000000E+00  0.00000000000E+00  0.93234578044E-11  0.17124000000E+03  0.17124000000E+03 0.  1.
       11    1    1    2    0    0 -0.64963047665E-01 -0.17725552604E-01  0.59106472328E+00  0.59488836020E+00  0.51109989000E-03 0.  1.
     -623    1    1    2    0    0 -0.52068712272E-03  0.13906350074E-01  0.42685476052E-02  0.17124000062E+03  0.17124000000E+03 0.  1.
     -611    1    1    2    0    0  0.27122869744E-01  0.33966171260E-02  0.18091576550E+01  0.18093642167E+01  0.51109989000E-03 0. -1.
      611    1    1    2    0    0  0.38360865047E-01  0.42258540324E-03  0.30955090506E+01  0.30957468046E+01  0.51109989000E-03 0.  1.
</event>
<event>
 6   3  0.2312675E+03  0.9118800E+02  0.7818608E-02  0.1180000E+00
       11   -1    0    0    0    0  0.00000000000E+00  0.00000000000E+00  0.54999999763E+01  0.55000000000E+01  0.51109989000E-03 0.  1.
     -623   -1    0    0    0    0  0.00000000000E+00  0.00000000000E+00  0.93234578044E-11  0.17124000000E+03  0.17124000000E+03 0. -1.
       11    1    1    2    0    0 -0.23277347524E-02 -0.48766012341E-01  0.31871569962E+00  0.32243371523E+00  0.51109989000E-03 0.  1.
     -623    1    1    2    0    0 -0.79024475278E-02  0.68709106524E-02  0.50233509705E-02  0.17124000039E+03  0.17124000000E+03 0. -1.
     -611    1    1    2    0    0  0.47704667638E-01  0.46354474864E-01  0.42717489092E+01  0.42722667844E+01  0.51109989000E-03 0.  1.
      611    1    1    2    0    0 -0.37474485358E-01 -0.44593731755E-02  0.90451201643E+00  0.90529910646E+00  0.51109989000E-03 0. -1.
</event>
<event>
 6   3  0.2312675E+03  0.9118800E+02  0.7818608E-02  0.1180000E+00
       11   -1    0    0    0    0  0.00000000000E+00  0.00000000000E+00  0.54999999763E+01  0.55000000000E+01  0.51109989000E-03 0.  1.
     -623   -1    0    0    0    0  0.00000000000E+00  0.00000000000E+00  0.93234578044E-11  0.17124000000E+03  0.17124000000E+03 0.  1.
       11    1    1    2    0    0  0.61006131115E-01 -0.14291631961E-01  0.21611641803E+00  0.22501681302E+00  0.51109989000E-03 0.  1.
     -623    1    1    2    0    0  0.37528157921E-01 -0.98823807373E-02  0.10024568108E-01  0.17124000469E+03  0.17124000000E+03 0.  1.
     -611    1    1    2    0    0 -0.68938529780E-01  0.33255721892E-01  0.33811018469E+01  0.33819681288E+01  0.51109989000E-03 0.  1.
      611    1    1    2    0    0 -0.29595759257E-01 -0.90817091931E-02  0.18927571433E+01  0.18930103674E+01  0.51109989000E-03 0. -1.
</event>
<event>
 6   3  0.2312675E+03  0.9118800E+02  0.7818608E-02  0.1180000E+00
       11   -1    0    0    0    0  0.00000000000E+00  0.00000000000E+00  0.54999999763E+01  0.55000000000E+01  0.51109989000E-03 0.  1.
     -623   -1    0    0    0    0  0.00000000000E+00  0.00000000000E+00  0.93234578044E-11  0.17124000000E+03  0.17124000000E+03 0. -1.
       11    1    1    2    0    0  0.58149552944E-01 -0.70681917279E-01  0.41259562547E+00  0.42262597567E+00  0.51109989000E-03 0.  1.
     -623    1    1    2    0    0  0.47907206267E-02 -0.27253717143E-01  0.11372795661E-01  0.17124000261E+03  0.17124000000E+03 0. -1.
     -611    1    1    2    0    0 -0.51148905882E-01  0.80219078452E-01  0.40245878920E+01  0.40257122690E+01  0.51109989000E-03 0.  1.
      611    1    1    2    0    0 -0.11791367685E-01  0.17716555965E-01  0.10514436629E+01  0.10516591416E+01  0.51109989000E-03 0. -1.
</event>
<event>
 6   3  0.2312675E+03  0.9118800E+02  0.7818608E-02  0.1180000E+00
       11   -1    0    0    0    0  0.00000000000E+00  0.00000000000E+00  0.54999999763E+01  0.55000000000E+01  0.51109989000E-03 0. -1.
     -623   -1    0    0    0    0  0.00000000000E+00  0.00000000000E+00  0.93234578044E-11  0.17124000000E+03  0.17124000000E+03 0. -1.
       11    1    1    2    0    0  0.65090920927E-01 -0.49689947919E-01  0.89953414143E+00  0.90325403499E+00  0.51109989000E-03 0. -1.
     -623    1    1    2    0    0 -0.12323486874E-01  0.41290209494E-02  0.42516329728E-02  0.17124000055E+03  0.17124000000E+03 0. -1.
     -611    1    1    2    0    0 -0.14166187285E-01  0.14421877342E-01  0.12453027068E+01  0.12454668860E+01  0.51109989000E-03 0.  1.
      611    1    1    2    0    0 -0.38601246771E-01  0.31139049630E-01  0.33509114953E+01  0.33512785332E+01  0.51109989000E-03 0. -1.
</event>
<event>
 6   3  0.2312675E+03  0.9118800E+02  0.7818608E-02  0.1180000E+00
       11   -1    0    0    0    0  0.00000000000E+00  0.00000000000E+00  0.54999999763E+01  0.55000000000E+01  0.51109989000E-03 0. -1.
     -623   -1    0    0    0    0  0.00000000000E+00  0.00000000000E+00  0.93234578044E-11  0.17124000000E+03  0.17124000000E+03 0. -1.
       11    1    1    2    0    0 -0.23037016937E-01  0.20518915558E-01  0.45347403533E+00  0.45452248788E+00  0.51109989000E-03 0. -1.
     -623    1    1    2    0    0 -0.15522359056E-01  0.25941317574E-02  0.26021800533E-02  0.17124000074E+03  0.17124000000E+03 0. -1.
     -611    1    1    2    0    0  0.61977388739E-01 -0.56545987962E-01  0.35885638046E+01  0.35895444121E+01  0.51109989000E-03 0. -1.
      611    1    1    2    0    0 -0.23418012746E-01  0.33432940647E-01  0.14553599562E+01  0.14559323570E+01  0.51109989000E-03 0.  1.
</event>
<event>
 6   3  0.2312675E+03  0.9118800E+02  0.7818608E-02  0.1180000E+00
       11   -1    0    0    0    0  0.00000000000E+00  0.00000000000E+00  0.54999999763E+01  0.55000000000E+01  0.51109989000E-03 0. -1.
     -623   -1    0    0    0    0  0.00000000000E+00  0.00000000000E+00  0.93234578044E-11  0.17124000000E+03  0.17124000000E+03 0. -1.
       11    1    1    2    0    0  0.12893896223E-01  0.27981094298E-01  0.39733660374E+00  0.39852958747E+00  0.51109989000E-03 0. -1.
     -623    1    1    2    0    0 -0.44667099054E-02  0.24545559705E-02  0.20666486786E-02  0.17124000009E+03  0.17124000000E+03 0. -1.
     -611    1    1    2    0    0 -0.40022877195E-01 -0.37170922971E-01  0.21389646430E+01  0.21396620092E+01  0.51109989000E-03 0.  1.
      611    1    1    2    0    0  0.31595690878E-01  0.67352727022E-02  0.29616320808E+01  0.29618083150E+01  0.51109989000E-03 0. -1.
</event>
<event>
 6   3  0.2312675E+03  0.9118800E+02  0.7818608E-02  0.1180000E+00
       11   -1    0    0    0    0  0.00000000000E+00  0.00000000000E+00  0.54999999763E+01  0.55000000000E+01  0.51109989000E-03 0.  1.
     -623   -1    0    0    0    0  0.00000000000E+00  0.00000000000E+00  0.93234578044E-11  0.17124000000E+03  0.17124000000E+03 0. -1.
       11    1    1    2    0    0 -0.15936263980E-01 -0.28593888135E-02  0.16398366381E+00  0.16478180674E+00  0.51109989000E-03 0.  1.
     -623    1    1    2    0    0 -0.40861567205E-01  0.19990239724E-01  0.11342527765E-02  0.17124000605E+03  0.17124000000E+03 0. -1.
     -611    1    1    2    0    0  0.39189986024E-01 -0.11427192740E-01  0.36344429819E+01  0.36346722666E+01  0.51109989000E-03 0.  1.
      611    1    1    2    0    0  0.17607845185E-01 -0.57036581775E-02  0.17004390801E+01  0.17005398831E+01  0.51109989000E-03 0. -1.
</event>
<event>
 6   3  0.2312675E+03  0.9118800E+02  0.7818608E-02  0.1180000E+00
       11   -1    0    0    0    0  0.00000000000E+00  0.00000000000E+00  0.54999999763E+01  0.55000000000E+01  0.51109989000E-03 0.  1.
     -623   -1    0    0    0    0  0.00000000000E+00  0.00000000000E+00  0.93234578044E-11  0.17124000000E+03  0.17124000000E+03 0. -1.
       11    1    1    2    0    0 -0.19151926119E-02  0.15771808324E-01  0.25472942345E+00  0.25522491708E+00  0.51109989000E-03 0.  1.
     -623    1    1    2    0    0  0.45287410134E-02 -0.97103135169E-03  0.10926045968E-02  0.17124000007E+03  0.17124000000E+03 0. -1.
     -611    1    1    2    0    0  0.33622714907E-01 -0.24482952583E-01  0.26846017270E+01  0.26849239460E+01  0.51109989000E-03 0.  1.
      611    1    1    2    0    0 -0.36236263309E-01  0.96821756109E-02  0.25595762212E+01  0.25598510708E+01  0.51109989000E-03 0. -1.
</event>
<event>
 6   3  0.2312675E+03  0.9118800E+02  0.7818608E-02  0.1180000E+00
       11   -1    0    0    0    0  0.00000000000E+00  0.00000000000E+00  0.54999999763E+01  0.55000000000E+01  0.51109989000E-03 0.  1.
     -623   -1    0    0    0    0  0.00000000000E+00  0.00000000000E+00  0.93234578044E-11  0.17124000000E+03  0.17124000000E+03 0. -1.
       11    1    1    2    0    0 -0.33836956746E-01 -0.90923494471E-02  0.18999813618E+00  0.19320238983E+00  0.51109989000E-03 0.  1.
     -623    1    1    2    0    0  0.84719833969E-02 -0.24698246582E-02  0.39104032393E-02  0.17124000027E+03  0.17124000000E+03 0. -1.
     -611    1    1    2    0    0 -0.27633552613E-01 -0.33439287354E-02  0.25784817760E+01  0.25786320647E+01  0.51109989000E-03 0. -1.
      611    1    1    2    0    0  0.52998525962E-01  0.14906102841E-01  0.27276096609E+01  0.27281652734E+01  0.51109989000E-03 0.  1.
</event>
<event>
 6   3  0.2312675E+03  0.9118800E+02  0.7818608E-02  0.1180000E+00
       11   -1    0    0    0    0  0.00000000000E+00  0.00000000000E+00  0.54999999763E+01  0.55000000000E+01  0.51109989000E-03 0. -1.
     -623   -1    0    0    0    0  0.00000000000E+00  0.00000000000E+00  0.93234578044E-11  0.17124000000E+03  0.17124000000E+03 0.  1.
       11    1    1    2    0    0  0.20106774504E-01 -0.40768151659E-01  0.34655461733E+00  0.34952351650E+00  0.51109989000E-03 0. -1.
     -623    1    1    2    0    0 -0.15369670631E-01  0.78154176515E-02  0.44161725923E-02  0.17124000093E+03  0.17124000000E+03 0.  1.
     -611    1    1    2    0    0  0.52033755012E-01 -0.20671716051E-02  0.16863500876E+01  0.16871540132E+01  0.51109989000E-03 0.  1.
      611    1    1    2    0    0 -0.56770858885E-01  0.35019905613E-01  0.34626790987E+01  0.34633215453E+01  0.51109989000E-03 0. -1.
</event>
<event>
 6   3  0.2312675E+03  0.9118800E+02  0.7818608E-02  0.1180000E+00
       11   -1    0    0    0    0  0.00000000000E+00  0.00000000000E+00  0.54999999763E+01  0.55000000000E+01  0.51109989000E-03 0.  1.
     -623   -1    0    0    0    0  0.00000000000E+00  0.00000000000E+00  0.93234578044E-11  0.17124000000E+03  0.17124000000E+03 0. -1.
       11    1    1    2    0    0 -0.77951261293E-01 -0.20816068977E-01  0.86684878059E+00  0.87059564523E+00  0.51109989000E-03 0.  1.
     -623    1    1    2    0    0  0.68519279675E-02  0.11073660969E-01  0.43075685138E-02  0.17124000055E+03  0.17124000000E+03 0. -1.
     -611    1    1    2    0    0  0.51681678210E-01  0.44378009506E-02  0.33604991225E+01  0.33608994783E+01  0.51109989000E-03 0.  1.
      611    1    1    2    0    0  0.19417655117E-01  0.53046070573E-02  0.12683445047E+01  0.12685043272E+01  0.51109989000E-03 0. -1.
</event>
<event>
 6   3  0.2312675E+03  0.9118800E+02  0.7818608E-02  0.1180000E+00
       11   -1    0    0    0    0  0.00000000000E+00  0.00000000000E+00  0.54999999763E+01  0.55000000000E+01  0.51109989000E-03 0.  1.
     -623   -1    0    0    0    0  0.00000000000E+00  0.00000000000E+00  0.93234578044E-11  0.17124000000E+03  0.17124000000E+03 0.  1.
       11    1    1    2    0    0 -0.94632705190E-01 -0.54655658601E-01  0.96539744223E+00  0.97156321081E+00  0.51109989000E-03 0.  1.
     -623    1    1    2    0    0  0.11404478935E-01  0.12193873032E-01  0.71313644694E-02  0.17124000096E+03  0.17124000000E+03 0.  1.
     -611    1    1    2    0    0  0.14980998042E-01  0.71940459049E-02  0.77380821788E+00  0.77398682410E+00  0.51109989000E-03 0.  1.
      611    1    1    2    0    0  0.68247228214E-01  0.35267739665E-01  0.37536629518E+01  0.37544490027E+01  0.51109989000E-03 0.  1.
</event>
<event>
 6   3  0.2312675E+03  0.9118800E+02  0.7818608E-02  0.1180000E+00
       11   -1    0    0    0    0  0.00000000000E+00  0.00000000000E+00  0.54999999763E+01  0.55000000000E+01  0.51109989000E-03 0.  1.
     -623   -1    0    0    0    0  0.00000000000E+00  0.00000000000E+00  0.93234578044E-11  0.17124000000E+03  0.17124000000E+03 0. -1.
       11    1    1    2    0    0 -0.54662248921E-02  0.21800532782E-01  0.52523130973E+00  0.52571221480E+00  0.51109989000E-03 0.  1.
     -623    1    1    2    0    0  0.12361807512E-01  0.54451364706E-02  0.10801834699E-02  0.17124000054E+03  0.17124000000E+03 0. -1.
     -611    1    1    2    0    0  0.23776753188E-01 -0.34980252727E-01  0.21094530318E+01  0.21098770833E+01  0.51109989000E-03 0. -1.
      611    1    1    2    0    0 -0.30672335808E-01  0.77345834749E-02  0.28642354512E+01  0.28644101656E+01  0.51109989000E-03 0.  1.
</event>
<event>
 6   3  0.2312675E+03  0.9118800E+02  0.7818608E-02  0.1180000E+00
       11   -1    0    0    0    0  0.00000000000E+00  0.00000000000E+00  0.54999999763E+01  0.55000000000E+01  0.51109989000E-03 0.  1.
     -623   -1    0    0    0    0  0.00000000000E+00  0.00000000000E+00  0.93234578044E-11  0.17124000000E+03  0.17124000000E+03 0. -1.
       11    1    1    2    0    0 -0.61353907134E-01  0.41545903251E-02  0.38742098452E+00  0.39227138949E+00  0.51109989000E-03 0.  1.
     -623    1    1    2    0    0 -0.26086999199E-01  0.10930899290E-01  0.56271439964E-02  0.17124000243E+03  0.17124000000E+03 0. -1.
     -611    1    1    2    0    0  0.62974409698E-01 -0.92030193802E-02  0.37770029376E+01  0.37775391359E+01  0.51109989000E-03 0.  1.
      611    1    1    2    0    0  0.24466496630E-01 -0.58824702338E-02  0.13299489099E+01  0.13301870459E+01  0.51109989000E-03 0. -1.
</event>
<event>
 6   3  0.2312675E+03  0.9118800E+02  0.7818608E-02  0.1180000E+00
       11   -1    0    0    0    0  0.00000000000E+00  0.00000000000E+00  0.54999999763E+01  0.55000000000E+01  0.51109989000E-03 0.  1.
     -623   -1    0    0    0    0  0.00000000000E+00  0.00000000000E+00  0.93234578044E-11  0.17124000000E+03  0.17124000000E+03 0.  1.
       11    1    1    2    0    0  0.58262750935E-01  0.34384833147E-01  0.74400490439E+00  0.74707457718E+00  0.51109989000E-03 0.  1.
     -623    1    1    2    0    0  0.28271857896E-01  0.23893618247E-01  0.42390079256E-02  0.17124000405E+03  0.17124000000E+03 0.  1.
     -611    1    1    2    0    0 -0.65748485199E-02 -0.65162048996E-02  0.60781534307E+00  0.60788604364E+00  0.51109989000E-03 0. -1.
      611    1    1    2    0    0 -0.79959760310E-01 -0.51762246493E-01  0.41439407208E+01  0.41450353258E+01  0.51109989000E-03 0.  1.
</event>
<event>
 6   3  0.2312675E+03  0.9118800E+02  0.7818608E-02  0.1180000E+00
       11   -1    0    0    0    0  0.00000000000E+00  0.00000000000E+00  0.54999999763E+01  0.55000000000E+01  0.51109989000E-03 0. -1.
     -623   -1    0    0    0    0  0.00000000000E+00  0.00000000000E+00  0.93234578044E-11  0.17124000000E+03  0.17124000000E+03 0.  1.
       11    1    1    2    0    0  0.44856705213E-01  0.51235262104E-02  0.10803409756E+01  0.10812840789E+01  0.51109989000E-03 0. -1.
     -623    1    1    2    0    0  0.19237397578E-01  0.99826167902E-02  0.14354413234E-02  0.17124000138E+03  0.17124000000E+03 0.  1.
     -611    1    1    2    0    0 -0.15130264940E-01 -0.39835009712E-02  0.10626483716E+01  0.10627636690E+01  0.51109989000E-03 0.  1.
      611    1    1    2    0    0 -0.48963837865E-01 -0.11122642032E-01  0.33555751885E+01  0.33559508753E+01  0.51109989000E-03 0. -1.
</event>
<event>
 6   3  0.2312675E+03  0.9118800E+02  0.7818608E-02  0.1180000E+00
       11   -1    0    0    0    0  0.00000000000E+00  0.00000000000E+00  0.54999999763E+01  0.55000000000E+01  0.51109989000E-03 0.  1.
     -623   -1    0    0    0    0  0.00000000000E+00  0.00000000000E+00  0.93234578044E-11  0.17124000000E+03  0.17124000000E+03 0. -1.
       11    1    1    2    0    0  0.82921234848E-01  0.67250432137E-01  0.97143455639E+00  0.97728394563E+00  0.51109989000E-03 0.  1.
     -623    1    1    2    0    0  0.12710978936E-01  0.33544851361E-01  0.20543920990E-01  0.17124000499E+03  0.17124000000E+03 0. -1.
     -611    1    1    2    0    0 -0.18942944402E+00 -0.14017662007E+00  0.22294809296E+01  0.22419006391E+01  0.51109989000E-03 0. -1.
      611    1    1    2    0    0  0.93797230240E-01  0.39381336574E-01  0.22785405693E+01  0.22808104255E+01  0.51109989000E-03 0.  1.
</event>
<event>
 6   3  0.2312675E+03  0.9118800E+02  0.7818608E-02  0.1180000E+00
       11   -1    0    0    0    0  0.00000000000E+00  0.00000000000E+00  0.54999999763E+01  0.55000000000E+01  0.51109989000E-03 0. -1.
     -623   -1    0    0    0    0  0.00000000000E+00  0.00000000000E+00  0.93234578044E-11  0.17124000000E+03  0.17124000000E+03 0. -1.
       11    1    1    2    0    0 -0.41468303145E-01  0.32405624149E-01  0.89791021319E+00  0.89945136434E+00  0.51109989000E-03 0. -1.
     -623    1    1    2    0    0 -0.20733738096E-01 -0.81840910961E-02  0.20274595934E-02  0.17124000146E+03  0.17124000000E+03 0. -1.
     -611    1    1    2    0    0  0.26618648704E-01 -0.92747541906E-02  0.19379027249E+01  0.19381077901E+01  0.51109989000E-03 0. -1.
      611    1    1    2    0    0  0.35583392505E-01 -0.14946778849E-01  0.26621595760E+01  0.26624393803E+01  0.51109989000E-03 0. -1.
</event>
<event>
 6   3  0.2312675E+03  0.9118800E+02  0.7818608E-02  0.1180000E+00
       11   -1    0    0    0    0  0.00000000000E+00  0.00000000000E+00  0.54999999763E+01  0.55000000000E+01  0.51109989000E-03 0.  1.
     -623   -1    0    0    0    0  0.00000000000E+00  0.00000000000E+00  0.93234578044E-11  0.17124000000E+03  0.17124000000E+03 0. -1.
       11    1    1    2    0    0  0.20536912406E-01  0.52165409665E-02  0.77680625785E+00  0.77709536128E+00  0.51109989000E-03 0.  1.
     -623    1    1    2    0    0  0.27701390477E-01 -0.75425603625E-02  0.53860405166E-03  0.17124000241E+03  0.17124000000E+03 0. -1.
     -611    1    1    2    0    0 -0.27101364059E-01  0.15357875219E-02  0.26897106151E+01  0.26898476345E+01  0.51109989000E-03 0.  1.
      611    1    1    2    0    0 -0.21136938801E-01  0.79023187296E-03  0.20329444968E+01  0.20330545942E+01  0.51109989000E-03 0.  1.
</event>
<event>
 6   3  0.2312675E+03  0.9118800E+02  0.7818608E-02  0.1180000E+00
       11   -1    0    0    0    0  0.00000000000E+00  0.00000000000E+00  0.54999999763E+01  0.55000000000E+01  0.51109989000E-03 0. -1.
     -623   -1    0    0    0    0  0.00000000000E+00  0.00000000000E+00  0.93234578044E-11  0.17124000000E+03  0.17124000000E+03 0.  1.
       11    1    1    2    0    0 -0.16664724899E-02 -0.43160877615E-02  0.37208464715E-02  0.59591665261E-02  0.51109989000E-03 0. -1.
     -623    1    1    2    0    0 -0.59459397169E-02  0.61297451003E-02  0.12593123665E-01  0.17124000068E+03  0.17124000000E+03 0.  1.
     -611    1    1    2    0    0  0.12886694585E+00 -0.38407816991E-01  0.45281789448E+01  0.45301751255E+01  0.51109989000E-03 0. -1.
      611    1    1    2    0    0 -0.12125453364E+00  0.36594159652E-01  0.95550706128E+00  0.96386503195E+00  0.51109989000E-03 0.  1.
</event>
<event>
 6   3  0.2312675E+03  0.9118800E+02  0.7818608E-02  0.1180000E+00
       11   -1    0    0    0    0  0.00000000000E+00  0.00000000000E+00  0.54999999763E+01  0.55000000000E+01  0.51109989000E-03 0. -1.
     -623   -1    0    0    0    0  0.00000000000E+00  0.00000000000E+00  0.93234578044E-11  0.17124000000E+03  0.17124000000E+03 0.  1.
       11    1    1    2    0    0  0.11425597275E-01  0.97600258574E-02  0.45779495236E-01  0.48185327487E-01  0.51109989000E-03 0. -1.
     -623    1    1    2    0    0 -0.86543748568E-02 -0.16480059976E-01  0.52972545001E-02  0.17124000109E+03  0.17124000000E+03 0.  1.
     -611    1    1    2    0    0 -0.80654425937E-01 -0.35105451745E-01  0.30251689827E+01  0.30264476147E+01  0.51109989000E-03 0.  1.
      611    1    1    2    0    0  0.77883203519E-01  0.41825485863E-01  0.24237542437E+01  0.24253659641E+01  0.51109989000E-03 0. -1.
</event>
<event>
 6   3  0.2312675E+03  0.9118800E+02  0.7818608E-02  0.1180000E+00
       11   -1    0    0    0    0  0.00000000000E+00  0.00000000000E+00  0.54999999763E+01  0.55000000000E+01  0.51109989000E-03 0.  1.
     -623   -1    0    0    0    0  0.00000000000E+00  0.00000000000E+00  0.93234578044E-11  0.17124000000E+03  0.17124000000E+03 0.  1.
       11    1    1    2    0    0  0.58776511991E-01 -0.60756949149E-01  0.10418186143E+01  0.10452427333E+01  0.51109989000E-03 0.  1.
     -623    1    1    2    0    0  0.44338075463E-02 -0.10777867467E-01  0.44569777878E-02  0.17124000045E+03  0.17124000000E+03 0.  1.
     -611    1    1    2    0    0 -0.55479844320E-01  0.57717643753E-01  0.37074225899E+01  0.37082869173E+01  0.51109989000E-03 0.  1.
      611    1    1    2    0    0 -0.77304752182E-02  0.13817172863E-01  0.74630179430E+00  0.74646989485E+00  0.51109989000E-03 0. -1.
</event>
<event>
 6   3  0.2312675E+03  0.9118800E+02  0.7818608E-02  0.1180000E+00
       11   -1    0    0    0    0  0.00000000000E+00  0.00000000000E+00  0.54999999763E+01  0.55000000000E+01  0.51109989000E-03 0. -1.
     -623   -1    0    0    0    0  0.00000000000E+00  0.00000000000E+00  0.93234578044E-11  0.17124000000E+03  0.17124000000E+03 0.  1.
       11    1    1    2    0    0 -0.31491936105E-02  0.42952132790E-02  0.77694256418E-01  0.77878270274E-01  0.51109989000E-03 0. -1.
     -623    1    1    2    0    0  0.12566431935E-01 -0.54247610632E-02  0.19321207310E-02  0.17124000056E+03  0.17124000000E+03 0.  1.
     -611    1    1    2    0    0  0.61211733916E-01  0.67266597607E-02  0.17969513743E+01  0.17980062923E+01  0.51109989000E-03 0.  1.
      611    1    1    2    0    0 -0.70628972240E-01 -0.55971119766E-02  0.36234222247E+01  0.36241148794E+01  0.51109989000E-03 0. -1.
</event>
<event>
 6   3  0.2312675E+03  0.9118800E+02  0.7818608E-02  0.1180000E+00
       11   -1    0    0    0    0  0.00000000000E+00  0.00000000000E+00  0.54999999763E+01  0.55000000000E+01  0.51109989000E-03 0. -1.
     -623   -1    0    0    0    0  0.00000000000E+00  0.00000000000E+00  0.93234578044E-11  0.17124000000E+03  0.17124000000E+03 0. -1.
       11    1    1    2    0    0 -0.27799904667E-02  0.28947688694E-02  0.19389752259E+00  0.19393972910E+00  0.51109989000E-03 0. -1.
     -623    1    1    2    0    0  0.63438606973E-01  0.69005112884E-02  0.41015446151E-03  0.17124001189E+03  0.17124000000E+03 0. -1.
     -611    1    1    2    0    0 -0.46517623462E-01 -0.74895408483E-02  0.41157700555E+01  0.41160397707E+01  0.51109989000E-03 0.  1.
      611    1    1    2    0    0 -0.14140993078E-01 -0.23057393137E-02  0.11899222465E+01  0.11900086126E+01  0.51109989000E-03 0. -1.
</event>
<event>
 6   3  0.2312675E+03  0.9118800E+02  0.7818608E-02  0.1180000E+00
       11   -1    0    0    0    0  0.00000000000E+00  0.00000000000E+00  0.54999999763E+01  0.55000000000E+01  0.51109989000E-03 0. -1.
     -623   -1    0    0    0    0  0.00000000000E+00  0.00000000000E+00  0.93234578044E-11  0.17124000000E+03  0.17124000000E+03 0.  1.
       11    1    1    2    0    0 -0.58472878044E-01 -0.18654739874E-01  0.68629024246E+00  0.68902948768E+00  0.51109989000E-03 0. -1.
     -623    1    1    2    0    0 -0.36176923425E-02  0.31034041550E-03  0.31952189668E-02  0.17124000007E+03  0.17124000000E+03 0.  1.
     -611    1    1    2    0    0  0.37613421405E-01  0.14662066808E-01  0.33873973664E+01  0.33876379566E+01  0.51109989000E-03 0. -1.
      611    1    1    2    0    0  0.24477148983E-01  0.36823326503E-02  0.14231171485E+01  0.14233324875E+01  0.51109989000E-03 0.  1.
</event>
<event>
 6   3  0.2312675E+03  0.9118800E+02  0.7818608E-02  0.1180000E+00
       11   -1    0    0    0    0  0.00000000000E+00  0.00000000000E+00  0.54999999763E+01  0.55000000000E+01  0.51109989000E-03 0.  1.
     -623   -1    0    0    0    0  0.00000000000E+00  0.00000000000E+00  0.93234578044E-11  0.17124000000E+03  0.17124000000E+03 0.  1.
       11    1    1    2    0    0  0.17195494164E-02 -0.34235243282E-02  0.23282230170E-01  0.23600865108E-01  0.51109989000E-03 0.  1.
     -623    1    1    2    0    0  0.10054410103E-02 -0.30263465927E-03  0.78223014197E-03  0.17124000001E+03  0.17124000000E+03 0.  1.
     -611    1    1    2    0    0 -0.36560526662E-01 -0.28635756087E-02  0.29720267556E+01  0.29722530460E+01  0.51109989000E-03 0.  1.
      611    1    1    2    0    0  0.33835536236E-01  0.65897345962E-02  0.25039087603E+01  0.25041460838E+01  0.51109989000E-03 0. -1.
</event>
<event>
 6   3  0.2312675E+03  0.9118800E+02  0.7818608E-02  0.1180000E+00
       11   -1    0    0    0    0  0.00000000000E+00  0.00000000000E+00  0.54999999763E+01  0.55000000000E+01  0.51109989000E-03 0. -1.
     -623   -1    0    0    0    0  0.00000000000E+00  0.00000000000E+00  0.93234578044E-11  0.17124000000E+03  0.17124000000E+03 0.  1.
       11    1    1    2    0    0 -0.28826235944E-01  0.15654699160E-01  0.91468260725E+00  0.91527075486E+00  0.51109989000E-03 0. -1.
     -623    1    1    2    0    0  0.46560749371E-03  0.12315975151E-02  0.14153874429E-02  0.17124000001E+03  0.17124000000E+03 0.  1.
     -611    1    1    2    0    0 -0.15285860265E-01  0.21955108247E-01  0.10325357219E+01  0.10328823566E+01  0.51109989000E-03 0.  1.
      611    1    1    2    0    0  0.43646488715E-01 -0.38841404922E-01  0.35513662597E+01  0.35518468777E+01  0.51109989000E-03 0. -1.
</event>
<event>
 6   3  0.2312675E+03  0.9118800E+02  0.7818608E-02  0.1180000E+00
       11   -1    0    0    0    0  0.00000000000E+00  0.00000000000E+00  0.54999999763E+01  0.55000000000E+01  0.51109989000E-03 0. -1.
     -623   -1    0    0    0    0  0.00000000000E+00  0.00000000000E+00  0.93234578044E-11  0.17124000000E+03  0.17124000000E+03 0. -1.
       11    1    1    2    0    0 -0.84479408287E-01 -0.34318502545E-01  0.49654983109E+00  0.50485297466E+00  0.51109989000E-03 0. -1.
     -623    1    1    2    0    0  0.14782951848E-02 -0.40965794179E-01  0.95675052019E-02  0.17124000517E+03  0.17124000000E+03 0. -1.
     -611    1    1    2    0    0  0.11479717664E-01  0.12305418769E-01  0.71889270270E+00  0.71908983198E+00  0.51109989000E-03 0.  1.
      611    1    1    2    0    0  0.71521395423E-01  0.62978877941E-01  0.42749899363E+01  0.42760520186E+01  0.51109989000E-03 0. -1.
</event>
<event>
 6   3  0.2312675E+03  0.9118800E+02  0.7818608E-02  0.1180000E+00
       11   -1    0    0    0    0  0.00000000000E+00  0.00000000000E+00  0.54999999763E+01  0.55000000000E+01  0.51109989000E-03 0. -1.
     -623   -1    0    0    0    0  0.00000000000E+00  0.00000000000E+00  0.93234578044E-11  0.17124000000E+03  0.17124000000E+03 0. -1.
       11    1    1    2    0    0 -0.55489221209E-01  0.74205674935E-02  0.69443309474E+00  0.69668622979E+00  0.51109989000E-03 0. -1.
     -623    1    1    2    0    0 -0.10928601605E-01  0.18222146884E-03  0.34587627556E-02  0.17124000038E+03  0.17124000000E+03 0. -1.
     -611    1    1    2    0    0  0.33361047695E-01 -0.45926991966E-01  0.26899479541E+01  0.26905468785E+01  0.51109989000E-03 0.  1.
      611    1    1    2    0    0  0.33056775119E-01  0.38324203003E-01  0.21121601646E+01  0.21127665080E+01  0.51109989000E-03 0. -1.
</event>
<event>
 6   3  0.2312675E+03  0.9118800E+02  0.7818608E-02  0.1180000E+00
       11   -1    0    0    0    0  0.00000000000E+00  0.00000000000E+00  0.54999999763E+01  0.55000000000E+01  0.51109989000E-03 0.  1.
     -623   -1    0    0    0    0  0.00000000000E+00  0.00000000000E+00  0.93234578044E-11  0.17124000000E+03  0.17124000000E+03 0.  1.
       11    1    1    2    0    0  0.68718437266E-01  0.87825153987E-02  0.10863631722E+01  0.10885699607E+01  0.51109989000E-03 0.  1.
     -623    1    1    2    0    0  0.10322666843E-03  0.86896334701E-02  0.27832363962E-02  0.17124000024E+03  0.17124000000E+03 0.  1.
     -611    1    1    2    0    0 -0.54046495730E-01 -0.13661084036E-01  0.32907654004E+01  0.32912375834E+01  0.51109989000E-03 0. -1.
      611    1    1    2    0    0 -0.14775168209E-01 -0.38110648343E-02  0.11200881676E+01  0.11201922131E+01  0.51109989000E-03 0.  1.
</event>
<event>
 6   3  0.2312675E+03  0.9118800E+02  0.7818608E-02  0.1180000E+00
       11   -1    0    0    0    0  0.00000000000E+00  0.00000000000E+00  0.54999999763E+01  0.55000000000E+01  0.51109989000E-03 0.  1.
     -623   -1    0    0    0    0  0.00000000000E+00  0.00000000000E+00  0.93234578044E-11  0.17124000000E+03  0.17124000000E+03 0. -1.
       11    1    1    2    0    0 -0.70991108099E-01  0.35606018359E-01  0.45102854812E+00  0.45796783557E+00  0.51109989000E-03 0.  1.
     -623    1    1    2    0    0 -0.47074149297E-02 -0.71459728078E-02  0.75887088760E-02  0.17124000038E+03  0.17124000000E+03 0. -1.
     -611    1    1    2    0    0  0.61753518391E-01 -0.23795520137E-01  0.41026546285E+01  0.41031883926E+01  0.51109989000E-03 0.  1.
      611    1    1    2    0    0  0.13945004589E-01 -0.46645253953E-02  0.93872808757E+00  0.93884338661E+00  0.51109989000E-03 0. -1.
</event>
<event>
 6   3  0.2312675E+03  0.9118800E+02  0.7818608E-02  0.1180000E+00
       11   -1    0    0    0    0  0.00000000000E+00  0.00000000000E+00  0.54999999763E+01  0.55000000000E+01  0.51109989000E-03 0. -1.
     -623   -1    0    0    0    0  0.00000000000E+00  0.00000000000E+00  0.93234578044E-11  0.17124000000E+03  0.17124000000E+03 0.  1.
       11    1    1    2    0    0 -0.15652112233E-01  0.71186728263E-02  0.49026049879E+00  0.49056221014E+00  0.51109989000E-03 0. -1.
     -623    1    1    2    0    0  0.68466846142E-01 -0.59662383514E-02  0.69143237314E-03  0.17124001379E+03  0.17124000000E+03 0.  1.
     -611    1    1    2    0    0 -0.88088762753E-02 -0.11923625748E-01  0.85267618235E+00  0.85280519600E+00  0.51109989000E-03 0.  1.
      611    1    1    2    0    0 -0.44005857631E-01  0.10771191272E-01  0.41563718625E+01  0.41566188008E+01  0.51109989000E-03 0. -1.
</event>
<event>
 6   3  0.2312675E+03  0.9118800E+02  0.7818608E-02  0.1180000E+00
       11   -1    0    0    0    0  0.00000000000E+00  0.00000000000E+00  0.54999999763E+01  0.55000000000E+01  0.51109989000E-03 0.  1.
     -623   -1    0    0    0    0  0.00000000000E+00  0.00000000000E+00  0.93234578044E-11  0.17124000000E+03  0.17124000000E+03 0. -1.
       11    1    1    2    0    0  0.12061488332E-01 -0.64787051072E-02  0.70496619581E+00  0.70509932037E+00  0.51109989000E-03 0.  1.
     -623    1    1    2    0    0 -0.45393806203E-03  0.51946104852E-02  0.93056558431E-03  0.17124000008E+03  0.17124000000E+03 0. -1.
     -611    1    1    2    0    0 -0.39251231402E-01  0.28576815847E-01  0.27325627210E+01  0.27329940686E+01  0.51109989000E-03 0.  1.
      611    1    1    2    0    0  0.27643681131E-01 -0.27292721225E-01  0.20615404940E+01  0.20619065292E+01  0.51109989000E-03 0. -1.
</event>
<event>
 6   3  0.2312675E+03  0.9118800E+02  0.7818608E-02  0.1180000E+00
       11   -1    0    0    0    0  0.00000000000E+00  0.00000000000E+00  0.54999999763E+01  0.55000000000E+01  0.51109989000E-03 0.  1.
     -623   -1    0    0    0    0  0.00000000000E+00  0.00000000000E+00  0.93234578044E-11  0.17124000000E+03  0.17124000000E+03 0.  1.
       11    1    1    2    0    0  0.55162277908E-01  0.79734001443E-02  0.82946186775E+00  0.83133248661E+00  0.51109989000E-03 0.  1.
     -623    1    1    2    0    0 -0.19757977955E-02 -0.52538764514E-02  0.21746300432E-02  0.17124000011E+03  0.17124000000E+03 0.  1.
     -611    1    1    2    0    0 -0.14667267513E-01 -0.84830108383E-03  0.13077115255E+01  0.13077941518E+01  0.51109989000E-03 0.  1.
      611    1    1    2    0    0 -0.38519212601E-01 -0.18712226091E-02  0.33606519530E+01  0.33608732558E+01  0.51109989000E-03 0.  1.
</event>
<event>
 6   3  0.2312675E+03  0.9118800E+02  0.7818608E-02  0.1180000E+00
       11   -1    0    0    0    0  0.00000000000E+00  0.00000000000E+00  0.54999999763E+01  0.55000000000E+01  0.51109989000E-03 0.  1.
     -623   -1    0    0    0    0  0.00000000000E+00  0.00000000000E+00  0.93234578044E-11  0.17124000000E+03  0.17124000000E+03 0. -1.
       11    1    1    2    0    0 -0.81580837098E-02 -0.47433538134E-02  0.66703350761E-05  0.94506615010E-02  0.51109989000E-03 0.  1.
     -623    1    1    2    0    0 -0.41440773420E-02  0.63425350769E-02  0.10715457536E-01  0.17124000050E+03  0.17124000000E+03 0. -1.
     -611    1    1    2    0    0  0.53672084961E-01 -0.18535456249E-01  0.43833308704E+01  0.43836986708E+01  0.51109989000E-03 0. -1.
      611    1    1    2    0    0 -0.41369923909E-01  0.16936274985E-01  0.11059469780E+01  0.11068501648E+01  0.51109989000E-03 0.  1.
</event>
<event>
 6   3  0.2312675E+03  0.9118800E+02  0.7818608E-02  0.1180000E+00
       11   -1    0    0    0    0  0.00000000000E+00  0.00000000000E+00  0.54999999763E+01  0.55000000000E+01  0.51109989000E-03 0.  1.
     -623   -1    0    0    0    0  0.00000000000E+00  0.00000000000E+00  0.93234578044E-11  0.17124000000E+03  0.17124000000E+03 0. -1.
       11    1    1    2    0    0  0.77773680128E-02 -0.21022631995E-02  0.57824504806E-01  0.58385285329E-01  0.51109989000E-03 0.  1.
     -623    1    1    2    0    0 -0.10692729098E-01  0.76125533570E-02  0.18980041792E-02  0.17124000051E+03  0.17124000000E+03 0. -1.
     -611    1    1    2    0    0  0.42240930849E-01  0.34230323173E-01  0.37897425199E+01  0.37901325359E+01  0.51109989000E-03 0.  1.
      611    1    1    2    0    0 -0.39325569764E-01 -0.39740613331E-01  0.16505349473E+01  0.16514816651E+01  0.51109989000E-03 0. -1.
</event>
<event>
 6   3  0.2312675E+03  0.9118800E+02  0.7818608E-02  0.1180000E+00
       11   -1    0    0    0    0  0.00000000000E+00  0.00000000000E+00  0.54999999763E+01  0.55000000000E+01  0.51109989000E-03 0.  1.
     -623   -1    0    0    0    0  0.00000000000E+00  0.00000000000E+00  0.93234578044E-11  0.17124000000E+03  0.17124000000E+03 0.  1.
       11    1    1    2    0    0 -0.67624885415E-01 -0.13282308434E-01  0.27067292605E+00  0.27930921747E+00  0.51109989000E-03 0.  1.
     -623    1    1    2    0    0  0.43161493371E-02  0.13216517827E-01  0.90210987543E-02  0.17124000080E+03  0.17124000000E+03 0.  1.
     -611    1    1    2    0    0  0.14995684530E-01 -0.13384500461E-03  0.12467688233E+01  0.12468591133E+01  0.51109989000E-03 0.  1.
      611    1    1    2    0    0  0.48313051527E-01  0.19963561119E-03  0.39735371266E+01  0.39738308656E+01  0.51109989000E-03 0.  1.
</event>
<event>
 6   3  0.2312675E+03  0.9118800E+02  0.7818608E-02  0.1180000E+00
       11   -1    0    0    0    0  0.00000000000E+00  0.00000000000E+00  0.54999999763E+01  0.55000000000E+01  0.51109989000E-03 0.  1.
     -623   -1    0    0    0    0  0.00000000000E+00  0.00000000000E+00  0.93234578044E-11  0.17124000000E+03  0.17124000000E+03 0. -1.
       11    1    1    2    0    0  0.22478484857E-01  0.27551088383E-02  0.93042753386E+00  0.93070324480E+00  0.51109989000E-03 0.  1.
     -623    1    1    2    0    0  0.38788467880E-01 -0.41607147743E-01  0.86202030991E-03  0.17124000945E+03  0.17124000000E+03 0. -1.
     -611    1    1    2    0    0 -0.39406970971E-01  0.25911634417E-01  0.29040483307E+01  0.29044313196E+01  0.51109989000E-03 0.  1.
      611    1    1    2    0    0 -0.21859981773E-01  0.12940404492E-01  0.16646620918E+01  0.16648559860E+01  0.51109989000E-03 0.  1.
</event>
<event>
 6   3  0.2312675E+03  0.9118800E+02  0.7818608E-02  0.1180000E+00
       11   -1    0    0    0    0  0.00000000000E+00  0.00000000000E+00  0.54999999763E+01  0.55000000000E+01  0.51109989000E-03 0.  1.
     -623   -1    0    0    0    0  0.00000000000E+00  0.00000000000E+00  0.93234578044E-11  0.17124000000E+03  0.17124000000E+03 0.  1.
       11    1    1    2    0    0  0.33575617416E-02  0.14110048659E-01  0.46607960625E+00  0.46630550852E+00  0.51109989000E-03 0.  1.
     -623    1    1    2    0    0  0.74780300282E-01  0.16474690639E-02  0.97989825462E-03  0.17124001634E+03  0.17124000000E+03 0.  1.
     -611    1    1    2    0    0 -0.67885944392E-01 -0.68484766267E-03  0.40334604999E+01  0.40340318338E+01  0.51109989000E-03 0.  1.
      611    1    1    2    0    0 -0.10251917634E-01 -0.15072670060E-01  0.99947997207E+00  0.99964631895E+00  0.51109989000E-03 0. -1.
</event>
<event>
 6   3  0.2312675E+03  0.9118800E+02  0.7818608E-02  0.1180000E+00
       11   -1    0    0    0    0  0.00000000000E+00  0.00000000000E+00  0.54999999763E+01  0.55000000000E+01  0.51109989000E-03 0. -1.
     -623   -1    0    0    0    0  0.00000000000E+00  0.00000000000E+00  0.93234578044E-11  0.17124000000E+03  0.17124000000E+03 0.  1.
       11    1    1    2    0    0 -0.21990990733E-02  0.11575976566E-01  0.33155973517E-02  0.12251272550E-01  0.51109989000E-03 0. -1.
     -623    1    1    2    0    0  0.13363175887E-01  0.70410366365E-02  0.11818523531E-01  0.17124000107E+03  0.17124000000E+03 0.  1.
     -611    1    1    2    0    0 -0.59038602551E-01 -0.75380040239E-01  0.22607170351E+01  0.22627437949E+01  0.51109989000E-03 0.  1.
      611    1    1    2    0    0  0.47874525738E-01  0.56763027036E-01  0.32241488203E+01  0.32250038586E+01  0.51109989000E-03 0. -1.
</event>
<event>
 6   3  0.2312675E+03  0.9118800E+02  0.7818608E-02  0.1180000E+00
       11   -1    0    0    0    0  0.00000000000E+00  0.00000000000E+00  0.54999999763E+01  0.55000000000E+01  0.51109989000E-03 0.  1.
     -623   -1    0    0    0    0  0.00000000000E+00  0.00000000000E+00  0.93234578044E-11  0.17124000000E+03  0.17124000000E+03 0. -1.
       11    1    1    2    0    0  0.99106524832E-02  0.21316731784E-01  0.10728777156E+01  0.10731353493E+01  0.51109989000E-03 0.  1.
     -623    1    1    2    0    0  0.25273359700E-02  0.10308392672E-02  0.72133923824E-03  0.17124000002E+03  0.17124000000E+03 0. -1.
     -611    1    1    2    0    0  0.23137047754E-01 -0.14778851686E-01  0.17173045481E+01  0.17175240638E+01  0.51109989000E-03 0.  1.
      611    1    1    2    0    0 -0.35575036208E-01 -0.75687193660E-02  0.27090963735E+01  0.27093405638E+01  0.51109989000E-03 0. -1.
</event>
<event>
 6   3  0.2312675E+03  0.9118800E+02  0.7818608E-02  0.1180000E+00
       11   -1    0    0    0    0  0.00000000000E+00  0.00000000000E+00  0.54999999763E+01  0.55000000000E+01  0.51109989000E-03 0.  1.
     -623   -1    0    0    0    0  0.00000000000E+00  0.00000000000E+00  0.93234578044E-11  0.17124000000E+03  0.17124000000E+03 0.  1.
       11    1    1    2    0    0 -0.44316170856E-01 -0.33966635620E-02  0.61857350749E+00  0.62016844947E+00  0.51109989000E-03 0.  1.
     -623    1    1    2    0    0  0.10711227262E+00 -0.10179263590E+00  0.31974880572E-02  0.17124006378E+03  0.17124000000E+03 0.  1.
     -611    1    1    2    0    0 -0.25393758599E-01  0.40237859491E-01  0.18824716350E+01  0.18830729264E+01  0.51109989000E-03 0.  1.
      611    1    1    2    0    0 -0.37402343166E-01  0.64951439986E-01  0.29957573461E+01  0.29966948398E+01  0.51109989000E-03 0.  1.
</event>
<event>
 6   3  0.2312675E+03  0.9118800E+02  0.7818608E-02  0.1180000E+00
       11   -1    0    0    0    0  0.00000000000E+00  0.00000000000E+00  0.54999999763E+01  0.55000000000E+01  0.51109989000E-03 0. -1.
     -623   -1    0    0    0    0  0.00000000000E+00  0.00000000000E+00  0.93234578044E-11  0.17124000000E+03  0.17124000000E+03 0. -1.
       11    1    1    2    0    0 -0.25104548292E-02 -0.38531711296E-02  0.57001970916E-02  0.73418513459E-02  0.51109989000E-03 0. -1.
     -623    1    1    2    0    0 -0.17842106292E-02  0.31766927734E-02  0.36165706657E-02  0.17124000008E+03  0.17124000000E+03 0. -1.
     -611    1    1    2    0    0 -0.54741475922E-01 -0.46089486928E-01  0.24736811603E+01  0.24747160673E+01  0.51109989000E-03 0.  1.
      611    1    1    2    0    0  0.59036141380E-01  0.46765965284E-01  0.30170020482E+01  0.30179420044E+01  0.51109989000E-03 0. -1.
</event>
<event>
 6   3  0.2312675E+03  0.9118800E+02  0.7818608E-02  0.1180000E+00
       11   -1    0    0    0    0  0.00000000000E+00  0.00000000000E+00  0.54999999763E+01  0.55000000000E+01  0.51109989000E-03 0. -1.
     -623   -1    0    0    0    0  0.00000000000E+00  0.00000000000E+00  0.93234578044E-11  0.17124000000E+03  0.17124000000E+03 0. -1.
       11    1    1    2    0    0  0.17444806616E-02  0.41352765612E-01  0.14885633868E+00  0.15450425633E+00  0.51109989000E-03 0. -1.
     -623    1    1    2    0    0  0.56707182184E-01 -0.10667422761E-01  0.60709351008E-02  0.17124000983E+03  0.17124000000E+03 0. -1.
     -611    1    1    2    0    0 -0.46741601381E-01 -0.21529414657E-01  0.42786642072E+01  0.42789737031E+01  0.51109989000E-03 0. -1.
      611    1    1    2    0    0 -0.11710061464E-01 -0.91559281931E-02  0.10664084952E+01  0.10665122111E+01  0.51109989000E-03 0.  1.
</event>
<event>
 6   3  0.2312675E+03  0.9118800E+02  0.7818608E-02  0.1180000E+00
       11   -1    0    0    0    0  0.00000000000E+00  0.00000000000E+00  0.54999999763E+01  0.55000000000E+01  0.51109989000E-03 0.  1.
     -623   -1    0    0    0    0  0.00000000000E+00  0.00000000000E+00  0.93234578044E-11  0.17124000000E+03  0.17124000000E+03 0.  1.
       11    1    1    2    0    0 -0.14573968897E-01 -0.32434704627E-01  0.70987775266E+00  0.71076796184E+00  0.51109989000E-03 0.  1.
     -623    1    1    2    0    0 -0.25339330485E-02 -0.17888979844E-02  0.25328124631E-02  0.17124000005E+03  0.17124000000E+03 0.  1.
     -611    1    1    2    0    0  0.63340302495E-01  0.65762089280E-02  0.17370688181E+01  0.17382357666E+01  0.51109989000E-03 0. -1.
      611    1    1    2    0    0 -0.46232400549E-01  0.27647393684E-01  0.30505205931E+01  0.30509962247E+01  0.51109989000E-03 0.  1.
</event>
<event>
 6   3  0.2312675E+03  0.9118800E+02  0.7818608E-02  0.1180000E+00
       11   -1    0    0    0    0  0.00000000000E+00  0.00000000000E+00  0.54999999763E+01  0.55000000000E+01  0.51109989000E-03 0.  1.
     -623   -1    0    0    0    0  0.00000000000E+00  0.00000000000E+00  0.93234578044E-11  0.17124000000E+03  0.17124000000E+03 0.  1.
       11    1    1    2    0    0 -0.27367832283E-01 -0.70022311655E-02  0.69133214241E+00  0.69190925839E+00  0.51109989000E-03 0.  1.
     -623    1    1    2    0    0  0.37621898915E-01  0.18261454356E-01  0.92925107505E-03  0.17124000511E+03  0.17124000000E+03 0.  1.
     -611    1    1    2    0    0 -0.32728958459E-01 -0.48098054207E-03  0.28687651295E+01  0.28689519071E+01  0.51109989000E-03 0. -1.
      611    1    1    2    0    0  0.22474891827E-01 -0.10778242648E-01  0.19389734534E+01  0.19391337255E+01  0.51109989000E-03 0.  1.
</event>
<event>
 6   3  0.2312675E+03  0.9118800E+02  0.7818608E-02  0.1180000E+00
       11   -1    0    0    0    0  0.00000000000E+00  0.00000000000E+00  0.54999999763E+01  0.55000000000E+01  0.51109989000E-03 0. -1.
     -623   -1    0    0    0    0  0.00000000000E+00  0.00000000000E+00  0.93234578044E-11  0.17124000000E+03  0.17124000000E+03 0. -1.
       11    1    1    2    0    0 -0.15592335377E-01  0.91884624201E-02  0.10009882330E+01  0.10011519628E+01  0.51109989000E-03 0. -1.
     -623    1    1    2    0    0 -0.65269910532E-02 -0.10522145897E-01  0.78822802695E-03  0.17124000045E+03  0.17124000000E+03 0. -1.
     -611    1    1    2    0    0  0.44507600880E-01  0.15612847454E-01  0.32438575414E+01  0.32442004712E+01  0.51109989000E-03 0.  1.
      611    1    1    2    0    0 -0.22388274450E-01 -0.14279163977E-01  0.12543659738E+01  0.12546471164E+01  0.51109989000E-03 0. -1.
</event>
<event>
 6   3  0.2312675E+03  0.9118800E+02  0.7818608E-02  0.1180000E+00
       11   -1    0    0    0    0  0.00000000000E+00  0.00000000000E+00  0.54999999763E+01  0.55000000000E+01  0.51109989000E-03 0. -1.
     -623   -1    0    0    0    0  0.00000000000E+00  0.00000000000E+00  0.93234578044E-11  0.17124000000E+03  0.17124000000E+03 0.  1.
       11    1    1    2    0    0  0.18319036979E-01  0.10263789902E-01  0.69075503030E+00  0.69107431265E+00  0.51109989000E-03 0. -1.
     -623    1    1    2    0    0  0.51970526784E-02 -0.38636083408E-02  0.10482173220E-02  0.17124000013E+03  0.17124000000E+03 0.  1.
     -611    1    1    2    0    0 -0.46162930557E-01 -0.24058493311E-01  0.36573299789E+01  0.36577004611E+01  0.51109989000E-03 0.  1.
      611    1    1    2    0    0  0.22646840900E-01  0.17658311749E-01  0.11508667497E+01  0.11512251006E+01  0.51109989000E-03 0. -1.
</event>
<event>
 6   3  0.2312675E+03  0.9118800E+02  0.7818608E-02  0.1180000E+00
       11   -1    0    0    0    0  0.00000000000E+00  0.00000000000E+00  0.54999999763E+01  0.55000000000E+01  0.51109989000E-03 0.  1.
     -623   -1    0    0    0    0  0.00000000000E+00  0.00000000000E+00  0.93234578044E-11  0.17124000000E+03  0.17124000000E+03 0.  1.
       11    1    1    2    0    0  0.17664835387E-02  0.66753216729E-02  0.17201135780E+00  0.17215065733E+00  0.51109989000E-03 0.  1.
     -623    1    1    2    0    0 -0.57474590573E-02 -0.15335705118E-01  0.83936699386E-03  0.17124000079E+03  0.17124000000E+03 0.  1.
     -611    1    1    2    0    0 -0.38860897663E-01 -0.71923815495E-02  0.29010760406E+01  0.29013452663E+01  0.51109989000E-03 0.  1.
      611    1    1    2    0    0  0.42841873181E-01  0.15852764995E-01  0.24260732109E+01  0.24265032912E+01  0.51109989000E-03 0. -1.
</event>
<event>
 6   3  0.2312675E+03  0.9118800E+02  0.7818608E-02  0.1180000E+00
       11   -1    0    0    0    0  0.00000000000E+00  0.00000000000E+00  0.54999999763E+01  0.55000000000E+01  0.51109989000E-03 0.  1.
     -623   -1    0    0    0    0  0.00000000000E+00  0.00000000000E+00  0.93234578044E-11  0.17124000000E+03  0.17124000000E+03 0.  1.
       11    1    1    2    0    0 -0.11246508550E-02 -0.12888798165E-02  0.15575109011E-01  0.15677094582E-01  0.51109989000E-03 0.  1.
     -623    1    1    2    0    0  0.13866273434E-02  0.68461491993E-03  0.74877822530E-03  0.17124000001E+03  0.17124000000E+03 0.  1.
     -611    1    1    2    0    0  0.38672581989E-01  0.16630312839E-01  0.26815553424E+01  0.26818858014E+01  0.51109989000E-03 0.  1.
      611    1    1    2    0    0 -0.38934558477E-01 -0.16026047942E-01  0.28021207466E+01  0.28024370954E+01  0.51109989000E-03 0. -1.
</event>
<event>
 6   3  0.2312675E+03  0.9118800E+02  0.7818608E-02  0.1180000E+00
       11   -1    0    0    0    0  0.00000000000E+00  0.00000000000E+00  0.54999999763E+01  0.55000000000E+01  0.51109989000E-03 0. -1.
     -623   -1    0    0    0    0  0.00000000000E+00  0.00000000000E+00  0.93234578044E-11  0.17124000000E+03  0.17124000000E+03 0. -1.
       11    1    1    2    0    0 -0.11534163753E-01  0.11968814345E-02  0.39737619820E+00  0.39754568741E+00  0.51109989000E-03 0. -1.
     -623    1    1    2    0    0 -0.16125058988E-02 -0.10779265597E-02  0.12973893514E-02  0.17124000002E+03  0.17124000000E+03 0. -1.
     -611    1    1    2    0    0  0.47908587195E-01  0.31931473077E-01  0.33259192524E+01  0.33264175905E+01  0.51109989000E-03 0. -1.
      611    1    1    2    0    0 -0.34761917544E-01 -0.32050427951E-01  0.17754071364E+01  0.17760367063E+01  0.51109989000E-03 0.  1.
</event>
<event>
 6   3  0.2312675E+03  0.9118800E+02  0.7818608E-02  0.1180000E+00
       11   -1    0    0    0    0  0.00000000000E+00  0.00000000000E+00  0.54999999763E+01  0.55000000000E+01  0.51109989000E-03 0.  1.
     -623   -1    0    0    0    0  0.00000000000E+00  0.00000000000E+00  0.93234578044E-11  0.17124000000E+03  0.17124000000E+03 0.  1.
       11    1    1    2    0    0 -0.96850486353E-02 -0.44290328378E-02  0.53739054821E+00  0.53749630606E+00  0.51109989000E-03 0.  1.
     -623    1    1    2    0    0  0.12432706728E-01 -0.61546830754E-03  0.99941840886E-03  0.17124000046E+03  0.17124000000E+03 0.  1.
     -611    1    1    2    0    0  0.39366974796E-01  0.10471138603E-01  0.36015978873E+01  0.36018282866E+01  0.51109989000E-03 0.  1.
      611    1    1    2    0    0 -0.42114632889E-01 -0.54266374577E-02  0.13600121224E+01  0.13606749520E+01  0.51109989000E-03 0. -1.
</event>
<event>
 6   3  0.2312675E+03  0.9118800E+02  0.7818608E-02  0.1180000E+00
       11   -1    0    0    0    0  0.00000000000E+00  0.00000000000E+00  0.54999999763E+01  0.55000000000E+01  0.51109989000E-03 0.  1.
     -623   -1    0    0    0    0  0.00000000000E+00  0.00000000000E+00  0.93234578044E-11  0.17124000000E+03  0.17124000000E+03 0. -1.
       11    1    1    2    0    0  0.13015354904E-01  0.96932661962E-02  0.19237654256E-01  0.25173546377E-01  0.51109989000E-03 0.  1.
     -623    1    1    2    0    0  0.44116666799E-02 -0.11438756870E-01  0.80178804101E-02  0.17124000063E+03  0.17124000000E+03 0. -1.
     -611    1    1    2    0    0 -0.73131410824E-01  0.39747369466E-01  0.31880043093E+01  0.31890907472E+01  0.51109989000E-03 0.  1.
      611    1    1    2    0    0  0.55704389240E-01 -0.38001878792E-01  0.22847401323E+01  0.22857350798E+01  0.51109989000E-03 0. -1.
</event>
<event>
 6   3  0.2312675E+03  0.9118800E+02  0.7818608E-02  0.1180000E+00
       11   -1    0    0    0    0  0.00000000000E+00  0.00000000000E+00  0.54999999763E+01  0.55000000000E+01  0.51109989000E-03 0.  1.
     -623   -1    0    0    0    0  0.00000000000E+00  0.00000000000E+00  0.93234578044E-11  0.17124000000E+03  0.17124000000E+03 0.  1.
       11    1    1    2    0    0  0.18080171050E-01 -0.11975363071E-01  0.13724943011E+00  0.13895311870E+00  0.51109989000E-03 0.  1.
     -623    1    1    2    0    0  0.15434962786E-01  0.14062008124E-01  0.49440008178E-02  0.17124000134E+03  0.17124000000E+03 0.  1.
     -611    1    1    2    0    0  0.51520868827E-01 -0.43867975686E-01  0.10397696314E+01  0.10419692639E+01  0.51109989000E-03 0. -1.
      611    1    1    2    0    0 -0.85036002664E-01  0.41781330633E-01  0.43180369139E+01  0.43190762731E+01  0.51109989000E-03 0.  1.
</event>
<event>
 6   3  0.2312675E+03  0.9118800E+02  0.7818608E-02  0.1180000E+00
       11   -1    0    0    0    0  0.00000000000E+00  0.00000000000E+00  0.54999999763E+01  0.55000000000E+01  0.51109989000E-03 0.  1.
     -623   -1    0    0    0    0  0.00000000000E+00  0.00000000000E+00  0.93234578044E-11  0.17124000000E+03  0.17124000000E+03 0.  1.
       11    1    1    2    0    0  0.14443603720E-01 -0.17720051218E-01  0.14894829650E+00  0.15069331158E+00  0.51109989000E-03 0.  1.
     -623    1    1    2    0    0 -0.32044962850E-02  0.10575705072E-01  0.25219712412E-02  0.17124000038E+03  0.17124000000E+03 0.  1.
     -611    1    1    2    0    0 -0.36628723543E-01  0.36612273970E-01  0.33150892066E+01  0.33154937537E+01  0.51109989000E-03 0.  1.
      611    1    1    2    0    0  0.25389616109E-01 -0.29467927823E-01  0.20334405018E+01  0.20338125595E+01  0.51109989000E-03 0. -1.
</event>
<event>
 6   3  0.2312675E+03  0.9118800E+02  0.7818608E-02  0.1180000E+00
       11   -1    0    0    0    0  0.00000000000E+00  0.00000000000E+00  0.54999999763E+01  0.55000000000E+01  0.51109989000E-03 0.  1.
     -623   -1    0    0    0    0  0.00000000000E+00  0.00000000000E+00  0.93234578044E-11  0.17124000000E+03  0.17124000000E+03 0.  1.
       11    1    1    2    0    0  0.44316026399E-01 -0.32819849377E-01  0.10397690067E+01  0.10412304746E+01  0.51109989000E-03 0.  1.
     -623    1    1    2    0    0  0.92014175958E-02  0.15153678154E-01  0.18188141294E-02  0.17124000093E+03  0.17124000000E+03 0.  1.
     -611    1    1    2    0    0 -0.87108249007E-02  0.30449622553E-02  0.74252778964E+00  0.74258530141E+00  0.51109989000E-03 0.  1.
      611    1    1    2    0    0 -0.44806619074E-01  0.14621208961E-01  0.37158843642E+01  0.37161832950E+01  0.51109989000E-03 0.  1.
</event>
<event>
 6   3  0.2312675E+03  0.9118800E+02  0.7818608E-02  0.1180000E+00
       11   -1    0    0    0    0  0.00000000000E+00  0.00000000000E+00  0.54999999763E+01  0.55000000000E+01  0.51109989000E-03 0. -1.
     -623   -1    0    0    0    0  0.00000000000E+00  0.00000000000E+00  0.93234578044E-11  0.17124000000E+03  0.17124000000E+03 0.  1.
       11    1    1    2    0    0 -0.58208171452E-01  0.26546016315E-01  0.89508823143E+00  0.89737176548E+00  0.51109989000E-03 0. -1.
     -623    1    1    2    0    0 -0.11628536097E-01  0.15637514816E-01  0.30145744560E-02  0.17124000114E+03  0.17124000000E+03 0.  1.
     -611    1    1    2    0    0  0.13266601427E-01 -0.11744091613E-01  0.10003218353E+01  0.10004788662E+01  0.51109989000E-03 0.  1.
      611    1    1    2    0    0  0.56570106124E-01 -0.30439439519E-01  0.36015753352E+01  0.36021482331E+01  0.51109989000E-03 0. -1.
</event>
<event>
 6   3  0.2312675E+03  0.9118800E+02  0.7818608E-02  0.1180000E+00
       11   -1    0    0    0    0  0.00000000000E+00  0.00000000000E+00  0.54999999763E+01  0.55000000000E+01  0.51109989000E-03 0.  1.
     -623   -1    0    0    0    0  0.00000000000E+00  0.00000000000E+00  0.93234578044E-11  0.17124000000E+03  0.17124000000E+03 0.  1.
       11    1    1    2    0    0 -0.13806159792E-01  0.54477203143E-02  0.50078986404E+00  0.50101001671E+00  0.51109989000E-03 0.  1.
     -623    1    1    2    0    0 -0.72967751823E-03 -0.89276400281E-02  0.61956004733E-03  0.17124000024E+03  0.17124000000E+03 0.  1.
     -611    1    1    2    0    0  0.37963424335E-01  0.75866149724E-03  0.35996846823E+01  0.35998849802E+01  0.51109989000E-03 0.  1.
      611    1    1    2    0    0 -0.23427587025E-01  0.27212582168E-02  0.13989058700E+01  0.13991047679E+01  0.51109989000E-03 0. -1.
</event>
<event>
 6   3  0.2312675E+03  0.9118800E+02  0.7818608E-02  0.1180000E+00
       11   -1    0    0    0    0  0.00000000000E+00  0.00000000000E+00  0.54999999763E+01  0.55000000000E+01  0.51109989000E-03 0. -1.
     -623   -1    0    0    0    0  0.00000000000E+00  0.00000000000E+00  0.93234578044E-11  0.17124000000E+03  0.17124000000E+03 0. -1.
       11    1    1    2    0    0  0.56698010049E-03 -0.17143692868E-02  0.49583202573E+00  0.49583557707E+00  0.51109989000E-03 0. -1.
     -623    1    1    2    0    0 -0.51935879079E-01  0.37754005832E-01  0.40914312479E-03  0.17124001204E+03  0.17124000000E+03 0. -1.
     -611    1    1    2    0    0  0.32210744209E-01 -0.22377969363E-01  0.31317339137E+01  0.31319795455E+01  0.51109989000E-03 0. -1.
      611    1    1    2    0    0  0.19158154756E-01 -0.13661667175E-01  0.18720248931E+01  0.18721728386E+01  0.51109989000E-03 0. -1.
</event>
<event>
 6   3  0.2312675E+03  0.9118800E+02  0.7818608E-02  0.1180000E+00
       11   -1    0    0    0    0  0.00000000000E+00  0.00000000000E+00  0.54999999763E+01  0.55000000000E+01  0.51109989000E-03 0. -1.
     -623   -1    0    0    0    0  0.00000000000E+00  0.00000000000E+00  0.93234578044E-11  0.17124000000E+03  0.17124000000E+03 0.  1.
       11    1    1    2    0    0 -0.13859393873E+00 -0.59542952721E-01  0.98235697007E+00  0.99387077678E+00  0.51109989000E-03 0. -1.
     -623    1    1    2    0    0  0.18743816179E-01  0.18715794153E-01  0.13295944303E-01  0.17124000256E+03  0.17124000000E+03 0.  1.
     -611    1    1    2    0    0  0.64881268647E-01  0.21906252536E-01  0.24663966512E+01  0.24673471919E+01  0.51109989000E-03 0. -1.
      611    1    1    2    0    0  0.54968853886E-01  0.18920906025E-01  0.20379504099E+01  0.20387794657E+01  0.51109989000E-03 0.  1.
</event>
<event>
 6   3  0.2312675E+03  0.9118800E+02  0.7818608E-02  0.1180000E+00
       11   -1    0    0    0    0  0.00000000000E+00  0.00000000000E+00  0.54999999763E+01  0.55000000000E+01  0.51109989000E-03 0. -1.
     -623   -1    0    0    0    0  0.00000000000E+00  0.00000000000E+00  0.93234578044E-11  0.17124000000E+03  0.17124000000E+03 0. -1.
       11    1    1    2    0    0 -0.11308024406E-01  0.11127909149E-01  0.70657365865E+00  0.70675193533E+00  0.51109989000E-03 0. -1.
     -623    1    1    2    0    0 -0.18762980885E-02  0.23489705721E-03  0.67910707260E-03  0.17124000001E+03  0.17124000000E+03 0. -1.
     -611    1    1    2    0    0  0.40457409126E-01 -0.47295611816E-02  0.25541850910E+01  0.25545099160E+01  0.51109989000E-03 0.  1.
      611    1    1    2    0    0 -0.27273086632E-01 -0.66332450244E-02  0.22385621196E+01  0.22387381369E+01  0.51109989000E-03 0. -1.
</event>
<event>
 6   3  0.2312675E+03  0.9118800E+02  0.7818608E-02  0.1180000E+00
       11   -1    0    0    0    0  0.00000000000E+00  0.00000000000E+00  0.54999999763E+01  0.55000000000E+01  0.51109989000E-03 0. -1.
     -623   -1    0    0    0    0  0.00000000000E+00  0.00000000000E+00  0.93234578044E-11  0.17124000000E+03  0.17124000000E+03 0. -1.
       11    1    1    2    0    0 -0.43562497788E-01 -0.10720628892E-01  0.26179049106E+00  0.26560712628E+00  0.51109989000E-03 0. -1.
     -623    1    1    2    0    0 -0.44826228965E-01 -0.36868862078E-01  0.47918856334E-02  0.17124000990E+03  0.17124000000E+03 0. -1.
     -611    1    1    2    0    0  0.55642556403E-01  0.32700258763E-01  0.33906351533E+01  0.33912493870E+01  0.51109989000E-03 0. -1.
      611    1    1    2    0    0  0.32746170353E-01  0.14889232210E-01  0.18427824465E+01  0.18431335837E+01  0.51109989000E-03 0.  1.
</event>
<event>
 6   3  0.2312675E+03  0.9118800E+02  0.7818608E-02  0.1180000E+00
       11   -1    0    0    0    0  0.00000000000E+00  0.00000000000E+00  0.54999999763E+01  0.55000000000E+01  0.51109989000E-03 0.  1.
     -623   -1    0    0    0    0  0.00000000000E+00  0.00000000000E+00  0.93234578044E-11  0.17124000000E+03  0.17124000000E+03 0. -1.
       11    1    1    2    0    0  0.77950978271E-02 -0.45148996536E-02  0.53686670765E-01  0.54439578525E-01  0.51109989000E-03 0.  1.
     -623    1    1    2    0    0 -0.52151368757E-02  0.13543881267E-01  0.30536222775E-02  0.17124000064E+03  0.17124000000E+03 0. -1.
     -611    1    1    2    0    0  0.46678554848E-01 -0.51540826409E-01  0.42182961092E+01  0.42188692407E+01  0.51109989000E-03 0.  1.
      611    1    1    2    0    0 -0.49258515799E-01  0.42511844795E-01  0.12249635741E+01  0.12266905385E+01  0.51109989000E-03 0. -1.
</event>
<event>
 6   3  0.2668104E+03  0.9118800E+02  0.7818608E-02  0.1180000E+00
       11   -1    0    0    0    0  0.00000000000E+00  0.00000000000E+00  0.54999999763E+01  0.55000000000E+01  0.51109989000E-03 0.  1.
     -623   -1    0    0    0    0  0.00000000000E+00  0.00000000000E+00  0.93234578044E-11  0.17124000000E+03  0.17124000000E+03 0.  1.
       11    1    1    2    0    0 -0.70909387655E-03  0.12205342887E-01  0.71808233848E+00  0.71818659085E+00  0.51109989000E-03 0.  1.
     -623    1    1    2    0    0  0.20666424045E-02 -0.14659142098E-01  0.48471398109E-03  0.17124000064E+03  0.17124000000E+03 0.  1.
     -611    1    1    2    0    0  0.28839698298E-01  0.19296677664E-02  0.28061200497E+01  0.28062689547E+01  0.51109989000E-03 0.  1.
      611    1    1    2    0    0 -0.30197246826E-01  0.52413144533E-03  0.19753128742E+01  0.19755438139E+01  0.51109989000E-03 0. -1.
</event>
<event>
 6   3  0.2312675E+03  0.9118800E+02  0.7818608E-02  0.1180000E+00
       11   -1    0    0    0    0  0.00000000000E+00  0.00000000000E+00  0.54999999763E+01  0.55000000000E+01  0.51109989000E-03 0. -1.
     -623   -1    0    0    0    0  0.00000000000E+00  0.00000000000E+00  0.93234578044E-11  0.17124000000E+03  0.17124000000E+03 0.  1.
       11    1    1    2    0    0  0.29187824795E-03  0.39637459093E-03 -0.59941789975E-03  0.92888677677E-03  0.51109989000E-03 0. -1.
     -623    1    1    2    0    0 -0.33128447576E-02 -0.79507149569E-02  0.21549773152E-02  0.17124000023E+03  0.17124000000E+03 0.  1.
     -611    1    1    2    0    0  0.32055513852E-01 -0.23876970002E-01  0.28636143540E+01  0.28638933456E+01  0.51109989000E-03 0. -1.
      611    1    1    2    0    0 -0.29034547343E-01  0.31431310368E-01  0.26348300629E+01  0.26351775375E+01  0.51109989000E-03 0.  1.
</event>
<event>
 6   3  0.2312675E+03  0.9118800E+02  0.7818608E-02  0.1180000E+00
       11   -1    0    0    0    0  0.00000000000E+00  0.00000000000E+00  0.54999999763E+01  0.55000000000E+01  0.51109989000E-03 0.  1.
     -623   -1    0    0    0    0  0.00000000000E+00  0.00000000000E+00  0.93234578044E-11  0.17124000000E+03  0.17124000000E+03 0.  1.
       11    1    1    2    0    0 -0.17211124225E-01  0.45728033582E-02  0.72599906141E-01  0.74753868947E-01  0.51109989000E-03 0.  1.
     -623    1    1    2    0    0  0.35309218243E-04  0.27015203584E-01  0.38115710671E-02  0.17124000217E+03  0.17124000000E+03 0.  1.
     -611    1    1    2    0    0  0.54122913496E-01  0.20502623208E-01  0.37345280772E+01  0.37349765552E+01  0.51109989000E-03 0.  1.
      611    1    1    2    0    0 -0.36947098489E-01 -0.52090630150E-01  0.16890604218E+01  0.16902674024E+01  0.51109989000E-03 0. -1.
</event>
<event>
 6   3  0.2312675E+03  0.9118800E+02  0.7818608E-02  0.1180000E+00
       11   -1    0    0    0    0  0.00000000000E+00  0.00000000000E+00  0.54999999763E+01  0.55000000000E+01  0.51109989000E-03 0. -1.
     -623   -1    0    0    0    0  0.00000000000E+00  0.00000000000E+00  0.93234578044E-11  0.17124000000E+03  0.17124000000E+03 0. -1.
       11    1    1    2    0    0  0.20614503213E-01  0.25133665456E-02  0.10666326282E+01  0.10668348979E+01  0.51109989000E-03 0. -1.
     -623    1    1    2    0    0 -0.92458682642E-01  0.10491078284E-01  0.82919412530E-03  0.17124002528E+03  0.17124000000E+03 0. -1.
     -611    1    1    2    0    0  0.18707924931E-01 -0.29958901059E-02  0.11813549285E+01  0.11815069573E+01  0.51109989000E-03 0.  1.
      611    1    1    2    0    0  0.53136254530E-01 -0.10008554723E-01  0.32511832273E+01  0.32516328623E+01  0.51109989000E-03 0. -1.
</event>
<event>
 6   3  0.2312675E+03  0.9118800E+02  0.7818608E-02  0.1180000E+00
       11   -1    0    0    0    0  0.00000000000E+00  0.00000000000E+00  0.54999999763E+01  0.55000000000E+01  0.51109989000E-03 0.  1.
     -623   -1    0    0    0    0  0.00000000000E+00  0.00000000000E+00  0.93234578044E-11  0.17124000000E+03  0.17124000000E+03 0.  1.
       11    1    1    2    0    0  0.18765027156E-02  0.22381623497E-03  0.17694848701E+00  0.17695931633E+00  0.51109989000E-03 0. -1.
     -623    1    1    2    0    0 -0.57958734916E-01  0.20807451815E-02  0.31673010431E-03  0.17124000982E+03  0.17124000000E+03 0.  1.
     -611    1    1    2    0    0  0.19011891713E-01 -0.72516329012E-03  0.18375322564E+01  0.18376308205E+01  0.51109989000E-03 0.  1.
      611    1    1    2    0    0  0.37070340606E-01 -0.15793981309E-02  0.34852025139E+01  0.34854000529E+01  0.51109989000E-03 0.  1.
</event>
<event>
 6   3  0.2312675E+03  0.9118800E+02  0.7818608E-02  0.1180000E+00
       11   -1    0    0    0    0  0.00000000000E+00  0.00000000000E+00  0.54999999763E+01  0.55000000000E+01  0.51109989000E-03 0.  1.
     -623   -1    0    0    0    0  0.00000000000E+00  0.00000000000E+00  0.93234578044E-11  0.17124000000E+03  0.17124000000E+03 0. -1.
       11    1    1    2    0    0  0.16687914819E-01 -0.10484397518E-01  0.74967000928E+00  0.74992919207E+00  0.51109989000E-03 0.  1.
     -623    1    1    2    0    0 -0.76149982823E-01 -0.16442626260E-01  0.73381609925E-03  0.17124001772E+03  0.17124000000E+03 0. -1.
     -611    1    1    2    0    0  0.18863967376E-01  0.41707324447E-02  0.13491902008E+01  0.13493286121E+01  0.51109989000E-03 0.  1.
      611    1    1    2    0    0  0.40598100636E-01  0.22756291335E-01  0.34004059506E+01  0.34007244735E+01  0.51109989000E-03 0.  1.
</event>
<event>
 6   3  0.2312675E+03  0.9118800E+02  0.7818608E-02  0.1180000E+00
       11   -1    0    0    0    0  0.00000000000E+00  0.00000000000E+00  0.54999999763E+01  0.55000000000E+01  0.51109989000E-03 0. -1.
     -623   -1    0    0    0    0  0.00000000000E+00  0.00000000000E+00  0.93234578044E-11  0.17124000000E+03  0.17124000000E+03 0. -1.
       11    1    1    2    0    0 -0.61025840466E-01 -0.42142763771E-01  0.51802706994E+00  0.52330915543E+00  0.51109989000E-03 0. -1.
     -623    1    1    2    0    0  0.63005651696E-02  0.96437518721E-02  0.56900303784E-02  0.17124000048E+03  0.17124000000E+03 0. -1.
     -611    1    1    2    0    0  0.48289615594E-01  0.28798396205E-01  0.44294476599E+01  0.44298045180E+01  0.51109989000E-03 0. -1.
      611    1    1    2    0    0  0.64356596938E-02  0.37006156885E-02  0.54683521525E+00  0.54688584379E+00  0.51109989000E-03 0. -1.
</event>
<event>
 6   3  0.2312675E+03  0.9118800E+02  0.7818608E-02  0.1180000E+00
       11   -1    0    0    0    0  0.00000000000E+00  0.00000000000E+00  0.54999999763E+01  0.55000000000E+01  0.51109989000E-03 0. -1.
     -623   -1    0    0    0    0  0.00000000000E+00  0.00000000000E+00  0.93234578044E-11  0.17124000000E+03  0.17124000000E+03 0. -1.
       11    1    1    2    0    0 -0.27019858571E-01  0.25386361923E-01  0.10238831293E+01  0.10245542756E+01  0.51109989000E-03 0. -1.
     -623    1    1    2    0    0  0.38001230744E-01 -0.34315366269E-01  0.33319120179E-02  0.17124000769E+03  0.17124000000E+03 0. -1.
     -611    1    1    2    0    0 -0.33485641268E-01 -0.65657160341E-01  0.25749398429E+01  0.25759944888E+01  0.51109989000E-03 0. -1.
      611    1    1    2    0    0  0.22504269095E-01  0.74586164687E-01  0.18978450921E+01  0.18994435482E+01  0.51109989000E-03 0.  1.
</event>
<event>
 6   3  0.2312675E+03  0.9118800E+02  0.7818608E-02  0.1180000E+00
       11   -1    0    0    0    0  0.00000000000E+00  0.00000000000E+00  0.54999999763E+01  0.55000000000E+01  0.51109989000E-03 0.  1.
     -623   -1    0    0    0    0  0.00000000000E+00  0.00000000000E+00  0.93234578044E-11  0.17124000000E+03  0.17124000000E+03 0. -1.
       11    1    1    2    0    0  0.55429929668E-01 -0.11545435863E-01  0.66727512809E+00  0.66967315310E+00  0.51109989000E-03 0.  1.
     -623    1    1    2    0    0  0.81738222903E-02  0.45435016310E-02  0.28386483032E-02  0.17124000028E+03  0.17124000000E+03 0. -1.
     -611    1    1    2    0    0 -0.15372336940E-01  0.68057458936E-02  0.14071759267E+01  0.14072764394E+01  0.51109989000E-03 0. -1.
      611    1    1    2    0    0 -0.48231415019E-01  0.19618833874E-03  0.34227102731E+01  0.34230501286E+01  0.51109989000E-03 0.  1.
</event>
<event>
 6   3  0.2312675E+03  0.9118800E+02  0.7818608E-02  0.1180000E+00
       11   -1    0    0    0    0  0.00000000000E+00  0.00000000000E+00  0.54999999763E+01  0.55000000000E+01  0.51109989000E-03 0.  1.
     -623   -1    0    0    0    0  0.00000000000E+00  0.00000000000E+00  0.93234578044E-11  0.17124000000E+03  0.17124000000E+03 0. -1.
       11    1    1    2    0    0  0.14090411322E-01  0.36805327151E-01  0.10729211913E+01  0.10736448742E+01  0.51109989000E-03 0.  1.
     -623    1    1    2    0    0 -0.60024953165E-01  0.72621721233E-02  0.11923471214E-02  0.17124001068E+03  0.17124000000E+03 0. -1.
     -611    1    1    2    0    0  0.31470489024E-01 -0.29461925476E-01  0.29923288033E+01  0.29926393577E+01  0.51109989000E-03 0.  1.
      611    1    1    2    0    0  0.14464052800E-01 -0.14605573778E-01  0.14335576326E+01  0.14337050879E+01  0.51109989000E-03 0.  1.
</event>
<event>
 6   3  0.2312675E+03  0.9118800E+02  0.7818608E-02  0.1180000E+00
       11   -1    0    0    0    0  0.00000000000E+00  0.00000000000E+00  0.54999999763E+01  0.55000000000E+01  0.51109989000E-03 0. -1.
     -623   -1    0    0    0    0  0.00000000000E+00  0.00000000000E+00  0.93234578044E-11  0.17124000000E+03  0.17124000000E+03 0.  1.
       11    1    1    2    0    0 -0.49070102538E-01 -0.23649811849E-01  0.71550911838E+00  0.71757978530E+00  0.51109989000E-03 0. -1.
     -623    1    1    2    0    0 -0.40061239772E-02 -0.67937228806E-03  0.24275123380E-02  0.17124000007E+03  0.17124000000E+03 0.  1.
     -611    1    1    2    0    0  0.42009283529E-01  0.19781512606E-01  0.37748087779E+01  0.37750943908E+01  0.51109989000E-03 0. -1.
      611    1    1    2    0    0  0.11066942968E-01  0.45476715228E-02  0.10072545660E+01  0.10073257568E+01  0.51109989000E-03 0.  1.
</event>
<event>
 6   3  0.2312675E+03  0.9118800E+02  0.7818608E-02  0.1180000E+00
       11   -1    0    0    0    0  0.00000000000E+00  0.00000000000E+00  0.54999999763E+01  0.55000000000E+01  0.51109989000E-03 0. -1.
     -623   -1    0    0    0    0  0.00000000000E+00  0.00000000000E+00  0.93234578044E-11  0.17124000000E+03  0.17124000000E+03 0.  1.
       11    1    1    2    0    0 -0.25118650634E-01  0.16706711324E-01  0.36073495137E+00  0.36199451263E+00  0.51109989000E-03 0. -1.
     -623    1    1    2    0    0 -0.31811484119E-01 -0.11522939926E-01  0.15811792361E-02  0.17124000335E+03  0.17124000000E+03 0.  1.
     -611    1    1    2    0    0  0.23312541209E-01 -0.27406141897E-02  0.20945133051E+01  0.20946448940E+01  0.51109989000E-03 0. -1.
      611    1    1    2    0    0  0.33617593580E-01 -0.24431572112E-02  0.30431705438E+01  0.30433572468E+01  0.51109989000E-03 0. -1.
</event>
<event>
 6   3  0.2312675E+03  0.9118800E+02  0.7818608E-02  0.1180000E+00
       11   -1    0    0    0    0  0.00000000000E+00  0.00000000000E+00  0.54999999763E+01  0.55000000000E+01  0.51109989000E-03 0. -1.
     -623   -1    0    0    0    0  0.00000000000E+00  0.00000000000E+00  0.93234578044E-11  0.17124000000E+03  0.17124000000E+03 0. -1.
       11    1    1    2    0    0 -0.11154657806E-02 -0.19771881059E-02  0.45319311849E+00  0.45319909246E+00  0.51109989000E-03 0. -1.
     -623    1    1    2    0    0 -0.76300242593E-01  0.59553094518E-01  0.95586700334E-03  0.17124002736E+03  0.17124000000E+03 0. -1.
     -611    1    1    2    0    0  0.40996560334E-01 -0.29831271738E-01  0.26734171947E+01  0.26738979750E+01  0.51109989000E-03 0. -1.
      611    1    1    2    0    0  0.36419148011E-01 -0.27744634654E-01  0.23724337943E+01  0.23728755738E+01  0.51109989000E-03 0. -1.
</event>
<event>
 6   3  0.2312675E+03  0.9118800E+02  0.7818608E-02  0.1180000E+00
       11   -1    0    0    0    0  0.00000000000E+00  0.00000000000E+00  0.54999999763E+01  0.55000000000E+01  0.51109989000E-03 0. -1.
     -623   -1    0    0    0    0  0.00000000000E+00  0.00000000000E+00  0.93234578044E-11  0.17124000000E+03  0.17124000000E+03 0. -1.
       11    1    1    2    0    0 -0.71550402812E-02  0.25961207707E-01  0.54720741643E+00  0.54786987207E+00  0.51109989000E-03 0. -1.
     -623    1    1    2    0    0  0.34385749318E-02  0.15113228845E-02  0.11783855036E-02  0.17124000005E+03  0.17124000000E+03 0. -1.
     -611    1    1    2    0    0  0.34550205270E-01 -0.19258396099E-01  0.27022259335E+01  0.27025154689E+01  0.51109989000E-03 0. -1.
      611    1    1    2    0    0 -0.30833739921E-01 -0.82141344929E-02  0.22493882408E+01  0.22496146138E+01  0.51109989000E-03 0.  1.
</event>
<event>
 6   3  0.2312675E+03  0.9118800E+02  0.7818608E-02  0.1180000E+00
       11   -1    0    0    0    0  0.00000000000E+00  0.00000000000E+00  0.54999999763E+01  0.55000000000E+01  0.51109989000E-03 0.  1.
     -623   -1    0    0    0    0  0.00000000000E+00  0.00000000000E+00  0.93234578044E-11  0.17124000000E+03  0.17124000000E+03 0. -1.
       11    1    1    2    0    0  0.52219719390E-01  0.29623583594E-01  0.15599081540E+00  0.16714619801E+00  0.51109989000E-03 0.  1.
     -623    1    1    2    0    0  0.71927875238E-02  0.21397435515E-01  0.11732488001E-01  0.17124000189E+03  0.17124000000E+03 0. -1.
     -611    1    1    2    0    0 -0.10776813407E-01 -0.90523449481E-02  0.95145803068E+00  0.95156225756E+00  0.51109989000E-03 0.  1.
      611    1    1    2    0    0 -0.48635693431E-01 -0.41968674098E-01  0.43808186355E+01  0.43812896479E+01  0.51109989000E-03 0.  1.
</event>
<event>
 6   3  0.2312675E+03  0.9118800E+02  0.7818608E-02  0.1180000E+00
       11   -1    0    0    0    0  0.00000000000E+00  0.00000000000E+00  0.54999999763E+01  0.55000000000E+01  0.51109989000E-03 0. -1.
     -623   -1    0    0    0    0  0.00000000000E+00  0.00000000000E+00  0.93234578044E-11  0.17124000000E+03  0.17124000000E+03 0.  1.
       11    1    1    2    0    0  0.12565026551E+00 -0.46257403759E-01  0.51360726354E+00  0.53077341589E+00  0.51109989000E-03 0. -1.
     -623    1    1    2    0    0 -0.26822210673E-01  0.69659274456E-01  0.20329546014E-01  0.17124001748E+03  0.17124000000E+03 0.  1.
     -611    1    1    2    0    0 -0.13359937760E+00 -0.27686100562E-02  0.34022135403E+01  0.34048368087E+01  0.51109989000E-03 0.  1.
      611    1    1    2    0    0  0.34771322766E-01 -0.20633260641E-01  0.15638496264E+01  0.15643722995E+01  0.51109989000E-03 0. -1.
</event>
<event>
 6   3  0.2312675E+03  0.9118800E+02  0.7818608E-02  0.1180000E+00
       11   -1    0    0    0    0  0.00000000000E+00  0.00000000000E+00  0.54999999763E+01  0.55000000000E+01  0.51109989000E-03 0.  1.
     -623   -1    0    0    0    0  0.00000000000E+00  0.00000000000E+00  0.93234578044E-11  0.17124000000E+03  0.17124000000E+03 0. -1.
       11    1    1    2    0    0 -0.43348603663E-02  0.30332352761E-02  0.11857081595E+00  0.11868989489E+00  0.51109989000E-03 0.  1.
     -623    1    1    2    0    0  0.12555733879E-01  0.19055252746E-01  0.64893009987E-03  0.17124000152E+03  0.17124000000E+03 0. -1.
     -611    1    1    2    0    0  0.25669151132E-01 -0.28517677622E-01  0.21328971963E+01  0.21332423385E+01  0.51109989000E-03 0.  1.
      611    1    1    2    0    0 -0.33890024644E-01  0.64291895992E-02  0.32478830340E+01  0.32480662450E+01  0.51109989000E-03 0. -1.
</event>
<event>
 6   3  0.2312675E+03  0.9118800E+02  0.7818608E-02  0.1180000E+00
       11   -1    0    0    0    0  0.00000000000E+00  0.00000000000E+00  0.54999999763E+01  0.55000000000E+01  0.51109989000E-03 0.  1.
     -623   -1    0    0    0    0  0.00000000000E+00  0.00000000000E+00  0.93234578044E-11  0.17124000000E+03  0.17124000000E+03 0.  1.
       11    1    1    2    0    0 -0.40006291061E-01 -0.15144892018E-01  0.58528048760E+00  0.58684187092E+00  0.51109989000E-03 0.  1.
     -623    1    1    2    0    0 -0.44557539715E-01 -0.90900099683E-02  0.24422134921E-02  0.17124000606E+03  0.17124000000E+03 0.  1.
     -611    1    1    2    0    0  0.73355483066E-01  0.91856154463E-02  0.39448552364E+01  0.39455479341E+01  0.51109989000E-03 0.  1.
      611    1    1    2    0    0  0.11208347710E-01  0.15049286540E-01  0.96742203877E+00  0.96760413930E+00  0.51109989000E-03 0. -1.
</event>
<event>
 6   3  0.2312675E+03  0.9118800E+02  0.7818608E-02  0.1180000E+00
       11   -1    0    0    0    0  0.00000000000E+00  0.00000000000E+00  0.54999999763E+01  0.55000000000E+01  0.51109989000E-03 0. -1.
     -623   -1    0    0    0    0  0.00000000000E+00  0.00000000000E+00  0.93234578044E-11  0.17124000000E+03  0.17124000000E+03 0.  1.
       11    1    1    2    0    0 -0.79988017297E-02 -0.27916062078E-02  0.44101620253E+00  0.44109786444E+00  0.51109989000E-03 0. -1.
     -623    1    1    2    0    0  0.77733101982E-01  0.36820994090E-01  0.69950496652E-03  0.17124002160E+03  0.17124000000E+03 0.  1.
     -611    1    1    2    0    0 -0.56873081535E-01 -0.27825207017E-01  0.42036518823E+01  0.42041287086E+01  0.51109989000E-03 0. -1.
      611    1    1    2    0    0 -0.12861218406E-01 -0.62041807174E-02  0.85463236447E+00  0.85475180165E+00  0.51109989000E-03 0.  1.
</event>
<event>
 6   3  0.2312675E+03  0.9118800E+02  0.7818608E-02  0.1180000E+00
       11   -1    0    0    0    0  0.00000000000E+00  0.00000000000E+00  0.54999999763E+01  0.55000000000E+01  0.51109989000E-03 0. -1.
     -623   -1    0    0    0    0  0.00000000000E+00  0.00000000000E+00  0.93234578044E-11  0.17124000000E+03  0.17124000000E+03 0.  1.
       11    1    1    2    0    0 -0.26217952047E-01 -0.13990559963E-01  0.28460781076E-01  0.41150869494E-01  0.51109989000E-03 0. -1.
     -623    1    1    2    0    0  0.29138326320E-01  0.12048740224E-01  0.17257942577E-01  0.17124000377E+03  0.17124000000E+03 0.  1.
     -611    1    1    2    0    0  0.87809875120E-01 -0.59290396736E-01  0.33993621191E+01  0.34010129378E+01  0.51109989000E-03 0. -1.
      611    1    1    2    0    0 -0.90730249393E-01  0.61232216474E-01  0.20549191335E+01  0.20578324200E+01  0.51109989000E-03 0.  1.
</event>
<event>
 6   3  0.2312675E+03  0.9118800E+02  0.7818608E-02  0.1180000E+00
       11   -1    0    0    0    0  0.00000000000E+00  0.00000000000E+00  0.54999999763E+01  0.55000000000E+01  0.51109989000E-03 0.  1.
     -623   -1    0    0    0    0  0.00000000000E+00  0.00000000000E+00  0.93234578044E-11  0.17124000000E+03  0.17124000000E+03 0. -1.
       11    1    1    2    0    0 -0.31699999761E-02 -0.31572327240E-01  0.90189726351E+00  0.90245542599E+00  0.51109989000E-03 0.  1.
     -623    1    1    2    0    0  0.69315724173E-01 -0.42102009077E-01  0.16441491012E-02  0.17124001921E+03  0.17124000000E+03 0. -1.
     -611    1    1    2    0    0 -0.43406401658E-01  0.49678178284E-01  0.30722798065E+01  0.30729880423E+01  0.51109989000E-03 0.  1.
      611    1    1    2    0    0 -0.22739322564E-01  0.23996158061E-01  0.15241787589E+01  0.15245373209E+01  0.51109989000E-03 0. -1.
</event>
<event>
 6   3  0.2312675E+03  0.9118800E+02  0.7818608E-02  0.1180000E+00
       11   -1    0    0    0    0  0.00000000000E+00  0.00000000000E+00  0.54999999763E+01  0.55000000000E+01  0.51109989000E-03 0. -1.
     -623   -1    0    0    0    0  0.00000000000E+00  0.00000000000E+00  0.93234578044E-11  0.17124000000E+03  0.17124000000E+03 0. -1.
       11    1    1    2    0    0 -0.38422650303E-03  0.16196284006E-03  0.42570199663E-02  0.43078189445E-02  0.51109989000E-03 0. -1.
     -623    1    1    2    0    0 -0.14665271902E-03  0.23491761653E-03  0.46498236537E-03  0.17124000000E+03  0.17124000000E+03 0. -1.
     -611    1    1    2    0    0  0.32311733719E-01  0.94138993472E-02  0.24138297702E+01  0.24140644338E+01  0.51109989000E-03 0. -1.
      611    1    1    2    0    0 -0.31780854497E-01 -0.98107798038E-02  0.30814482039E+01  0.30816277466E+01  0.51109989000E-03 0.  1.
</event>
<event>
 6   3  0.2312675E+03  0.9118800E+02  0.7818608E-02  0.1180000E+00
       11   -1    0    0    0    0  0.00000000000E+00  0.00000000000E+00  0.54999999763E+01  0.55000000000E+01  0.51109989000E-03 0. -1.
     -623   -1    0    0    0    0  0.00000000000E+00  0.00000000000E+00  0.93234578044E-11  0.17124000000E+03  0.17124000000E+03 0.  1.
       11    1    1    2    0    0 -0.18045838505E-02 -0.42325570446E-02  0.41646926101E+00  0.41649499115E+00  0.51109989000E-03 0. -1.
     -623    1    1    2    0    0  0.52776993936E-01  0.10964892428E-01  0.29451083009E-03  0.17124000848E+03  0.17124000000E+03 0.  1.
     -611    1    1    2    0    0 -0.43696556557E-01 -0.61146632326E-02  0.43596132553E+01  0.43598365537E+01  0.51109989000E-03 0. -1.
      611    1    1    2    0    0 -0.72758535101E-02 -0.61767214921E-03  0.72362294733E+00  0.72365996896E+00  0.51109989000E-03 0. -1.
</event>
<event>
 6   3  0.2312675E+03  0.9118800E+02  0.7818608E-02  0.1180000E+00
       11   -1    0    0    0    0  0.00000000000E+00  0.00000000000E+00  0.54999999763E+01  0.55000000000E+01  0.51109989000E-03 0.  1.
     -623   -1    0    0    0    0  0.00000000000E+00  0.00000000000E+00  0.93234578044E-11  0.17124000000E+03  0.17124000000E+03 0.  1.
       11    1    1    2    0    0 -0.65769997193E-01  0.10372234939E-01  0.66166591267E+00  0.66500775710E+00  0.51109989000E-03 0.  1.
     -623    1    1    2    0    0 -0.55278112333E-02  0.27049034135E-02  0.38859937336E-02  0.17124000015E+03  0.17124000000E+03 0.  1.
     -611    1    1    2    0    0  0.34479762018E-01 -0.61896099554E-02  0.22630737703E+01  0.22633449397E+01  0.51109989000E-03 0.  1.
      611    1    1    2    0    0  0.36818046390E-01 -0.68875283937E-02  0.25713742983E+01  0.25716471472E+01  0.51109989000E-03 0.  1.
</event>
<event>
 6   3  0.2312675E+03  0.9118800E+02  0.7818608E-02  0.1180000E+00
       11   -1    0    0    0    0  0.00000000000E+00  0.00000000000E+00  0.54999999763E+01  0.55000000000E+01  0.51109989000E-03 0.  1.
     -623   -1    0    0    0    0  0.00000000000E+00  0.00000000000E+00  0.93234578044E-11  0.17124000000E+03  0.17124000000E+03 0.  1.
       11    1    1    2    0    0 -0.38606545283E-02 -0.99501097500E-02  0.60736218207E+00  0.60745616366E+00  0.51109989000E-03 0.  1.
     -623    1    1    2    0    0 -0.10048441818E-02 -0.51977430129E-03  0.63517053743E-03  0.17124000000E+03  0.17124000000E+03 0.  1.
     -611    1    1    2    0    0 -0.32527425339E-01  0.26622094329E-03  0.17527329576E+01  0.17530348503E+01  0.51109989000E-03 0.  1.
      611    1    1    2    0    0  0.37392924049E-01  0.10203663108E-01  0.31392696659E+01  0.31395089810E+01  0.51109989000E-03 0. -1.
</event>
<event>
 6   3  0.2312675E+03  0.9118800E+02  0.7818608E-02  0.1180000E+00
       11   -1    0    0    0    0  0.00000000000E+00  0.00000000000E+00  0.54999999763E+01  0.55000000000E+01  0.51109989000E-03 0. -1.
     -623   -1    0    0    0    0  0.00000000000E+00  0.00000000000E+00  0.93234578044E-11  0.17124000000E+03  0.17124000000E+03 0. -1.
       11    1    1    2    0    0 -0.80160412145E-01  0.18012210222E-01  0.10627312756E+01  0.10659025081E+01  0.51109989000E-03 0. -1.
     -623    1    1    2    0    0  0.30775985380E-02  0.19746558556E-02  0.38876140027E-02  0.17124000008E+03  0.17124000000E+03 0. -1.
     -611    1    1    2    0    0  0.63770871286E-01 -0.16306672654E-01  0.36003913856E+01  0.36009930606E+01  0.51109989000E-03 0. -1.
      611    1    1    2    0    0  0.13311942322E-01 -0.36801934243E-02  0.83298970116E+00  0.83310434826E+00  0.51109989000E-03 0. -1.
</event>
<event>
 6   3  0.2312675E+03  0.9118800E+02  0.7818608E-02  0.1180000E+00
       11   -1    0    0    0    0  0.00000000000E+00  0.00000000000E+00  0.54999999763E+01  0.55000000000E+01  0.51109989000E-03 0. -1.
     -623   -1    0    0    0    0  0.00000000000E+00  0.00000000000E+00  0.93234578044E-11  0.17124000000E+03  0.17124000000E+03 0. -1.
       11    1    1    2    0    0  0.60642430196E-03  0.11443577448E-01  0.21559409662E+00  0.21589904802E+00  0.51109989000E-03 0. -1.
     -623    1    1    2    0    0  0.80311458775E-02 -0.14588573337E-01  0.93483366863E-03  0.17124000081E+03  0.17124000000E+03 0. -1.
     -611    1    1    2    0    0  0.34837431019E-01  0.12559697892E-01  0.24486685135E+01  0.24489485791E+01  0.51109989000E-03 0. -1.
      611    1    1    2    0    0 -0.43475001199E-01 -0.94147020028E-02  0.28348025325E+01  0.28351515607E+01  0.51109989000E-03 0.  1.
</event>
<event>
 6   3  0.2312675E+03  0.9118800E+02  0.7818608E-02  0.1180000E+00
       11   -1    0    0    0    0  0.00000000000E+00  0.00000000000E+00  0.54999999763E+01  0.55000000000E+01  0.51109989000E-03 0.  1.
     -623   -1    0    0    0    0  0.00000000000E+00  0.00000000000E+00  0.93234578044E-11  0.17124000000E+03  0.17124000000E+03 0.  1.
       11    1    1    2    0    0  0.92133638442E-01 -0.12145512955E-01  0.88717713410E+00  0.89203119301E+00  0.51109989000E-03 0.  1.
     -623    1    1    2    0    0  0.13082540308E-02 -0.27869832544E-02  0.58268424289E-02  0.17124000013E+03  0.17124000000E+03 0.  1.
     -611    1    1    2    0    0 -0.53439557790E-01  0.76263719815E-02  0.26783057540E+01  0.26788497384E+01  0.51109989000E-03 0. -1.
      611    1    1    2    0    0 -0.40002334681E-01  0.73061242270E-02  0.19286902456E+01  0.19291189416E+01  0.51109989000E-03 0.  1.
</event>
<event>
 6   3  0.2312675E+03  0.9118800E+02  0.7818608E-02  0.1180000E+00
       11   -1    0    0    0    0  0.00000000000E+00  0.00000000000E+00  0.54999999763E+01  0.55000000000E+01  0.51109989000E-03 0. -1.
     -623   -1    0    0    0    0  0.00000000000E+00  0.00000000000E+00  0.93234578044E-11  0.17124000000E+03  0.17124000000E+03 0.  1.
       11    1    1    2    0    0 -0.39959696061E-02 -0.14328347307E-01  0.98538607600E-01  0.99656348120E-01  0.51109989000E-03 0. -1.
     -623    1    1    2    0    0 -0.53500856754E-03  0.18960127773E-02  0.16316700051E-02  0.17124000002E+03  0.17124000000E+03 0.  1.
     -611    1    1    2    0    0 -0.31361200617E-01 -0.77655407196E-02  0.28207289044E+01  0.28209139728E+01  0.51109989000E-03 0.  1.
      611    1    1    2    0    0  0.35892178790E-01  0.20197875250E-01  0.25791007942E+01  0.25794296599E+01  0.51109989000E-03 0. -1.
</event>
<event>
 6   3  0.2312675E+03  0.9118800E+02  0.7818608E-02  0.1180000E+00
       11   -1    0    0    0    0  0.00000000000E+00  0.00000000000E+00  0.54999999763E+01  0.55000000000E+01  0.51109989000E-03 0.  1.
     -623   -1    0    0    0    0  0.00000000000E+00  0.00000000000E+00  0.93234578044E-11  0.17124000000E+03  0.17124000000E+03 0.  1.
       11    1    1    2    0    0  0.13959007636E-01  0.58245080426E-01  0.79619039098E+00  0.79844019388E+00  0.51109989000E-03 0.  1.
     -623    1    1    2    0    0  0.49642503153E-01  0.65635963745E-02  0.31344929315E-02  0.17124000735E+03  0.17124000000E+03 0.  1.
     -611    1    1    2    0    0 -0.33380467157E-01 -0.34990996589E-01  0.24782729699E+01  0.24787448033E+01  0.51109989000E-03 0.  1.
      611    1    1    2    0    0 -0.30221043625E-01 -0.29817680204E-01  0.22224021219E+01  0.22228076521E+01  0.51109989000E-03 0. -1.
</event>
<event>
 6   3  0.2312675E+03  0.9118800E+02  0.7818608E-02  0.1180000E+00
       11   -1    0    0    0    0  0.00000000000E+00  0.00000000000E+00  0.54999999763E+01  0.55000000000E+01  0.51109989000E-03 0.  1.
     -623   -1    0    0    0    0  0.00000000000E+00  0.00000000000E+00  0.93234578044E-11  0.17124000000E+03  0.17124000000E+03 0. -1.
       11    1    1    2    0    0  0.29254787175E-03 -0.57246044772E-02  0.12667716945E-01  0.13913624847E-01  0.51109989000E-03 0.  1.
     -623    1    1    2    0    0  0.28902847037E-02 -0.11759201480E-02  0.28008559001E-02  0.17124000005E+03  0.17124000000E+03 0. -1.
     -611    1    1    2    0    0  0.40186332369E-01  0.50835544670E-01  0.34837263913E+01  0.34843290637E+01  0.51109989000E-03 0.  1.
      611    1    1    2    0    0 -0.43369164945E-01 -0.43935020045E-01  0.20008050122E+01  0.20017572601E+01  0.51109989000E-03 0. -1.
</event>
<event>
 6   3  0.2312675E+03  0.9118800E+02  0.7818608E-02  0.1180000E+00
       11   -1    0    0    0    0  0.00000000000E+00  0.00000000000E+00  0.54999999763E+01  0.55000000000E+01  0.51109989000E-03 0. -1.
     -623   -1    0    0    0    0  0.00000000000E+00  0.00000000000E+00  0.93234578044E-11  0.17124000000E+03  0.17124000000E+03 0. -1.
       11    1    1    2    0    0 -0.40139575182E-01  0.21651021076E-01  0.97797172161E+00  0.97903467850E+00  0.51109989000E-03 0. -1.
     -623    1    1    2    0    0 -0.18269781702E-01 -0.85692339513E-02  0.14605411832E-02  0.17124000120E+03  0.17124000000E+03 0. -1.
     -611    1    1    2    0    0  0.14980628034E-01 -0.33826896128E-02  0.11649142141E+01  0.11650155575E+01  0.51109989000E-03 0. -1.
      611    1    1    2    0    0  0.43428728892E-01 -0.96990975215E-02  0.33556535026E+01  0.33559485720E+01  0.51109989000E-03 0. -1.
</event>
<event>
 6   3  0.2312675E+03  0.9118800E+02  0.7818608E-02  0.1180000E+00
       11   -1    0    0    0    0  0.00000000000E+00  0.00000000000E+00  0.54999999763E+01  0.55000000000E+01  0.51109989000E-03 0.  1.
     -623   -1    0    0    0    0  0.00000000000E+00  0.00000000000E+00  0.93234578044E-11  0.17124000000E+03  0.17124000000E+03 0. -1.
       11    1    1    2    0    0  0.76870220413E-01 -0.28763442988E-02  0.47879313764E+00  0.48493343257E+00  0.51109989000E-03 0.  1.
     -623    1    1    2    0    0 -0.42387262470E-02  0.19657431349E-01  0.67082660860E-02  0.17124000131E+03  0.17124000000E+03 0. -1.
     -611    1    1    2    0    0 -0.24122039199E-01 -0.63687361467E-02  0.13476686908E+01  0.13478996976E+01  0.51109989000E-03 0.  1.
      611    1    1    2    0    0 -0.48509454968E-01 -0.10412350903E-01  0.36668298818E+01  0.36671655577E+01  0.51109989000E-03 0. -1.
</event>
<event>
 6   3  0.2312675E+03  0.9118800E+02  0.7818608E-02  0.1180000E+00
       11   -1    0    0    0    0  0.00000000000E+00  0.00000000000E+00  0.54999999763E+01  0.55000000000E+01  0.51109989000E-03 0.  1.
     -623   -1    0    0    0    0  0.00000000000E+00  0.00000000000E+00  0.93234578044E-11  0.17124000000E+03  0.17124000000E+03 0.  1.
       11    1    1    2    0    0 -0.54655312779E-02 -0.77672340816E-02  0.20652467254E-01  0.22737360978E-01  0.51109989000E-03 0.  1.
     -623    1    1    2    0    0 -0.63251415191E-02 -0.50521618332E-02  0.29093751650E-02  0.17124000022E+03  0.17124000000E+03 0.  1.
     -611    1    1    2    0    0  0.40790934496E-01  0.38552422555E-01  0.31037133232E+01  0.31042208110E+01  0.51109989000E-03 0. -1.
      611    1    1    2    0    0 -0.29000261699E-01 -0.25733026640E-01  0.23727248107E+01  0.23730416120E+01  0.51109989000E-03 0.  1.
</event>
<event>
 6   3  0.2312675E+03  0.9118800E+02  0.7818608E-02  0.1180000E+00
       11   -1    0    0    0    0  0.00000000000E+00  0.00000000000E+00  0.54999999763E+01  0.55000000000E+01  0.51109989000E-03 0. -1.
     -623   -1    0    0    0    0  0.00000000000E+00  0.00000000000E+00  0.93234578044E-11  0.17124000000E+03  0.17124000000E+03 0.  1.
       11    1    1    2    0    0 -0.81339752558E-01 -0.15703704052E-01  0.55296337929E+00  0.55913461861E+00  0.51109989000E-03 0. -1.
     -623    1    1    2    0    0 -0.11877380313E-01  0.54322461656E-02  0.70778499472E-02  0.17124000064E+03  0.17124000000E+03 0.  1.
     -611    1    1    2    0    0  0.86269034182E-01  0.78595306199E-02  0.43720585778E+01  0.43729167140E+01  0.51109989000E-03 0. -1.
      611    1    1    2    0    0  0.69480986902E-02  0.24119272667E-02  0.56790016929E+00  0.56794802313E+00  0.51109989000E-03 0.  1.
</event>
<event>
 6   3  0.2312675E+03  0.9118800E+02  0.7818608E-02  0.1180000E+00
       11   -1    0    0    0    0  0.00000000000E+00  0.00000000000E+00  0.54999999763E+01  0.55000000000E+01  0.51109989000E-03 0.  1.
     -623   -1    0    0    0    0  0.00000000000E+00  0.00000000000E+00  0.93234578044E-11  0.17124000000E+03  0.17124000000E+03 0. -1.
       11    1    1    2    0    0  0.72065888649E-02  0.13430636291E-01  0.83944740596E-01  0.85318799869E-01  0.51109989000E-03 0.  1.
     -623    1    1    2    0    0  0.21370957102E-02 -0.15039344647E-01  0.24361345595E-02  0.17124000069E+03  0.17124000000E+03 0. -1.
     -611    1    1    2    0    0  0.41372470869E-01 -0.10424078003E-01  0.12361099067E+01  0.12368461122E+01  0.51109989000E-03 0. -1.
      611    1    1    2    0    0 -0.50716155444E-01  0.12032786359E-01  0.41775091945E+01  0.41778343968E+01  0.51109989000E-03 0.  1.
</event>
<event>
 6   3  0.2312675E+03  0.9118800E+02  0.7818608E-02  0.1180000E+00
       11   -1    0    0    0    0  0.00000000000E+00  0.00000000000E+00  0.54999999763E+01  0.55000000000E+01  0.51109989000E-03 0. -1.
     -623   -1    0    0    0    0  0.00000000000E+00  0.00000000000E+00  0.93234578044E-11  0.17124000000E+03  0.17124000000E+03 0. -1.
       11    1    1    2    0    0 -0.42115953719E-01  0.40656058533E-02  0.38239845694E+00  0.38473253541E+00  0.51109989000E-03 0. -1.
     -623    1    1    2    0    0 -0.13690842055E-01 -0.33866781562E-01  0.27293903952E-02  0.17124000392E+03  0.17124000000E+03 0. -1.
     -611    1    1    2    0    0  0.42063353121E-01  0.22273335784E-01  0.38629583350E+01  0.38632515820E+01  0.51109989000E-03 0. -1.
      611    1    1    2    0    0  0.13743442668E-01  0.75278399325E-02  0.12519137954E+01  0.12520119659E+01  0.51109989000E-03 0. -1.
</event>
<event>
 6   3  0.2312675E+03  0.9118800E+02  0.7818608E-02  0.1180000E+00
       11   -1    0    0    0    0  0.00000000000E+00  0.00000000000E+00  0.54999999763E+01  0.55000000000E+01  0.51109989000E-03 0.  1.
     -623   -1    0    0    0    0  0.00000000000E+00  0.00000000000E+00  0.93234578044E-11  0.17124000000E+03  0.17124000000E+03 0.  1.
       11    1    1    2    0    0  0.85015788614E-01  0.39679342199E-01  0.55836437824E+00  0.56619181786E+00  0.51109989000E-03 0.  1.
     -623    1    1    2    0    0  0.30240390184E-02 -0.24016767032E-01  0.86493570281E-02  0.17124000193E+03  0.17124000000E+03 0.  1.
     -611    1    1    2    0    0 -0.19991158347E-01 -0.47138007259E-02  0.13610038222E+01  0.13611588929E+01  0.51109989000E-03 0. -1.
      611    1    1    2    0    0 -0.68048669286E-01 -0.10948774441E-01  0.35719824188E+01  0.35726473599E+01  0.51109989000E-03 0.  1.
</event>
<event>
 6   3  0.2312675E+03  0.9118800E+02  0.7818608E-02  0.1180000E+00
       11   -1    0    0    0    0  0.00000000000E+00  0.00000000000E+00  0.54999999763E+01  0.55000000000E+01  0.51109989000E-03 0. -1.
     -623   -1    0    0    0    0  0.00000000000E+00  0.00000000000E+00  0.93234578044E-11  0.17124000000E+03  0.17124000000E+03 0.  1.
       11    1    1    2    0    0  0.62161944410E-02 -0.53640705438E-02  0.21055911667E-02  0.84917055640E-02  0.51109989000E-03 0. -1.
     -623    1    1    2    0    0 -0.64679129788E-01  0.72298331306E-02  0.67105845255E-02  0.17124001250E+03  0.17124000000E+03 0.  1.
     -611    1    1    2    0    0  0.45316224887E-01 -0.11697733871E-02  0.43234665830E+01  0.43237042549E+01  0.51109989000E-03 0. -1.
      611    1    1    2    0    0  0.13146710470E-01 -0.69598920003E-03  0.11677172185E+01  0.11677915413E+01  0.51109989000E-03 0. -1.
</event>
<event>
 6   3  0.2312675E+03  0.9118800E+02  0.7818608E-02  0.1180000E+00
       11   -1    0    0    0    0  0.00000000000E+00  0.00000000000E+00  0.54999999763E+01  0.55000000000E+01  0.51109989000E-03 0.  1.
     -623   -1    0    0    0    0  0.00000000000E+00  0.00000000000E+00  0.93234578044E-11  0.17124000000E+03  0.17124000000E+03 0.  1.
       11    1    1    2    0    0 -0.57411488760E-01 -0.92733377814E-02  0.89147943270E+00  0.89337445339E+00  0.51109989000E-03 0.  1.
     -623    1    1    2    0    0 -0.33080017575E-01 -0.25640219105E-01  0.29439385415E-02  0.17124000514E+03  0.17124000000E+03 0.  1.
     -611    1    1    2    0    0  0.15397652182E-01  0.27184041083E-02  0.96704466227E+00  0.96717119346E+00  0.51109989000E-03 0. -1.
      611    1    1    2    0    0  0.75093854154E-01  0.32195152778E-01  0.36385319428E+01  0.36394492131E+01  0.51109989000E-03 0.  1.
</event>
<event>
 6   3  0.2312675E+03  0.9118800E+02  0.7818608E-02  0.1180000E+00
       11   -1    0    0    0    0  0.00000000000E+00  0.00000000000E+00  0.54999999763E+01  0.55000000000E+01  0.51109989000E-03 0.  1.
     -623   -1    0    0    0    0  0.00000000000E+00  0.00000000000E+00  0.93234578044E-11  0.17124000000E+03  0.17124000000E+03 0.  1.
       11    1    1    2    0    0 -0.76102789816E-02  0.28013994825E-01  0.22643147383E+00  0.22828529041E+00  0.51109989000E-03 0.  1.
     -623    1    1    2    0    0  0.48689432182E-01 -0.12634987497E-01  0.27726883621E-02  0.17124000741E+03  0.17124000000E+03 0.  1.
     -611    1    1    2    0    0 -0.62914465838E-01  0.10902755418E-01  0.34272862085E+01  0.34278809951E+01  0.51109989000E-03 0.  1.
      611    1    1    2    0    0  0.21835312638E-01 -0.26281762746E-01  0.18435096055E+01  0.18438263039E+01  0.51109989000E-03 0. -1.
</event>
<event>
 6   3  0.2312675E+03  0.9118800E+02  0.7818608E-02  0.1180000E+00
       11   -1    0    0    0    0  0.00000000000E+00  0.00000000000E+00  0.54999999763E+01  0.55000000000E+01  0.51109989000E-03 0. -1.
     -623   -1    0    0    0    0  0.00000000000E+00  0.00000000000E+00  0.93234578044E-11  0.17124000000E+03  0.17124000000E+03 0.  1.
       11    1    1    2    0    0  0.20551348713E-02  0.27230761907E-01  0.45844391631E+00  0.45925681661E+00  0.51109989000E-03 0. -1.
     -623    1    1    2    0    0 -0.11315511205E-01 -0.12190670213E-01  0.15525575281E-02  0.17124000081E+03  0.17124000000E+03 0.  1.
     -611    1    1    2    0    0 -0.35009803764E-01 -0.22186384805E-01  0.24518026901E+01  0.24521530569E+01  0.51109989000E-03 0.  1.
      611    1    1    2    0    0  0.44270180098E-01  0.71462931109E-02  0.25882008123E+01  0.25885893117E+01  0.51109989000E-03 0. -1.
</event>
<event>
 6   3  0.2312675E+03  0.9118800E+02  0.7818608E-02  0.1180000E+00
       11   -1    0    0    0    0  0.00000000000E+00  0.00000000000E+00  0.54999999763E+01  0.55000000000E+01  0.51109989000E-03 0.  1.
     -623   -1    0    0    0    0  0.00000000000E+00  0.00000000000E+00  0.93234578044E-11  0.17124000000E+03  0.17124000000E+03 0.  1.
       11    1    1    2    0    0  0.16908772974E-01 -0.11290679206E-01  0.78412209433E+00  0.78438581456E+00  0.51109989000E-03 0.  1.
     -623    1    1    2    0    0  0.39768831261E-01  0.33339186407E-02  0.61594833978E-03  0.17124000465E+03  0.17124000000E+03 0.  1.
     -611    1    1    2    0    0 -0.30878733123E-01  0.47629071731E-02  0.26088280686E+01  0.26090152039E+01  0.51109989000E-03 0. -1.
      611    1    1    2    0    0 -0.25798871169E-01  0.31938534004E-02  0.21064338697E+01  0.21065943348E+01  0.51109989000E-03 0.  1.
</event>
<event>
 6   3  0.2312675E+03  0.9118800E+02  0.7818608E-02  0.1180000E+00
       11   -1    0    0    0    0  0.00000000000E+00  0.00000000000E+00  0.54999999763E+01  0.55000000000E+01  0.51109989000E-03 0. -1.
     -623   -1    0    0    0    0  0.00000000000E+00  0.00000000000E+00  0.93234578044E-11  0.17124000000E+03  0.17124000000E+03 0. -1.
       11    1    1    2    0    0  0.35271340623E-01 -0.21103728584E-01  0.29357420175E+00  0.29643803398E+00  0.51109989000E-03 0. -1.
     -623    1    1    2    0    0  0.30963431626E-01  0.13813770894E-01  0.68348365346E-02  0.17124000349E+03  0.17124000000E+03 0. -1.
     -611    1    1    2    0    0 -0.11567210070E+00 -0.45480120157E-01  0.26096467836E+01  0.26126050357E+01  0.51109989000E-03 0.  1.
      611    1    1    2    0    0  0.49437328456E-01  0.52770077847E-01  0.25899441544E+01  0.25909534374E+01  0.51109989000E-03 0. -1.
</event>
<event>
 6   3  0.2312675E+03  0.9118800E+02  0.7818608E-02  0.1180000E+00
       11   -1    0    0    0    0  0.00000000000E+00  0.00000000000E+00  0.54999999763E+01  0.55000000000E+01  0.51109989000E-03 0. -1.
     -623   -1    0    0    0    0  0.00000000000E+00  0.00000000000E+00  0.93234578044E-11  0.17124000000E+03  0.17124000000E+03 0. -1.
       11    1    1    2    0    0 -0.30819692846E-02  0.38044912000E-02  0.68074328166E+00  0.68076108102E+00  0.51109989000E-03 0. -1.
     -623    1    1    2    0    0  0.62481130531E-01 -0.21485761081E-01  0.43304680510E-03  0.17124001275E+03  0.17124000000E+03 0. -1.
     -611    1    1    2    0    0 -0.45463587298E-01  0.14717883123E-01  0.38797882275E+01  0.38800825384E+01  0.51109989000E-03 0. -1.
      611    1    1    2    0    0 -0.13935573835E-01  0.29633867196E-02  0.93903541031E+00  0.93914362316E+00  0.51109989000E-03 0.  1.
</event>
<event>
 6   3  0.2312675E+03  0.9118800E+02  0.7818608E-02  0.1180000E+00
       11   -1    0    0    0    0  0.00000000000E+00  0.00000000000E+00  0.54999999763E+01  0.55000000000E+01  0.51109989000E-03 0.  1.
     -623   -1    0    0    0    0  0.00000000000E+00  0.00000000000E+00  0.93234578044E-11  0.17124000000E+03  0.17124000000E+03 0. -1.
       11    1    1    2    0    0  0.74518116834E-01 -0.49126475721E-03  0.73491741747E+00  0.73868603804E+00  0.51109989000E-03 0.  1.
     -623    1    1    2    0    0 -0.25936139908E-01 -0.10938609606E-01  0.40327080359E-02  0.17124000236E+03  0.17124000000E+03 0. -1.
     -611    1    1    2    0    0 -0.33352884908E-01  0.77251401105E-02  0.32391048549E+01  0.32392858187E+01  0.51109989000E-03 0.  1.
      611    1    1    2    0    0 -0.15229091951E-01  0.37047342369E-02  0.15219449893E+01  0.15220257757E+01  0.51109989000E-03 0.  1.
</event>
<event>
 6   3  0.2312675E+03  0.9118800E+02  0.7818608E-02  0.1180000E+00
       11   -1    0    0    0    0  0.00000000000E+00  0.00000000000E+00  0.54999999763E+01  0.55000000000E+01  0.51109989000E-03 0. -1.
     -623   -1    0    0    0    0  0.00000000000E+00  0.00000000000E+00  0.93234578044E-11  0.17124000000E+03  0.17124000000E+03 0. -1.
       11    1    1    2    0    0 -0.11848061882E-02 -0.20928301949E-01  0.41969666118E+00  0.42022011639E+00  0.51109989000E-03 0. -1.
     -623    1    1    2    0    0 -0.44020643554E-02  0.26836289621E-02  0.26075738113E-02  0.17124000010E+03  0.17124000000E+03 0. -1.
     -611    1    1    2    0    0  0.58031678915E-01 -0.41470240508E-03  0.98667776109E+00  0.98838308018E+00  0.51109989000E-03 0.  1.
      611    1    1    2    0    0 -0.52444808372E-01  0.18659375392E-01  0.40910179802E+01  0.40913967059E+01  0.51109989000E-03 0. -1.
</event>
<event>
 6   3  0.2312675E+03  0.9118800E+02  0.7818608E-02  0.1180000E+00
       11   -1    0    0    0    0  0.00000000000E+00  0.00000000000E+00  0.54999999763E+01  0.55000000000E+01  0.51109989000E-03 0. -1.
     -623   -1    0    0    0    0  0.00000000000E+00  0.00000000000E+00  0.93234578044E-11  0.17124000000E+03  0.17124000000E+03 0. -1.
       11    1    1    2    0    0 -0.24350041906E-01  0.16089352154E-01  0.99116640253E+00  0.99159613277E+00  0.51109989000E-03 0. -1.
     -623    1    1    2    0    0 -0.25864307611E-01 -0.32274167911E-01  0.74366815850E-03  0.17124000500E+03  0.17124000000E+03 0. -1.
     -611    1    1    2    0    0  0.23241303001E-01  0.80581328656E-02  0.21170620700E+01  0.21172050352E+01  0.51109989000E-03 0. -1.
      611    1    1    2    0    0  0.26973046553E-01  0.81266829042E-02  0.23910278391E+01  0.23911938392E+01  0.51109989000E-03 0. -1.
</event>
<event>
 6   3  0.2312675E+03  0.9118800E+02  0.7818608E-02  0.1180000E+00
       11   -1    0    0    0    0  0.00000000000E+00  0.00000000000E+00  0.54999999763E+01  0.55000000000E+01  0.51109989000E-03 0. -1.
     -623   -1    0    0    0    0  0.00000000000E+00  0.00000000000E+00  0.93234578044E-11  0.17124000000E+03  0.17124000000E+03 0. -1.
       11    1    1    2    0    0 -0.10182254588E-01  0.42723132442E-02  0.37300345235E-01  0.38903829461E-01  0.51109989000E-03 0. -1.
     -623    1    1    2    0    0 -0.99413035819E-02 -0.14247263971E-01  0.20411649293E-02  0.17124000089E+03  0.17124000000E+03 0. -1.
     -611    1    1    2    0    0 -0.23339606530E-01  0.97814319010E-02  0.17735454613E+01  0.17737260719E+01  0.51109989000E-03 0.  1.
      611    1    1    2    0    0  0.43463164700E-01  0.19351882557E-03  0.36871130047E+01  0.36873692051E+01  0.51109989000E-03 0. -1.
</event>
<event>
 6   3  0.2312675E+03  0.9118800E+02  0.7818608E-02  0.1180000E+00
       11   -1    0    0    0    0  0.00000000000E+00  0.00000000000E+00  0.54999999763E+01  0.55000000000E+01  0.51109989000E-03 0.  1.
     -623   -1    0    0    0    0  0.00000000000E+00  0.00000000000E+00  0.93234578044E-11  0.17124000000E+03  0.17124000000E+03 0.  1.
       11    1    1    2    0    0 -0.49360696600E-01 -0.53226992278E-02  0.52102044638E+00  0.52338071828E+00  0.51109989000E-03 0.  1.
     -623    1    1    2    0    0 -0.34900067617E-01 -0.27964138041E-02  0.30866448256E-02  0.17124000361E+03  0.17124000000E+03 0.  1.
     -611    1    1    2    0    0  0.59484854453E-01  0.40850261365E-02  0.35985140689E+01  0.35990080439E+01  0.51109989000E-03 0.  1.
      611    1    1    2    0    0  0.24775909763E-01  0.40340868952E-02  0.13773788161E+01  0.13776076306E+01  0.51109989000E-03 0. -1.
</event>
<event>
 6   3  0.2312675E+03  0.9118800E+02  0.7818608E-02  0.1180000E+00
       11   -1    0    0    0    0  0.00000000000E+00  0.00000000000E+00  0.54999999763E+01  0.55000000000E+01  0.51109989000E-03 0.  1.
     -623   -1    0    0    0    0  0.00000000000E+00  0.00000000000E+00  0.93234578044E-11  0.17124000000E+03  0.17124000000E+03 0.  1.
       11    1    1    2    0    0  0.80073481430E-02  0.66054272719E-02  0.61674366658E-01  0.62543888746E-01  0.51109989000E-03 0.  1.
     -623    1    1    2    0    0 -0.15724831291E-02  0.38023375675E-02  0.17665575064E-02  0.17124000006E+03  0.17124000000E+03 0.  1.
     -611    1    1    2    0    0  0.40805182443E-01 -0.20330796754E-01  0.18030426718E+01  0.18036190124E+01  0.51109989000E-03 0. -1.
      611    1    1    2    0    0 -0.47240047457E-01  0.99230319148E-02  0.36335163803E+01  0.36338370403E+01  0.51109989000E-03 0.  1.
</event>
<event>
 6   3  0.2312675E+03  0.9118800E+02  0.7818608E-02  0.1180000E+00
       11   -1    0    0    0    0  0.00000000000E+00  0.00000000000E+00  0.54999999763E+01  0.55000000000E+01  0.51109989000E-03 0.  1.
     -623   -1    0    0    0    0  0.00000000000E+00  0.00000000000E+00  0.93234578044E-11  0.17124000000E+03  0.17124000000E+03 0. -1.
       11    1    1    2    0    0 -0.36680369803E-01 -0.14874317342E-01  0.55174841436E+00  0.55316658324E+00  0.51109989000E-03 0.  1.
     -623    1    1    2    0    0  0.43304094155E-02 -0.76637890743E-02  0.22383038550E-02  0.17124000024E+03  0.17124000000E+03 0. -1.
     -611    1    1    2    0    0  0.59402714210E-01  0.19997424767E-01  0.32920843324E+01  0.32926809886E+01  0.51109989000E-03 0.  1.
      611    1    1    2    0    0 -0.27052753822E-01  0.25406816489E-02  0.16539289256E+01  0.16541521873E+01  0.51109989000E-03 0. -1.
</event>
<event>
 6   3  0.2312675E+03  0.9118800E+02  0.7818608E-02  0.1180000E+00
       11   -1    0    0    0    0  0.00000000000E+00  0.00000000000E+00  0.54999999763E+01  0.55000000000E+01  0.51109989000E-03 0. -1.
     -623   -1    0    0    0    0  0.00000000000E+00  0.00000000000E+00  0.93234578044E-11  0.17124000000E+03  0.17124000000E+03 0.  1.
       11    1    1    2    0    0 -0.45838048321E-02  0.99457685812E-02  0.30965336763E+00  0.30984737999E+00  0.51109989000E-03 0. -1.
     -623    1    1    2    0    0 -0.57915173495E-03 -0.80716867533E-03  0.85119728414E-03  0.17124000000E+03  0.17124000000E+03 0.  1.
     -611    1    1    2    0    0 -0.36520717641E-01  0.70439132226E-02  0.20300459443E+01  0.20303867062E+01  0.51109989000E-03 0.  1.
      611    1    1    2    0    0  0.41683674208E-01 -0.16182513129E-01  0.31594494670E+01  0.31597659088E+01  0.51109989000E-03 0. -1.
</event>
<event>
 6   3  0.2312675E+03  0.9118800E+02  0.7818608E-02  0.1180000E+00
       11   -1    0    0    0    0  0.00000000000E+00  0.00000000000E+00  0.54999999763E+01  0.55000000000E+01  0.51109989000E-03 0.  1.
     -623   -1    0    0    0    0  0.00000000000E+00  0.00000000000E+00  0.93234578044E-11  0.17124000000E+03  0.17124000000E+03 0.  1.
       11    1    1    2    0    0  0.71154561657E-03 -0.14143988668E-01  0.45232530202E-01  0.47400440126E-01  0.51109989000E-03 0.  1.
     -623    1    1    2    0    0 -0.19378238106E-01  0.87967817608E-02  0.31895578352E-02  0.17124000135E+03  0.17124000000E+03 0.  1.
     -611    1    1    2    0    0 -0.35307399578E-01 -0.21032356658E-01  0.14973998037E+01  0.14979637532E+01  0.51109989000E-03 0.  1.
      611    1    1    2    0    0  0.53974092067E-01  0.26379563565E-01  0.39541780845E+01  0.39546344546E+01  0.51109989000E-03 0. -1.
</event>
<event>
 6   3  0.2312675E+03  0.9118800E+02  0.7818608E-02  0.1180000E+00
       11   -1    0    0    0    0  0.00000000000E+00  0.00000000000E+00  0.54999999763E+01  0.55000000000E+01  0.51109989000E-03 0.  1.
     -623   -1    0    0    0    0  0.00000000000E+00  0.00000000000E+00  0.93234578044E-11  0.17124000000E+03  0.17124000000E+03 0. -1.
       11    1    1    2    0    0  0.82280491479E-02 -0.96012124046E-02  0.15119946587E+00  0.15172812454E+00  0.51109989000E-03 0.  1.
     -623    1    1    2    0    0 -0.56564511512E-01  0.22631346610E-01  0.25751539634E-02  0.17124001086E+03  0.17124000000E+03 0. -1.
     -611    1    1    2    0    0  0.72433203327E-01  0.43170406320E-01  0.35282002455E+01  0.35292077703E+01  0.51109989000E-03 0.  1.
      611    1    1    2    0    0 -0.24096740962E-01 -0.56200540525E-01  0.18180251110E+01  0.18190532480E+01  0.51109989000E-03 0. -1.
</event>
<event>
 6   3  0.2312675E+03  0.9118800E+02  0.7818608E-02  0.1180000E+00
       11   -1    0    0    0    0  0.00000000000E+00  0.00000000000E+00  0.54999999763E+01  0.55000000000E+01  0.51109989000E-03 0. -1.
     -623   -1    0    0    0    0  0.00000000000E+00  0.00000000000E+00  0.93234578044E-11  0.17124000000E+03  0.17124000000E+03 0.  1.
       11    1    1    2    0    0 -0.24355040620E-01 -0.58933612457E-02  0.64623362406E+00  0.64671945834E+00  0.51109989000E-03 0. -1.
     -623    1    1    2    0    0 -0.27938216167E-01  0.36276339712E-02  0.77053117790E-03  0.17124000232E+03  0.17124000000E+03 0.  1.
     -611    1    1    2    0    0  0.21498888788E-01  0.92976783412E-03  0.20189888791E+01  0.20191036184E+01  0.51109989000E-03 0.  1.
      611    1    1    2    0    0  0.30794368075E-01  0.13359594437E-02  0.28340069489E+01  0.28341746110E+01  0.51109989000E-03 0.  1.
</event>
<event>
 6   3  0.2312675E+03  0.9118800E+02  0.7818608E-02  0.1180000E+00
       11   -1    0    0    0    0  0.00000000000E+00  0.00000000000E+00  0.54999999763E+01  0.55000000000E+01  0.51109989000E-03 0.  1.
     -623   -1    0    0    0    0  0.00000000000E+00  0.00000000000E+00  0.93234578044E-11  0.17124000000E+03  0.17124000000E+03 0. -1.
       11    1    1    2    0    0  0.21512627288E-01 -0.66244628523E-02  0.81443662725E+00  0.81474778776E+00  0.51109989000E-03 0.  1.
     -623    1    1    2    0    0  0.38637627210E-01 -0.46004916422E-01  0.10039029208E-02  0.17124001054E+03  0.17124000000E+03 0. -1.
     -611    1    1    2    0    0 -0.28588806564E-01  0.26178581066E-01  0.22559508296E+01  0.22562839017E+01  0.51109989000E-03 0. -1.
      611    1    1    2    0    0 -0.31561447955E-01  0.26450798227E-01  0.24286086182E+01  0.24289577706E+01  0.51109989000E-03 0.  1.
</event>
<event>
 6   3  0.2312675E+03  0.9118800E+02  0.7818608E-02  0.1180000E+00
       11   -1    0    0    0    0  0.00000000000E+00  0.00000000000E+00  0.54999999763E+01  0.55000000000E+01  0.51109989000E-03 0. -1.
     -623   -1    0    0    0    0  0.00000000000E+00  0.00000000000E+00  0.93234578044E-11  0.17124000000E+03  0.17124000000E+03 0. -1.
       11    1    1    2    0    0  0.16346187045E-01 -0.73461810352E-02  0.20382630383E-01  0.27145479387E-01  0.51109989000E-03 0. -1.
     -623    1    1    2    0    0 -0.14641089372E-01  0.16892536771E-01  0.89268334600E-02  0.17124000169E+03  0.17124000000E+03 0. -1.
     -611    1    1    2    0    0 -0.57157101162E-01 -0.54551452206E-01  0.22961764329E+01  0.22975354768E+01  0.51109989000E-03 0.  1.
      611    1    1    2    0    0  0.55452003489E-01  0.45005096470E-01  0.31745140795E+01  0.31753173520E+01  0.51109989000E-03 0. -1.
</event>
<event>
 6   3  0.2312675E+03  0.9118800E+02  0.7818608E-02  0.1180000E+00
       11   -1    0    0    0    0  0.00000000000E+00  0.00000000000E+00  0.54999999763E+01  0.55000000000E+01  0.51109989000E-03 0.  1.
     -623   -1    0    0    0    0  0.00000000000E+00  0.00000000000E+00  0.93234578044E-11  0.17124000000E+03  0.17124000000E+03 0. -1.
       11    1    1    2    0    0  0.48429658604E-01  0.12503928558E-01  0.92452964176E+00  0.92588179579E+00  0.51109989000E-03 0.  1.
     -623    1    1    2    0    0  0.63259001537E-02 -0.17546961943E-02  0.18577355801E-02  0.17124000014E+03  0.17124000000E+03 0. -1.
     -611    1    1    2    0    0 -0.41375927709E-01 -0.24338046689E-01  0.35852157486E+01  0.35855371332E+01  0.51109989000E-03 0.  1.
      611    1    1    2    0    0 -0.13379631048E-01  0.13588814325E-01  0.98839685032E+00  0.98858093516E+00  0.51109989000E-03 0. -1.
</event>
<event>
 6   3  0.2312675E+03  0.9118800E+02  0.7818608E-02  0.1180000E+00
       11   -1    0    0    0    0  0.00000000000E+00  0.00000000000E+00  0.54999999763E+01  0.55000000000E+01  0.51109989000E-03 0.  1.
     -623   -1    0    0    0    0  0.00000000000E+00  0.00000000000E+00  0.93234578044E-11  0.17124000000E+03  0.17124000000E+03 0. -1.
       11    1    1    2    0    0 -0.12165272092E+00  0.29075588172E-01  0.55843083294E+00  0.57226744686E+00  0.51109989000E-03 0.  1.
     -623    1    1    2    0    0 -0.17473318156E-01  0.92472611449E-02  0.16179746469E-01  0.17124000191E+03  0.17124000000E+03 0. -1.
     -611    1    1    2    0    0  0.69354082017E-01 -0.17699455402E-01  0.16775437740E+01  0.16790701696E+01  0.51109989000E-03 0. -1.
      611    1    1    2    0    0  0.69771957063E-01 -0.20623393915E-01  0.32478456228E+01  0.32486604780E+01  0.51109989000E-03 0.  1.
</event>
<event>
 6   3  0.2312675E+03  0.9118800E+02  0.7818608E-02  0.1180000E+00
       11   -1    0    0    0    0  0.00000000000E+00  0.00000000000E+00  0.54999999763E+01  0.55000000000E+01  0.51109989000E-03 0.  1.
     -623   -1    0    0    0    0  0.00000000000E+00  0.00000000000E+00  0.93234578044E-11  0.17124000000E+03  0.17124000000E+03 0. -1.
       11    1    1    2    0    0 -0.49734579740E-01 -0.88799898302E-01  0.10637376850E+01  0.10685958423E+01  0.51109989000E-03 0.  1.
     -623    1    1    2    0    0 -0.35621680666E-02  0.92997956963E-03  0.60504827488E-02  0.17124000015E+03  0.17124000000E+03 0. -1.
     -611    1    1    2    0    0  0.45162339960E-01  0.74767180906E-01  0.37797939931E+01  0.37808031765E+01  0.51109989000E-03 0.  1.
      611    1    1    2    0    0  0.81344078317E-02  0.13102737803E-01  0.65041781421E+00  0.65060083353E+00  0.51109989000E-03 0.  1.
</event>
<event>
 6   3  0.2312675E+03  0.9118800E+02  0.7818608E-02  0.1180000E+00
       11   -1    0    0    0    0  0.00000000000E+00  0.00000000000E+00  0.54999999763E+01  0.55000000000E+01  0.51109989000E-03 0.  1.
     -623   -1    0    0    0    0  0.00000000000E+00  0.00000000000E+00  0.93234578044E-11  0.17124000000E+03  0.17124000000E+03 0. -1.
       11    1    1    2    0    0 -0.64089187979E-01 -0.39228708254E-02  0.52791935344E+00  0.53181003929E+00  0.51109989000E-03 0.  1.
     -623    1    1    2    0    0  0.32673718160E-02 -0.42507938460E-02  0.42702001479E-02  0.17124000014E+03  0.17124000000E+03 0. -1.
     -611    1    1    2    0    0  0.27851045102E-01  0.44280361751E-02  0.23165267260E+01  0.23166984313E+01  0.51109989000E-03 0.  1.
      611    1    1    2    0    0  0.32970771030E-01  0.37456284922E-02  0.26512836942E+01  0.26514913897E+01  0.51109989000E-03 0. -1.
</event>
<event>
 6   3  0.2312675E+03  0.9118800E+02  0.7818608E-02  0.1180000E+00
       11   -1    0    0    0    0  0.00000000000E+00  0.00000000000E+00  0.54999999763E+01  0.55000000000E+01  0.51109989000E-03 0. -1.
     -623   -1    0    0    0    0  0.00000000000E+00  0.00000000000E+00  0.93234578044E-11  0.17124000000E+03  0.17124000000E+03 0. -1.
       11    1    1    2    0    0  0.18787212890E-01  0.24335911795E-01  0.14418051464E+00  0.14742278655E+00  0.51109989000E-03 0. -1.
     -623    1    1    2    0    0  0.41274160535E-01 -0.91192808243E-04  0.36513202944E-02  0.17124000501E+03  0.17124000000E+03 0. -1.
     -611    1    1    2    0    0 -0.14724440467E-01 -0.23676948689E-02  0.96747811702E+00  0.96759319100E+00  0.51109989000E-03 0.  1.
      611    1    1    2    0    0 -0.45336932958E-01 -0.21877024118E-01  0.43846900243E+01  0.43849790094E+01  0.51109989000E-03 0. -1.
</event>
<event>
 6   3  0.2312675E+03  0.9118800E+02  0.7818608E-02  0.1180000E+00
       11   -1    0    0    0    0  0.00000000000E+00  0.00000000000E+00  0.54999999763E+01  0.55000000000E+01  0.51109989000E-03 0. -1.
     -623   -1    0    0    0    0  0.00000000000E+00  0.00000000000E+00  0.93234578044E-11  0.17124000000E+03  0.17124000000E+03 0. -1.
       11    1    1    2    0    0  0.25537995561E-01 -0.23720767143E-01  0.19899820070E+00  0.20202823841E+00  0.51109989000E-03 0. -1.
     -623    1    1    2    0    0 -0.35327415033E-01 -0.31872680519E-02  0.54954017475E-02  0.17124000376E+03  0.17124000000E+03 0. -1.
     -611    1    1    2    0    0 -0.56344592488E-01  0.56428448643E-01  0.36465890961E+01  0.36474609224E+01  0.51109989000E-03 0. -1.
      611    1    1    2    0    0  0.66134011959E-01 -0.29520413447E-01  0.16489172777E+01  0.16505070773E+01  0.51109989000E-03 0.  1.
</event>
<event>
 6   3  0.2312675E+03  0.9118800E+02  0.7818608E-02  0.1180000E+00
       11   -1    0    0    0    0  0.00000000000E+00  0.00000000000E+00  0.54999999763E+01  0.55000000000E+01  0.51109989000E-03 0. -1.
     -623   -1    0    0    0    0  0.00000000000E+00  0.00000000000E+00  0.93234578044E-11  0.17124000000E+03  0.17124000000E+03 0.  1.
       11    1    1    2    0    0 -0.20248767922E-02 -0.35400129432E-02  0.17599706258E-01  0.18073259283E-01  0.51109989000E-03 0. -1.
     -623    1    1    2    0    0  0.39781130160E-02  0.57342187399E-02  0.82329873768E-03  0.17124000014E+03  0.17124000000E+03 0.  1.
     -611    1    1    2    0    0  0.29776917645E-01 -0.43470443769E-02  0.26208289166E+01  0.26210017231E+01  0.51109989000E-03 0. -1.
      611    1    1    2    0    0 -0.31730153869E-01  0.21528385801E-02  0.28607480548E+01  0.28609248735E+01  0.51109989000E-03 0.  1.
</event>
<event>
 6   3  0.2312675E+03  0.9118800E+02  0.7818608E-02  0.1180000E+00
       11   -1    0    0    0    0  0.00000000000E+00  0.00000000000E+00  0.54999999763E+01  0.55000000000E+01  0.51109989000E-03 0.  1.
     -623   -1    0    0    0    0  0.00000000000E+00  0.00000000000E+00  0.93234578044E-11  0.17124000000E+03  0.17124000000E+03 0.  1.
       11    1    1    2    0    0 -0.16952763217E-01 -0.39007143338E-01  0.99207636117E+00  0.99298777487E+00  0.51109989000E-03 0.  1.
     -623    1    1    2    0    0  0.85545973353E-01 -0.10377970189E-02  0.16329370127E-02  0.17124002138E+03  0.17124000000E+03 0.  1.
     -611    1    1    2    0    0 -0.27750461995E-01  0.15800724340E-01  0.17901890932E+01  0.17904739600E+01  0.51109989000E-03 0. -1.
      611    1    1    2    0    0 -0.40842748095E-01  0.24244215990E-01  0.27161015819E+01  0.27165168831E+01  0.51109989000E-03 0.  1.
</event>
<event>
 6   3  0.2312675E+03  0.9118800E+02  0.7818608E-02  0.1180000E+00
       11   -1    0    0    0    0  0.00000000000E+00  0.00000000000E+00  0.54999999763E+01  0.55000000000E+01  0.51109989000E-03 0. -1.
     -623   -1    0    0    0    0  0.00000000000E+00  0.00000000000E+00  0.93234578044E-11  0.17124000000E+03  0.17124000000E+03 0.  1.
       11    1    1    2    0    0  0.78452731347E-02 -0.33924314140E-01  0.78386574752E+00  0.78463888430E+00  0.51109989000E-03 0. -1.
     -623    1    1    2    0    0 -0.67636516671E-01  0.46656074171E-01  0.11898382457E-02  0.17124001972E+03  0.17124000000E+03 0.  1.
     -611    1    1    2    0    0  0.48697668307E-01 -0.11176624840E-01  0.38222564455E+01  0.38225830241E+01  0.51109989000E-03 0. -1.
      611    1    1    2    0    0  0.11093575216E-01 -0.15551351877E-02  0.89268794399E+00  0.89275837293E+00  0.51109989000E-03 0.  1.
</event>
<event>
 6   3  0.2312675E+03  0.9118800E+02  0.7818608E-02  0.1180000E+00
       11   -1    0    0    0    0  0.00000000000E+00  0.00000000000E+00  0.54999999763E+01  0.55000000000E+01  0.51109989000E-03 0.  1.
     -623   -1    0    0    0    0  0.00000000000E+00  0.00000000000E+00  0.93234578044E-11  0.17124000000E+03  0.17124000000E+03 0.  1.
       11    1    1    2    0    0 -0.89491056003E-01 -0.21781374609E-01  0.69081610209E+00  0.69692913952E+00  0.51109989000E-03 0.  1.
     -623    1    1    2    0    0 -0.30789928862E-01  0.53055827149E-01  0.77521955427E-02  0.17124001116E+03  0.17124000000E+03 0.  1.
     -611    1    1    2    0    0  0.35918085589E-01 -0.60178689448E-02  0.16202563460E+01  0.16206656693E+01  0.51109989000E-03 0. -1.
      611    1    1    2    0    0  0.84362899279E-01 -0.25256583595E-01  0.31811753327E+01  0.31823940285E+01  0.51109989000E-03 0.  1.
</event>
<event>
 6   3  0.2312675E+03  0.9118800E+02  0.7818608E-02  0.1180000E+00
       11   -1    0    0    0    0  0.00000000000E+00  0.00000000000E+00  0.54999999763E+01  0.55000000000E+01  0.51109989000E-03 0.  1.
     -623   -1    0    0    0    0  0.00000000000E+00  0.00000000000E+00  0.93234578044E-11  0.17124000000E+03  0.17124000000E+03 0. -1.
       11    1    1    2    0    0 -0.87797790110E-02 -0.61562051054E-02  0.22408195951E-01  0.24846968621E-01  0.51109989000E-03 0.  1.
     -623    1    1    2    0    0  0.48383236570E-02  0.16674793315E-01  0.35402815238E-02  0.17124000092E+03  0.17124000000E+03 0. -1.
     -611    1    1    2    0    0 -0.52387246885E-01  0.42444391898E-03  0.26015512449E+01  0.26020787354E+01  0.51109989000E-03 0. -1.
      611    1    1    2    0    0  0.56328702239E-01 -0.10943032128E-01  0.28725002539E+01  0.28730733792E+01  0.51109989000E-03 0.  1.
</event>
<event>
 6   3  0.2312675E+03  0.9118800E+02  0.7818608E-02  0.1180000E+00
       11   -1    0    0    0    0  0.00000000000E+00  0.00000000000E+00  0.54999999763E+01  0.55000000000E+01  0.51109989000E-03 0.  1.
     -623   -1    0    0    0    0  0.00000000000E+00  0.00000000000E+00  0.93234578044E-11  0.17124000000E+03  0.17124000000E+03 0. -1.
       11    1    1    2    0    0 -0.37690403578E-01 -0.21592283264E-01  0.10642625833E+00  0.11495043672E+00  0.51109989000E-03 0.  1.
     -623    1    1    2    0    0 -0.23176372071E-01  0.36931331447E-01  0.88959417316E-02  0.17124000578E+03  0.17124000000E+03 0. -1.
     -611    1    1    2    0    0  0.17916683083E-01 -0.44431550569E-02  0.15580589076E+01  0.15581683381E+01  0.51109989000E-03 0.  1.
      611    1    1    2    0    0  0.42950092611E-01 -0.10895893137E-01  0.38266188726E+01  0.38268754471E+01  0.51109989000E-03 0.  1.
</event>
<event>
 6   3  0.2312675E+03  0.9118800E+02  0.7818608E-02  0.1180000E+00
       11   -1    0    0    0    0  0.00000000000E+00  0.00000000000E+00  0.54999999763E+01  0.55000000000E+01  0.51109989000E-03 0. -1.
     -623   -1    0    0    0    0  0.00000000000E+00  0.00000000000E+00  0.93234578044E-11  0.17124000000E+03  0.17124000000E+03 0. -1.
       11    1    1    2    0    0 -0.10320532870E-02  0.86460038931E-02  0.31794624933E+00  0.31806586928E+00  0.51109989000E-03 0. -1.
     -623    1    1    2    0    0 -0.64375271682E-02 -0.42083770538E-02  0.13046431459E-02  0.17124000018E+03  0.17124000000E+03 0. -1.
     -611    1    1    2    0    0  0.52395130771E-01 -0.14593779069E-01  0.16764113587E+01  0.16772935143E+01  0.51109989000E-03 0.  1.
      611    1    1    2    0    0 -0.44925550315E-01  0.10156152229E-01  0.35043377252E+01  0.35046404389E+01  0.51109989000E-03 0. -1.
</event>
<event>
 6   3  0.2312675E+03  0.9118800E+02  0.7818608E-02  0.1180000E+00
       11   -1    0    0    0    0  0.00000000000E+00  0.00000000000E+00  0.54999999763E+01  0.55000000000E+01  0.51109989000E-03 0.  1.
     -623   -1    0    0    0    0  0.00000000000E+00  0.00000000000E+00  0.93234578044E-11  0.17124000000E+03  0.17124000000E+03 0. -1.
       11    1    1    2    0    0 -0.33737558448E-02 -0.17671294321E-02  0.15331806866E+00  0.15336621654E+00  0.51109989000E-03 0.  1.
     -623    1    1    2    0    0  0.11212497793E-03 -0.71803425080E-03  0.46076191761E-03  0.17124000000E+03  0.17124000000E+03 0. -1.
     -611    1    1    2    0    0 -0.31043721284E-01  0.54426457598E-02  0.28727761535E+01  0.28729490814E+01  0.51109989000E-03 0.  1.
      611    1    1    2    0    0  0.34305352151E-01 -0.29574820768E-02  0.24734449923E+01  0.24736847000E+01  0.51109989000E-03 0. -1.
</event>
<event>
 6   3  0.2312675E+03  0.9118800E+02  0.7818608E-02  0.1180000E+00
       11   -1    0    0    0    0  0.00000000000E+00  0.00000000000E+00  0.54999999763E+01  0.55000000000E+01  0.51109989000E-03 0.  1.
     -623   -1    0    0    0    0  0.00000000000E+00  0.00000000000E+00  0.93234578044E-11  0.17124000000E+03  0.17124000000E+03 0.  1.
       11    1    1    2    0    0  0.98526448895E-01  0.54751604311E-02  0.94098394491E+00  0.94614400824E+00  0.51109989000E-03 0.  1.
     -623    1    1    2    0    0  0.69957475996E-02 -0.11791270716E-01  0.63881532349E-02  0.17124000067E+03  0.17124000000E+03 0.  1.
     -611    1    1    2    0    0 -0.60013951044E-01  0.33410761761E-02  0.26151881145E+01  0.26158788145E+01  0.51109989000E-03 0.  1.
      611    1    1    2    0    0 -0.45508245551E-01  0.29750341146E-02  0.19374397680E+01  0.19379765136E+01  0.51109989000E-03 0.  1.
</event>
<event>
 6   3  0.2312675E+03  0.9118800E+02  0.7818608E-02  0.1180000E+00
       11   -1    0    0    0    0  0.00000000000E+00  0.00000000000E+00  0.54999999763E+01  0.55000000000E+01  0.51109989000E-03 0.  1.
     -623   -1    0    0    0    0  0.00000000000E+00  0.00000000000E+00  0.93234578044E-11  0.17124000000E+03  0.17124000000E+03 0. -1.
       11    1    1    2    0    0  0.11551700473E+00  0.92372597885E-01  0.96956915576E+00  0.98078615623E+00  0.51109989000E-03 0.  1.
     -623    1    1    2    0    0  0.90547349083E-01 -0.18619909616E-01  0.16545847833E-01  0.17124002575E+03  0.17124000000E+03 0. -1.
     -611    1    1    2    0    0 -0.53310037562E-01 -0.19108388552E-01  0.11712145819E+01  0.11725830243E+01  0.51109989000E-03 0.  1.
      611    1    1    2    0    0 -0.15275431627E+00 -0.54644299721E-01  0.33426703909E+01  0.33466050685E+01  0.51109989000E-03 0.  1.
</event>
<event>
 6   3  0.2312675E+03  0.9118800E+02  0.7818608E-02  0.1180000E+00
       11   -1    0    0    0    0  0.00000000000E+00  0.00000000000E+00  0.54999999763E+01  0.55000000000E+01  0.51109989000E-03 0.  1.
     -623   -1    0    0    0    0  0.00000000000E+00  0.00000000000E+00  0.93234578044E-11  0.17124000000E+03  0.17124000000E+03 0.  1.
       11    1    1    2    0    0  0.18694861587E-01  0.23382377820E-01  0.70822298127E+00  0.70885561708E+00  0.51109989000E-03 0.  1.
     -623    1    1    2    0    0 -0.86133160614E-03 -0.45805327931E-02  0.12432122845E-02  0.17124000007E+03  0.17124000000E+03 0.  1.
     -611    1    1    2    0    0 -0.43769600621E-01 -0.22361744893E-01  0.34980286793E+01  0.34983740121E+01  0.51109989000E-03 0.  1.
      611    1    1    2    0    0  0.25936070640E-01  0.35598998663E-02  0.12925051034E+01  0.12927703030E+01  0.51109989000E-03 0. -1.
</event>
<event>
 6   3  0.2312675E+03  0.9118800E+02  0.7818608E-02  0.1180000E+00
       11   -1    0    0    0    0  0.00000000000E+00  0.00000000000E+00  0.54999999763E+01  0.55000000000E+01  0.51109989000E-03 0.  1.
     -623   -1    0    0    0    0  0.00000000000E+00  0.00000000000E+00  0.93234578044E-11  0.17124000000E+03  0.17124000000E+03 0. -1.
       11    1    1    2    0    0  0.18027771778E-02 -0.12932148518E-02  0.14287198453E+00  0.14289012421E+00  0.51109989000E-03 0. -1.
     -623    1    1    2    0    0 -0.96889688478E-01  0.28944094878E-01  0.96364598246E-03  0.17124002986E+03  0.17124000000E+03 0. -1.
     -611    1    1    2    0    0  0.81536545622E-01 -0.23337541457E-01  0.46005109537E+01  0.46012926603E+01  0.51109989000E-03 0.  1.
      611    1    1    2    0    0  0.13550366144E-01 -0.43133387081E-02  0.75565341844E+00  0.75578738236E+00  0.51109989000E-03 0.  1.
</event>
<event>
 6   3  0.2312675E+03  0.9118800E+02  0.7818608E-02  0.1180000E+00
       11   -1    0    0    0    0  0.00000000000E+00  0.00000000000E+00  0.54999999763E+01  0.55000000000E+01  0.51109989000E-03 0.  1.
     -623   -1    0    0    0    0  0.00000000000E+00  0.00000000000E+00  0.93234578044E-11  0.17124000000E+03  0.17124000000E+03 0.  1.
       11    1    1    2    0    0 -0.70349265945E-01 -0.29499708926E-02  0.87445966493E+00  0.87728996823E+00  0.51109989000E-03 0.  1.
     -623    1    1    2    0    0 -0.99181436621E-02  0.11626209659E-02  0.35363372349E-02  0.17124000033E+03  0.17124000000E+03 0.  1.
     -611    1    1    2    0    0  0.23154073019E-01  0.34625160095E-02  0.15020998072E+01  0.15022823277E+01  0.51109989000E-03 0. -1.
      611    1    1    2    0    0  0.57113336587E-01 -0.16751660828E-02  0.31199041669E+01  0.31204273764E+01  0.51109989000E-03 0.  1.
</event>
<event>
 6   3  0.2312675E+03  0.9118800E+02  0.7818608E-02  0.1180000E+00
       11   -1    0    0    0    0  0.00000000000E+00  0.00000000000E+00  0.54999999763E+01  0.55000000000E+01  0.51109989000E-03 0.  1.
     -623   -1    0    0    0    0  0.00000000000E+00  0.00000000000E+00  0.93234578044E-11  0.17124000000E+03  0.17124000000E+03 0. -1.
       11    1    1    2    0    0 -0.56197781440E-02 -0.28607597286E-01  0.54550272819E+00  0.54628148807E+00  0.51109989000E-03 0.  1.
     -623    1    1    2    0    0 -0.14236638995E-01  0.12604289221E-01  0.17308691232E-02  0.17124000106E+03  0.17124000000E+03 0. -1.
     -611    1    1    2    0    0  0.54535623728E-01 -0.66260708274E-02  0.31159012025E+01  0.31163855031E+01  0.51109989000E-03 0.  1.
      611    1    1    2    0    0 -0.34679206589E-01  0.22629378892E-01  0.18368651765E+01  0.18373319445E+01  0.51109989000E-03 0. -1.
</event>
<event>
 6   3  0.2312675E+03  0.9118800E+02  0.7818608E-02  0.1180000E+00
       11   -1    0    0    0    0  0.00000000000E+00  0.00000000000E+00  0.54999999763E+01  0.55000000000E+01  0.51109989000E-03 0. -1.
     -623   -1    0    0    0    0  0.00000000000E+00  0.00000000000E+00  0.93234578044E-11  0.17124000000E+03  0.17124000000E+03 0.  1.
       11    1    1    2    0    0  0.39594457988E-01  0.85321536992E-02  0.92921035751E+00  0.93009282788E+00  0.51109989000E-03 0. -1.
     -623    1    1    2    0    0  0.53747362028E-02  0.19479275542E-02  0.14279222620E-02  0.17124000010E+03  0.17124000000E+03 0.  1.
     -611    1    1    2    0    0  0.75871825579E-02 -0.13437023839E-01  0.60967728708E+00  0.60987275276E+00  0.51109989000E-03 0.  1.
      611    1    1    2    0    0 -0.52556376748E-01  0.29569425858E-02  0.39596844095E+01  0.39600343180E+01  0.51109989000E-03 0. -1.
</event>
<event>
 6   3  0.2312675E+03  0.9118800E+02  0.7818608E-02  0.1180000E+00
       11   -1    0    0    0    0  0.00000000000E+00  0.00000000000E+00  0.54999999763E+01  0.55000000000E+01  0.51109989000E-03 0. -1.
     -623   -1    0    0    0    0  0.00000000000E+00  0.00000000000E+00  0.93234578044E-11  0.17124000000E+03  0.17124000000E+03 0.  1.
       11    1    1    2    0    0 -0.42990682533E-01 -0.13290719144E-01  0.83269353050E+00  0.83390863946E+00  0.51109989000E-03 0. -1.
     -623    1    1    2    0    0 -0.85519977963E-02 -0.81687221948E-02  0.15497021704E-02  0.17124000042E+03  0.17124000000E+03 0.  1.
     -611    1    1    2    0    0  0.18246064006E-01  0.72630505287E-02  0.16425337935E+01  0.16426512700E+01  0.51109989000E-03 0. -1.
      611    1    1    2    0    0  0.33296616231E-01  0.14196390772E-01  0.30232229416E+01  0.30234396667E+01  0.51109989000E-03 0. -1.
</event>
<event>
 6   3  0.2319491E+03  0.9118800E+02  0.7818608E-02  0.1180000E+00
       11   -1    0    0    0    0  0.00000000000E+00  0.00000000000E+00  0.54999999763E+01  0.55000000000E+01  0.51109989000E-03 0.  1.
     -623   -1    0    0    0    0  0.00000000000E+00  0.00000000000E+00  0.93234578044E-11  0.17124000000E+03  0.17124000000E+03 0.  1.
       11    1    1    2    0    0 -0.11128534076E-02  0.93836719040E-03  0.25375730455E-02  0.29697602176E-02  0.51109989000E-03 0.  1.
     -623    1    1    2    0    0  0.60243007214E-03 -0.31608873020E-02  0.93271576018E-03  0.17124000003E+03  0.17124000000E+03 0.  1.
     -611    1    1    2    0    0 -0.35517371090E-01  0.22009609705E-02  0.20168707993E+01  0.20171847735E+01  0.51109989000E-03 0. -1.
      611    1    1    2    0    0  0.36027794426E-01  0.21559141130E-04  0.34796588881E+01  0.34798454335E+01  0.51109989000E-03 0.  1.
</event>
<event>
 6   3  0.2312675E+03  0.9118800E+02  0.7818608E-02  0.1180000E+00
       11   -1    0    0    0    0  0.00000000000E+00  0.00000000000E+00  0.54999999763E+01  0.55000000000E+01  0.51109989000E-03 0.  1.
     -623   -1    0    0    0    0  0.00000000000E+00  0.00000000000E+00  0.93234578044E-11  0.17124000000E+03  0.17124000000E+03 0. -1.
       11    1    1    2    0    0  0.74378248183E-02  0.72491597837E-02  0.96648025923E+00  0.96653619915E+00  0.51109989000E-03 0.  1.
     -623    1    1    2    0    0  0.10693418210E-02 -0.60139168546E-05  0.52109816257E-03  0.17124000000E+03  0.17124000000E+03 0. -1.
     -611    1    1    2    0    0  0.27676697887E-01 -0.37455475443E-02  0.22933505473E+01  0.22935206610E+01  0.51109989000E-03 0.  1.
      611    1    1    2    0    0 -0.36183864526E-01 -0.34975983225E-02  0.22396480713E+01  0.22399431354E+01  0.51109989000E-03 0. -1.
</event>
<event>
 6   3  0.2312675E+03  0.9118800E+02  0.7818608E-02  0.1180000E+00
       11   -1    0    0    0    0  0.00000000000E+00  0.00000000000E+00  0.54999999763E+01  0.55000000000E+01  0.51109989000E-03 0.  1.
     -623   -1    0    0    0    0  0.00000000000E+00  0.00000000000E+00  0.93234578044E-11  0.17124000000E+03  0.17124000000E+03 0.  1.
       11    1    1    2    0    0  0.53485627452E-01 -0.13739701937E-01  0.70593274879E+00  0.70808954150E+00  0.51109989000E-03 0.  1.
     -623    1    1    2    0    0  0.28928421372E-02  0.46964837224E-02  0.24989080381E-02  0.17124000011E+03  0.17124000000E+03 0.  1.
     -611    1    1    2    0    0 -0.40095813053E-01  0.57248059364E-02  0.35348545700E+01  0.35350866382E+01  0.51109989000E-03 0.  1.
      611    1    1    2    0    0 -0.16282656531E-01  0.33184122768E-02  0.12567137490E+01  0.12568237127E+01  0.51109989000E-03 0. -1.
</event>
<event>
 6   3  0.2312675E+03  0.9118800E+02  0.7818608E-02  0.1180000E+00
       11   -1    0    0    0    0  0.00000000000E+00  0.00000000000E+00  0.54999999763E+01  0.55000000000E+01  0.51109989000E-03 0. -1.
     -623   -1    0    0    0    0  0.00000000000E+00  0.00000000000E+00  0.93234578044E-11  0.17124000000E+03  0.17124000000E+03 0. -1.
       11    1    1    2    0    0 -0.69702830355E-01 -0.58009458730E-02  0.10585727463E+01  0.10608810753E+01  0.51109989000E-03 0. -1.
     -623    1    1    2    0    0  0.19397634651E-01  0.27403077526E-01  0.26509066243E-02  0.17124000331E+03  0.17124000000E+03 0. -1.
     -611    1    1    2    0    0  0.41915349207E-01 -0.18972247985E-01  0.38009592240E+01  0.38012377098E+01  0.51109989000E-03 0. -1.
      611    1    1    2    0    0  0.83898464979E-02 -0.26298836684E-02  0.63781709940E+00  0.63787790315E+00  0.51109989000E-03 0.  1.
</event>
<event>
 6   3  0.2312675E+03  0.9118800E+02  0.7818608E-02  0.1180000E+00
       11   -1    0    0    0    0  0.00000000000E+00  0.00000000000E+00  0.54999999763E+01  0.55000000000E+01  0.51109989000E-03 0. -1.
     -623   -1    0    0    0    0  0.00000000000E+00  0.00000000000E+00  0.93234578044E-11  0.17124000000E+03  0.17124000000E+03 0. -1.
       11    1    1    2    0    0  0.10371387233E-01  0.46080500877E-02  0.64962512786E-01  0.65948382007E-01  0.51109989000E-03 0. -1.
     -623    1    1    2    0    0  0.26198768098E-02 -0.25454306040E-02  0.13625210184E-02  0.17124000004E+03  0.17124000000E+03 0. -1.
     -611    1    1    2    0    0  0.23260018087E-01  0.10542595505E-01  0.20657113941E+01  0.20658693085E+01  0.51109989000E-03 0.  1.
      611    1    1    2    0    0 -0.36251282130E-01 -0.12605214989E-01  0.33679635484E+01  0.33681822652E+01  0.51109989000E-03 0. -1.
</event>
<event>
 6   3  0.2312675E+03  0.9118800E+02  0.7818608E-02  0.1180000E+00
       11   -1    0    0    0    0  0.00000000000E+00  0.00000000000E+00  0.54999999763E+01  0.55000000000E+01  0.51109989000E-03 0. -1.
     -623   -1    0    0    0    0  0.00000000000E+00  0.00000000000E+00  0.93234578044E-11  0.17124000000E+03  0.17124000000E+03 0.  1.
       11    1    1    2    0    0 -0.54299636600E-01 -0.39768632982E-01  0.40657776644E+00  0.41211131517E+00  0.51109989000E-03 0. -1.
     -623    1    1    2    0    0 -0.11527063577E-01  0.19157451995E-01  0.60030471777E-02  0.17124000156E+03  0.17124000000E+03 0.  1.
     -611    1    1    2    0    0  0.39282532067E-01  0.12845868858E-01  0.30906047717E+01  0.30908811446E+01  0.51109989000E-03 0.  1.
      611    1    1    2    0    0  0.26544168143E-01  0.77653121397E-02  0.19968143935E+01  0.19970059780E+01  0.51109989000E-03 0. -1.
</event>
<event>
 6   3  0.2312675E+03  0.9118800E+02  0.7818608E-02  0.1180000E+00
       11   -1    0    0    0    0  0.00000000000E+00  0.00000000000E+00  0.54999999763E+01  0.55000000000E+01  0.51109989000E-03 0.  1.
     -623   -1    0    0    0    0  0.00000000000E+00  0.00000000000E+00  0.93234578044E-11  0.17124000000E+03  0.17124000000E+03 0.  1.
       11    1    1    2    0    0  0.35285203999E-02  0.72175129715E-02  0.14193138889E-01  0.16317149393E-01  0.51109989000E-03 0.  1.
     -623    1    1    2    0    0  0.64565760383E-03 -0.12295792487E-01  0.29130195614E-02  0.17124000047E+03  0.17124000000E+03 0.  1.
     -611    1    1    2    0    0  0.41102364704E-01  0.13899936627E-02  0.16222756722E+01  0.16227969541E+01  0.51109989000E-03 0. -1.
      611    1    1    2    0    0 -0.45276542707E-01  0.36882858529E-02  0.38606181457E+01  0.38608854291E+01  0.51109989000E-03 0.  1.
</event>
<event>
 6   3  0.2312675E+03  0.9118800E+02  0.7818608E-02  0.1180000E+00
       11   -1    0    0    0    0  0.00000000000E+00  0.00000000000E+00  0.54999999763E+01  0.55000000000E+01  0.51109989000E-03 0. -1.
     -623   -1    0    0    0    0  0.00000000000E+00  0.00000000000E+00  0.93234578044E-11  0.17124000000E+03  0.17124000000E+03 0.  1.
       11    1    1    2    0    0  0.10145929452E+00  0.17023224483E-01  0.34221369011E+00  0.35734332166E+00  0.51109989000E-03 0. -1.
     -623    1    1    2    0    0 -0.11552013253E-01  0.48882098700E-01  0.19468853438E-01  0.17124000847E+03  0.17124000000E+03 0.  1.
     -611    1    1    2    0    0 -0.13665896515E+00 -0.77976838601E-01  0.43569813954E+01  0.43598214644E+01  0.51109989000E-03 0. -1.
      611    1    1    2    0    0  0.46751683886E-01  0.12071515417E-01  0.78133603733E+00  0.78282674065E+00  0.51109989000E-03 0.  1.
</event>
<event>
 6   3  0.2312675E+03  0.9118800E+02  0.7818608E-02  0.1180000E+00
       11   -1    0    0    0    0  0.00000000000E+00  0.00000000000E+00  0.54999999763E+01  0.55000000000E+01  0.51109989000E-03 0. -1.
     -623   -1    0    0    0    0  0.00000000000E+00  0.00000000000E+00  0.93234578044E-11  0.17124000000E+03  0.17124000000E+03 0. -1.
       11    1    1    2    0    0 -0.18782685678E-01  0.12731442164E-01  0.78788552053E+00  0.78821236579E+00  0.51109989000E-03 0. -1.
     -623    1    1    2    0    0  0.11708836875E+00 -0.11203005964E+00  0.24761275626E-02  0.17124007670E+03  0.17124000000E+03 0. -1.
     -611    1    1    2    0    0 -0.81593516617E-01  0.82650058747E-01  0.39234309693E+01  0.39251495979E+01  0.51109989000E-03 0. -1.
      611    1    1    2    0    0 -0.16712166415E-01  0.16648558690E-01  0.78620735705E+00  0.78656133932E+00  0.51109989000E-03 0. -1.
</event>
<event>
 6   3  0.2312675E+03  0.9118800E+02  0.7818608E-02  0.1180000E+00
       11   -1    0    0    0    0  0.00000000000E+00  0.00000000000E+00  0.54999999763E+01  0.55000000000E+01  0.51109989000E-03 0. -1.
     -623   -1    0    0    0    0  0.00000000000E+00  0.00000000000E+00  0.93234578044E-11  0.17124000000E+03  0.17124000000E+03 0. -1.
       11    1    1    2    0    0 -0.43329276677E-01 -0.13098736557E-01  0.99183300182E+00  0.99286553361E+00  0.51109989000E-03 0. -1.
     -623    1    1    2    0    0 -0.25349392975E-02  0.12952202059E-01  0.12665368782E-02  0.17124000051E+03  0.17124000000E+03 0. -1.
     -611    1    1    2    0    0  0.25207956371E-01  0.34071509218E-03  0.24868696717E+01  0.24869975035E+01  0.51109989000E-03 0. -1.
      611    1    1    2    0    0  0.20656259647E-01 -0.19418059389E-03  0.20200307702E+01  0.20201364540E+01  0.51109989000E-03 0. -1.
</event>
<event>
 6   3  0.2312675E+03  0.9118800E+02  0.7818608E-02  0.1180000E+00
       11   -1    0    0    0    0  0.00000000000E+00  0.00000000000E+00  0.54999999763E+01  0.55000000000E+01  0.51109989000E-03 0. -1.
     -623   -1    0    0    0    0  0.00000000000E+00  0.00000000000E+00  0.93234578044E-11  0.17124000000E+03  0.17124000000E+03 0. -1.
       11    1    1    2    0    0  0.76372954348E-02 -0.33970428337E-02  0.41854465990E+00  0.41862842920E+00  0.51109989000E-03 0. -1.
     -623    1    1    2    0    0 -0.33033098535E-04  0.37712769225E-02  0.78729735754E-03  0.17124000004E+03  0.17124000000E+03 0. -1.
     -611    1    1    2    0    0  0.36792346288E-01  0.84744387780E-02  0.18409092057E+01  0.18412964068E+01  0.51109989000E-03 0.  1.
      611    1    1    2    0    0 -0.44396608624E-01 -0.88486728666E-02  0.32397588131E+01  0.32400751205E+01  0.51109989000E-03 0. -1.
</event>
<event>
 6   3  0.2312675E+03  0.9118800E+02  0.7818608E-02  0.1180000E+00
       11   -1    0    0    0    0  0.00000000000E+00  0.00000000000E+00  0.54999999763E+01  0.55000000000E+01  0.51109989000E-03 0.  1.
     -623   -1    0    0    0    0  0.00000000000E+00  0.00000000000E+00  0.93234578044E-11  0.17124000000E+03  0.17124000000E+03 0.  1.
       11    1    1    2    0    0 -0.26744484778E-01 -0.67802602092E-01  0.35297517467E+00  0.36042224609E+00  0.51109989000E-03 0.  1.
     -623    1    1    2    0    0  0.23878605402E-01  0.72673935503E-01  0.86515336759E-02  0.17124001730E+03  0.17124000000E+03 0.  1.
     -611    1    1    2    0    0  0.48096774680E-01 -0.17685185754E-01  0.14836895105E+01  0.14845743128E+01  0.51109989000E-03 0. -1.
      611    1    1    2    0    0 -0.45230895303E-01  0.12813852344E-01  0.36546837574E+01  0.36549861363E+01  0.51109989000E-03 0.  1.
</event>
<event>
 6   3  0.2312675E+03  0.9118800E+02  0.7818608E-02  0.1180000E+00
       11   -1    0    0    0    0  0.00000000000E+00  0.00000000000E+00  0.54999999763E+01  0.55000000000E+01  0.51109989000E-03 0.  1.
     -623   -1    0    0    0    0  0.00000000000E+00  0.00000000000E+00  0.93234578044E-11  0.17124000000E+03  0.17124000000E+03 0.  1.
       11    1    1    2    0    0  0.56289901316E-02 -0.99529336832E-03  0.85029993846E-01  0.85223454608E-01  0.51109989000E-03 0.  1.
     -623    1    1    2    0    0 -0.66284912416E-01  0.39259352370E-01  0.68650488777E-03  0.17124001733E+03  0.17124000000E+03 0.  1.
     -611    1    1    2    0    0  0.53993046093E-01 -0.33513544715E-01  0.48408159543E+01  0.48412330838E+01  0.51109989000E-03 0.  1.
      611    1    1    2    0    0  0.66628761866E-02 -0.47505142838E-02  0.57346752282E+00  0.57352613041E+00  0.51109989000E-03 0.  1.
</event>
<event>
 6   3  0.2312675E+03  0.9118800E+02  0.7818608E-02  0.1180000E+00
       11   -1    0    0    0    0  0.00000000000E+00  0.00000000000E+00  0.54999999763E+01  0.55000000000E+01  0.51109989000E-03 0.  1.
     -623   -1    0    0    0    0  0.00000000000E+00  0.00000000000E+00  0.93234578044E-11  0.17124000000E+03  0.17124000000E+03 0. -1.
       11    1    1    2    0    0 -0.12215758107E-01  0.19976091147E-01  0.52410571604E+00  0.52462875614E+00  0.51109989000E-03 0.  1.
     -623    1    1    2    0    0 -0.21832763682E-01  0.35630788110E-02  0.15669038948E-02  0.17124000144E+03  0.17124000000E+03 0. -1.
     -611    1    1    2    0    0 -0.24708924679E-01  0.17142866300E-01  0.13057470296E+01  0.13060934022E+01  0.51109989000E-03 0. -1.
      611    1    1    2    0    0  0.58757446468E-01 -0.40682036258E-01  0.36685803267E+01  0.36692764056E+01  0.51109989000E-03 0.  1.
</event>
<event>
 6   3  0.2312675E+03  0.9118800E+02  0.7818608E-02  0.1180000E+00
       11   -1    0    0    0    0  0.00000000000E+00  0.00000000000E+00  0.54999999763E+01  0.55000000000E+01  0.51109989000E-03 0.  1.
     -623   -1    0    0    0    0  0.00000000000E+00  0.00000000000E+00  0.93234578044E-11  0.17124000000E+03  0.17124000000E+03 0.  1.
       11    1    1    2    0    0  0.40499059321E-01  0.77646200502E-01  0.68400923389E+00  0.68959263302E+00  0.51109989000E-03 0.  1.
     -623    1    1    2    0    0  0.51104029678E-01  0.30503283076E-01  0.76831523960E-02  0.17124001051E+03  0.17124000000E+03 0.  1.
     -611    1    1    2    0    0 -0.42118602254E-01 -0.49111296096E-01  0.21506972131E+01  0.21516702024E+01  0.51109989000E-03 0. -1.
      611    1    1    2    0    0 -0.49484486746E-01 -0.59038187483E-01  0.26576103769E+01  0.26587266499E+01  0.51109989000E-03 0.  1.
</event>
<event>
 6   3  0.2312675E+03  0.9118800E+02  0.7818608E-02  0.1180000E+00
       11   -1    0    0    0    0  0.00000000000E+00  0.00000000000E+00  0.54999999763E+01  0.55000000000E+01  0.51109989000E-03 0. -1.
     -623   -1    0    0    0    0  0.00000000000E+00  0.00000000000E+00  0.93234578044E-11  0.17124000000E+03  0.17124000000E+03 0.  1.
       11    1    1    2    0    0  0.10775281936E-01 -0.20729524730E-01  0.48665640414E+00  0.48721713517E+00  0.51109989000E-03 0. -1.
     -623    1    1    2    0    0  0.23966806349E-02  0.88886373981E-02  0.16885901131E-02  0.17124000026E+03  0.17124000000E+03 0.  1.
     -611    1    1    2    0    0  0.36273294903E-01  0.30653641261E-01  0.15617649547E+01  0.15624869384E+01  0.51109989000E-03 0.  1.
      611    1    1    2    0    0 -0.49445257474E-01 -0.18812753929E-01  0.34498900271E+01  0.34502956705E+01  0.51109989000E-03 0. -1.
</event>
<event>
 6   3  0.2312675E+03  0.9118800E+02  0.7818608E-02  0.1180000E+00
       11   -1    0    0    0    0  0.00000000000E+00  0.00000000000E+00  0.54999999763E+01  0.55000000000E+01  0.51109989000E-03 0.  1.
     -623   -1    0    0    0    0  0.00000000000E+00  0.00000000000E+00  0.93234578044E-11  0.17124000000E+03  0.17124000000E+03 0.  1.
       11    1    1    2    0    0 -0.88460487215E-03  0.66213533037E-01  0.28582794086E+00  0.29339885392E+00  0.51109989000E-03 0.  1.
     -623    1    1    2    0    0  0.36999824398E-02  0.17157807455E-01  0.88101262479E-02  0.17124000113E+03  0.17124000000E+03 0.  1.
     -611    1    1    2    0    0 -0.32806245755E-01 -0.29708640018E-01  0.31724923623E+01  0.31728011130E+01  0.51109989000E-03 0.  1.
      611    1    1    2    0    0  0.29990868187E-01 -0.53662700473E-01  0.20328695469E+01  0.20337989068E+01  0.51109989000E-03 0. -1.
</event>
<event>
 6   3  0.2312675E+03  0.9118800E+02  0.7818608E-02  0.1180000E+00
       11   -1    0    0    0    0  0.00000000000E+00  0.00000000000E+00  0.54999999763E+01  0.55000000000E+01  0.51109989000E-03 0.  1.
     -623   -1    0    0    0    0  0.00000000000E+00  0.00000000000E+00  0.93234578044E-11  0.17124000000E+03  0.17124000000E+03 0.  1.
       11    1    1    2    0    0 -0.48415461096E-03 -0.81936879866E-01  0.87851167225E-01  0.12013315735E+00  0.51109989000E-03 0.  1.
     -623    1    1    2    0    0  0.76674118770E-01 -0.25259620623E-01  0.33913648203E-01  0.17124002239E+03  0.17124000000E+03 0.  1.
     -611    1    1    2    0    0 -0.65065741987E-01  0.91567380022E-01  0.46474548161E+01  0.46488121778E+01  0.51109989000E-03 0.  1.
      611    1    1    2    0    0 -0.11124222185E-01  0.15629120485E-01  0.73078034567E+00  0.73103227875E+00  0.51109989000E-03 0. -1.
</event>
<event>
 6   3  0.2312675E+03  0.9118800E+02  0.7818608E-02  0.1180000E+00
       11   -1    0    0    0    0  0.00000000000E+00  0.00000000000E+00  0.54999999763E+01  0.55000000000E+01  0.51109989000E-03 0.  1.
     -623   -1    0    0    0    0  0.00000000000E+00  0.00000000000E+00  0.93234578044E-11  0.17124000000E+03  0.17124000000E+03 0.  1.
       11    1    1    2    0    0 -0.33517833789E-02  0.88975134659E-02  0.48585499051E+00  0.48594828246E+00  0.51109989000E-03 0.  1.
     -623    1    1    2    0    0  0.88937274276E-01 -0.10967427858E+00  0.18952645505E-02  0.17124005823E+03  0.17124000000E+03 0.  1.
     -611    1    1    2    0    0 -0.29293876132E-01  0.33925442396E-01  0.16827777325E+01  0.16833746538E+01  0.51109989000E-03 0.  1.
      611    1    1    2    0    0 -0.56291614835E-01  0.66851322801E-01  0.33294719928E+01  0.33306188400E+01  0.51109989000E-03 0.  1.
</event>
<event>
 6   3  0.2312675E+03  0.9118800E+02  0.7818608E-02  0.1180000E+00
       11   -1    0    0    0    0  0.00000000000E+00  0.00000000000E+00  0.54999999763E+01  0.55000000000E+01  0.51109989000E-03 0. -1.
     -623   -1    0    0    0    0  0.00000000000E+00  0.00000000000E+00  0.93234578044E-11  0.17124000000E+03  0.17124000000E+03 0. -1.
       11    1    1    2    0    0 -0.14505406211E-01  0.10673983030E-02  0.10445327926E+00  0.10546229146E+00  0.51109989000E-03 0. -1.
     -623    1    1    2    0    0  0.54173259736E-02 -0.71187599831E-02  0.17375364306E-02  0.17124000024E+03  0.17124000000E+03 0. -1.
     -611    1    1    2    0    0  0.45371501063E-01  0.11168970346E-01  0.38953322239E+01  0.38956124955E+01  0.51109989000E-03 0. -1.
      611    1    1    2    0    0 -0.36283420825E-01 -0.51176086657E-02  0.14984769367E+01  0.14989249706E+01  0.51109989000E-03 0.  1.
</event>
<event>
 6   3  0.2312675E+03  0.9118800E+02  0.7818608E-02  0.1180000E+00
       11   -1    0    0    0    0  0.00000000000E+00  0.00000000000E+00  0.54999999763E+01  0.55000000000E+01  0.51109989000E-03 0. -1.
     -623   -1    0    0    0    0  0.00000000000E+00  0.00000000000E+00  0.93234578044E-11  0.17124000000E+03  0.17124000000E+03 0. -1.
       11    1    1    2    0    0  0.11326641869E-01 -0.13547202188E-01  0.27036795212E+00  0.27094447818E+00  0.51109989000E-03 0. -1.
     -623    1    1    2    0    0 -0.16894622724E-01  0.42240937118E-02  0.25941872186E-02  0.17124000091E+03  0.17124000000E+03 0. -1.
     -611    1    1    2    0    0  0.30079700889E-01  0.71758137937E-01  0.29820212226E+01  0.29830361802E+01  0.51109989000E-03 0.  1.
      611    1    1    2    0    0 -0.24511720034E-01 -0.62435029461E-01  0.22450166143E+01  0.22460184365E+01  0.51109989000E-03 0. -1.
</event>
<event>
 6   3  0.2312675E+03  0.9118800E+02  0.7818608E-02  0.1180000E+00
       11   -1    0    0    0    0  0.00000000000E+00  0.00000000000E+00  0.54999999763E+01  0.55000000000E+01  0.51109989000E-03 0. -1.
     -623   -1    0    0    0    0  0.00000000000E+00  0.00000000000E+00  0.93234578044E-11  0.17124000000E+03  0.17124000000E+03 0.  1.
       11    1    1    2    0    0  0.16291086942E-01  0.56451434574E-01  0.45543711362E+00  0.45921170463E+00  0.51109989000E-03 0. -1.
     -623    1    1    2    0    0  0.47215290123E-01 -0.82256232446E-01  0.42676908932E-02  0.17124002632E+03  0.17124000000E+03 0.  1.
     -611    1    1    2    0    0 -0.17633562525E-01  0.68062735014E-02  0.14652760574E+01  0.14653980529E+01  0.51109989000E-03 0. -1.
      611    1    1    2    0    0 -0.45872814559E-01  0.18998524379E-01  0.35750191159E+01  0.35753639254E+01  0.51109989000E-03 0.  1.
</event>
<event>
 6   3  0.2312675E+03  0.9118800E+02  0.7818608E-02  0.1180000E+00
       11   -1    0    0    0    0  0.00000000000E+00  0.00000000000E+00  0.54999999763E+01  0.55000000000E+01  0.51109989000E-03 0.  1.
     -623   -1    0    0    0    0  0.00000000000E+00  0.00000000000E+00  0.93234578044E-11  0.17124000000E+03  0.17124000000E+03 0.  1.
       11    1    1    2    0    0 -0.10128146159E-01  0.11401265543E-01  0.40532450813E+00  0.40561162004E+00  0.51109989000E-03 0.  1.
     -623    1    1    2    0    0  0.51538079326E-03 -0.93256319806E-02  0.29772528332E-02  0.17124000028E+03  0.17124000000E+03 0.  1.
     -611    1    1    2    0    0 -0.75351559314E-01  0.16732520929E-01  0.27158236075E+01  0.27169203085E+01  0.51109989000E-03 0.  1.
      611    1    1    2    0    0  0.84964324680E-01 -0.18808154492E-01  0.23758746079E+01  0.23774677909E+01  0.51109989000E-03 0. -1.
</event>
<event>
 6   3  0.2312675E+03  0.9118800E+02  0.7818608E-02  0.1180000E+00
       11   -1    0    0    0    0  0.00000000000E+00  0.00000000000E+00  0.54999999763E+01  0.55000000000E+01  0.51109989000E-03 0. -1.
     -623   -1    0    0    0    0  0.00000000000E+00  0.00000000000E+00  0.93234578044E-11  0.17124000000E+03  0.17124000000E+03 0.  1.
       11    1    1    2    0    0  0.89139555882E-01  0.18680424342E+00  0.77548924918E+00  0.80263660682E+00  0.51109989000E-03 0. -1.
     -623    1    1    2    0    0  0.36170177100E-01 -0.71077618008E-01  0.30396233178E-01  0.17124002127E+03  0.17124000000E+03 0.  1.
     -611    1    1    2    0    0 -0.23804398121E-01 -0.25848759776E-01  0.13956768061E+01  0.13961191984E+01  0.51109989000E-03 0.  1.
      611    1    1    2    0    0 -0.10150533486E+00 -0.89877865638E-01  0.32984376878E+01  0.33012229257E+01  0.51109989000E-03 0. -1.
</event>
<event>
 6   3  0.2312675E+03  0.9118800E+02  0.7818608E-02  0.1180000E+00
       11   -1    0    0    0    0  0.00000000000E+00  0.00000000000E+00  0.54999999763E+01  0.55000000000E+01  0.51109989000E-03 0. -1.
     -623   -1    0    0    0    0  0.00000000000E+00  0.00000000000E+00  0.93234578044E-11  0.17124000000E+03  0.17124000000E+03 0. -1.
       11    1    1    2    0    0 -0.19959559124E-01  0.31346832051E-01  0.33546922472E+00  0.33752165832E+00  0.51109989000E-03 0. -1.
     -623    1    1    2    0    0  0.18050665635E-01  0.33014693290E-02  0.41682506542E-02  0.17124000103E+03  0.17124000000E+03 0. -1.
     -611    1    1    2    0    0 -0.43616042951E-01 -0.22046433562E-01  0.63840882476E+00  0.64027688790E+00  0.51109989000E-03 0.  1.
      611    1    1    2    0    0  0.45524936439E-01 -0.12601867819E-01  0.45219536761E+01  0.45222004199E+01  0.51109989000E-03 0. -1.
</event>
<event>
 6   3  0.2312675E+03  0.9118800E+02  0.7818608E-02  0.1180000E+00
       11   -1    0    0    0    0  0.00000000000E+00  0.00000000000E+00  0.54999999763E+01  0.55000000000E+01  0.51109989000E-03 0.  1.
     -623   -1    0    0    0    0  0.00000000000E+00  0.00000000000E+00  0.93234578044E-11  0.17124000000E+03  0.17124000000E+03 0. -1.
       11    1    1    2    0    0 -0.59315242704E-02 -0.99684002049E-02  0.38289783263E-01  0.40011507198E-01  0.51109989000E-03 0.  1.
     -623    1    1    2    0    0  0.11284197135E-01  0.14677351490E-01  0.25560275769E-02  0.17124000102E+03  0.17124000000E+03 0. -1.
     -611    1    1    2    0    0  0.38783175465E-01  0.70919694877E-03  0.12580908693E+01  0.12586888155E+01  0.51109989000E-03 0. -1.
      611    1    1    2    0    0 -0.44135848329E-01 -0.54181482337E-02  0.42010632961E+01  0.42012986574E+01  0.51109989000E-03 0.  1.
</event>
<event>
 6   3  0.2312675E+03  0.9118800E+02  0.7818608E-02  0.1180000E+00
       11   -1    0    0    0    0  0.00000000000E+00  0.00000000000E+00  0.54999999763E+01  0.55000000000E+01  0.51109989000E-03 0. -1.
     -623   -1    0    0    0    0  0.00000000000E+00  0.00000000000E+00  0.93234578044E-11  0.17124000000E+03  0.17124000000E+03 0.  1.
       11    1    1    2    0    0 -0.19466642632E-02 -0.42162905982E-02  0.76428629098E+00  0.76430057073E+00  0.51109989000E-03 0. -1.
     -623    1    1    2    0    0 -0.59243539499E-03  0.72747924845E-03  0.47577298552E-03  0.17124000000E+03  0.17124000000E+03 0.  1.
     -611    1    1    2    0    0  0.31877808410E-01  0.11280902598E-01  0.19200606253E+01  0.19203584351E+01  0.51109989000E-03 0. -1.
      611    1    1    2    0    0 -0.29338708752E-01 -0.77920912486E-02  0.28151772869E+01  0.28153409908E+01  0.51109989000E-03 0.  1.
</event>
<event>
 6   3  0.2312675E+03  0.9118800E+02  0.7818608E-02  0.1180000E+00
       11   -1    0    0    0    0  0.00000000000E+00  0.00000000000E+00  0.54999999763E+01  0.55000000000E+01  0.51109989000E-03 0.  1.
     -623   -1    0    0    0    0  0.00000000000E+00  0.00000000000E+00  0.93234578044E-11  0.17124000000E+03  0.17124000000E+03 0.  1.
       11    1    1    2    0    0 -0.82240616979E-03 -0.41998371570E-02  0.84215327602E-03  0.43915178801E-02  0.51109989000E-03 0.  1.
     -623    1    1    2    0    0 -0.46697700163E-03 -0.54704890099E-02  0.12697794014E-01  0.17124000056E+03  0.17124000000E+03 0.  1.
     -611    1    1    2    0    0 -0.11328704082E+00 -0.63325840496E-02  0.46276354136E+01  0.46290262300E+01  0.51109989000E-03 0.  1.
      611    1    1    2    0    0  0.11457642399E+00  0.16002910217E-01  0.85882461536E+00  0.86658169334E+00  0.51109989000E-03 0. -1.
</event>
<event>
 6   3  0.2312675E+03  0.9118800E+02  0.7818608E-02  0.1180000E+00
       11   -1    0    0    0    0  0.00000000000E+00  0.00000000000E+00  0.54999999763E+01  0.55000000000E+01  0.51109989000E-03 0.  1.
     -623   -1    0    0    0    0  0.00000000000E+00  0.00000000000E+00  0.93234578044E-11  0.17124000000E+03  0.17124000000E+03 0.  1.
       11    1    1    2    0    0  0.49563935276E-01 -0.16882464458E-03  0.50200882287E+00  0.50444992977E+00  0.51109989000E-03 0.  1.
     -623    1    1    2    0    0  0.25149744688E-01  0.38744718335E-02  0.30032704451E-02  0.17124000192E+03  0.17124000000E+03 0.  1.
     -611    1    1    2    0    0 -0.55326452506E-01 -0.29049911000E-02  0.36931788105E+01  0.36935943798E+01  0.51109989000E-03 0.  1.
      611    1    1    2    0    0 -0.19387227590E-01 -0.80065609540E-03  0.13018090813E+01  0.13019537822E+01  0.51109989000E-03 0.  1.
</event>
<event>
 6   3  0.2312675E+03  0.9118800E+02  0.7818608E-02  0.1180000E+00
       11   -1    0    0    0    0  0.00000000000E+00  0.00000000000E+00  0.54999999763E+01  0.55000000000E+01  0.51109989000E-03 0.  1.
     -623   -1    0    0    0    0  0.00000000000E+00  0.00000000000E+00  0.93234578044E-11  0.17124000000E+03  0.17124000000E+03 0. -1.
       11    1    1    2    0    0 -0.58680323792E-02 -0.35193263105E-03  0.62736080705E-02  0.86126094710E-02  0.51109989000E-03 0.  1.
     -623    1    1    2    0    0  0.80834360254E-02  0.28271992935E-03  0.35937962379E-02  0.17124000023E+03  0.17124000000E+03 0. -1.
     -611    1    1    2    0    0 -0.37931778762E-01  0.43015391701E-01  0.35035317144E+01  0.35040011243E+01  0.51109989000E-03 0. -1.
      611    1    1    2    0    0  0.35716375116E-01 -0.42946178999E-01  0.19866008575E+01  0.19873860375E+01  0.51109989000E-03 0.  1.
</event>
<event>
 6   3  0.2312675E+03  0.9118800E+02  0.7818608E-02  0.1180000E+00
       11   -1    0    0    0    0  0.00000000000E+00  0.00000000000E+00  0.54999999763E+01  0.55000000000E+01  0.51109989000E-03 0. -1.
     -623   -1    0    0    0    0  0.00000000000E+00  0.00000000000E+00  0.93234578044E-11  0.17124000000E+03  0.17124000000E+03 0. -1.
       11    1    1    2    0    0 -0.24458190690E-01  0.17365837932E-01  0.26691419651E+00  0.26859490863E+00  0.51109989000E-03 0. -1.
     -623    1    1    2    0    0 -0.30534850509E-01  0.46628722510E-02  0.20190719771E-02  0.17124000280E+03  0.17124000000E+03 0. -1.
     -611    1    1    2    0    0  0.12238077662E-01 -0.48289802284E-02  0.11673672792E+01  0.11674415255E+01  0.51109989000E-03 0. -1.
      611    1    1    2    0    0  0.42754963550E-01 -0.17199729960E-01  0.40636994297E+01  0.40639607693E+01  0.51109989000E-03 0. -1.
</event>
<event>
 6   3  0.2312675E+03  0.9118800E+02  0.7818608E-02  0.1180000E+00
       11   -1    0    0    0    0  0.00000000000E+00  0.00000000000E+00  0.54999999763E+01  0.55000000000E+01  0.51109989000E-03 0.  1.
     -623   -1    0    0    0    0  0.00000000000E+00  0.00000000000E+00  0.93234578044E-11  0.17124000000E+03  0.17124000000E+03 0. -1.
       11    1    1    2    0    0  0.81377472724E-02 -0.15220318291E-02  0.14727794114E+00  0.14751133069E+00  0.51109989000E-03 0.  1.
     -623    1    1    2    0    0  0.60674148775E-01 -0.69654331680E-01  0.11831123105E-02  0.17124002492E+03  0.17124000000E+03 0. -1.
     -611    1    1    2    0    0 -0.64104215394E-02  0.10774451718E-01  0.59991885414E+00  0.60005006048E+00  0.51109989000E-03 0. -1.
      611    1    1    2    0    0 -0.62401474507E-01  0.60401911791E-01  0.47516200686E+01  0.47524136891E+01  0.51109989000E-03 0.  1.
</event>
<event>
 6   3  0.2312675E+03  0.9118800E+02  0.7818608E-02  0.1180000E+00
       11   -1    0    0    0    0  0.00000000000E+00  0.00000000000E+00  0.54999999763E+01  0.55000000000E+01  0.51109989000E-03 0.  1.
     -623   -1    0    0    0    0  0.00000000000E+00  0.00000000000E+00  0.93234578044E-11  0.17124000000E+03  0.17124000000E+03 0.  1.
       11    1    1    2    0    0 -0.49727900176E-01  0.61813752020E-02  0.10646614759E+01  0.10658402287E+01  0.51109989000E-03 0.  1.
     -623    1    1    2    0    0  0.25021220501E-02 -0.66573083070E-02  0.14312663608E-02  0.17124000015E+03  0.17124000000E+03 0.  1.
     -611    1    1    2    0    0  0.32893519433E-01  0.11621413315E-02  0.31626655187E+01  0.31628368245E+01  0.51109989000E-03 0.  1.
      611    1    1    2    0    0  0.14332258708E-01 -0.68620822640E-03  0.12712417167E+01  0.12713227946E+01  0.51109989000E-03 0. -1.
</event>
<event>
 6   3  0.2676074E+03  0.9118800E+02  0.7818608E-02  0.1180000E+00
       11   -1    0    0    0    0  0.00000000000E+00  0.00000000000E+00  0.54999999763E+01  0.55000000000E+01  0.51109989000E-03 0.  1.
     -623   -1    0    0    0    0  0.00000000000E+00  0.00000000000E+00  0.93234578044E-11  0.17124000000E+03  0.17124000000E+03 0. -1.
       11    1    1    2    0    0 -0.30579585938E-02 -0.33109129982E-02  0.14798241365E-02  0.47712009196E-02  0.51109989000E-03 0.  1.
     -623    1    1    2    0    0  0.30016816717E-02  0.52414554743E-02  0.54921836140E-02  0.17124000019E+03  0.17124000000E+03 0. -1.
     -611    1    1    2    0    0 -0.52041496360E-01 -0.51175052365E-01  0.17607589761E+01  0.17622711587E+01  0.51109989000E-03 0. -1.
      611    1    1    2    0    0  0.52097773282E-01  0.49244509889E-01  0.37322689923E+01  0.37329574458E+01  0.51109989000E-03 0.  1.
</event>
<event>
 6   3  0.2312675E+03  0.9118800E+02  0.7818608E-02  0.1180000E+00
       11   -1    0    0    0    0  0.00000000000E+00  0.00000000000E+00  0.54999999763E+01  0.55000000000E+01  0.51109989000E-03 0.  1.
     -623   -1    0    0    0    0  0.00000000000E+00  0.00000000000E+00  0.93234578044E-11  0.17124000000E+03  0.17124000000E+03 0. -1.
       11    1    1    2    0    0  0.17388707512E-01 -0.17214745684E-01  0.78658788377E+00  0.78696853478E+00  0.51109989000E-03 0.  1.
     -623    1    1    2    0    0 -0.78492728595E-01  0.29793908799E-01  0.81551865459E-03  0.17124002058E+03  0.17124000000E+03 0. -1.
     -611    1    1    2    0    0  0.36226455549E-01 -0.71855901536E-02  0.29156120497E+01  0.29158459963E+01  0.51109989000E-03 0.  1.
      611    1    1    2    0    0  0.24877565546E-01 -0.53935729629E-02  0.17969845250E+01  0.17971648862E+01  0.51109989000E-03 0. -1.
</event>
<event>
 6   3  0.2312675E+03  0.9118800E+02  0.7818608E-02  0.1180000E+00
       11   -1    0    0    0    0  0.00000000000E+00  0.00000000000E+00  0.54999999763E+01  0.55000000000E+01  0.51109989000E-03 0. -1.
     -623   -1    0    0    0    0  0.00000000000E+00  0.00000000000E+00  0.93234578044E-11  0.17124000000E+03  0.17124000000E+03 0.  1.
       11    1    1    2    0    0  0.36171026750E-02 -0.30583100083E-01  0.19873576762E+00  0.20110836879E+00  0.51109989000E-03 0. -1.
     -623    1    1    2    0    0 -0.57867121889E-01 -0.26273466728E-01  0.29740486795E-02  0.17124001182E+03  0.17124000000E+03 0.  1.
     -611    1    1    2    0    0  0.43369806147E-01  0.49333312780E-01  0.42940862961E+01  0.42945886992E+01  0.51109989000E-03 0. -1.
      611    1    1    2    0    0  0.10880213067E-01  0.75232540302E-02  0.10042038638E+01  0.10042911131E+01  0.51109989000E-03 0.  1.
</event>
<event>
 6   3  0.2312675E+03  0.9118800E+02  0.7818608E-02  0.1180000E+00
       11   -1    0    0    0    0  0.00000000000E+00  0.00000000000E+00  0.54999999763E+01  0.55000000000E+01  0.51109989000E-03 0.  1.
     -623   -1    0    0    0    0  0.00000000000E+00  0.00000000000E+00  0.93234578044E-11  0.17124000000E+03  0.17124000000E+03 0.  1.
       11    1    1    2    0    0  0.68482038118E-02 -0.23465965267E-02  0.17181017791E+00  0.17196337652E+00  0.51109989000E-03 0.  1.
     -623    1    1    2    0    0 -0.88587029553E-03 -0.16225692880E-02  0.47213647135E-03  0.17124000001E+03  0.17124000000E+03 0.  1.
     -611    1    1    2    0    0  0.26066531313E-01  0.17021617309E-02  0.25087265217E+01  0.25088625677E+01  0.51109989000E-03 0.  1.
      611    1    1    2    0    0 -0.32028864829E-01  0.22670040839E-02  0.28189911403E+01  0.28191740453E+01  0.51109989000E-03 0. -1.
</event>
<event>
 6   3  0.2312675E+03  0.9118800E+02  0.7818608E-02  0.1180000E+00
       11   -1    0    0    0    0  0.00000000000E+00  0.00000000000E+00  0.54999999763E+01  0.55000000000E+01  0.51109989000E-03 0.  1.
     -623   -1    0    0    0    0  0.00000000000E+00  0.00000000000E+00  0.93234578044E-11  0.17124000000E+03  0.17124000000E+03 0.  1.
       11    1    1    2    0    0 -0.12310567334E-02  0.68808365526E-03  0.13079402164E+00  0.13080262336E+00  0.51109989000E-03 0.  1.
     -623    1    1    2    0    0  0.69197901509E-01 -0.21114418434E-01  0.49319024426E-03  0.17124001528E+03  0.17124000000E+03 0.  1.
     -611    1    1    2    0    0 -0.24830422285E-01  0.68744115567E-02  0.19711294281E+01  0.19712978696E+01  0.51109989000E-03 0.  1.
      611    1    1    2    0    0 -0.43136422421E-01  0.13551923200E-01  0.33975833307E+01  0.33978842176E+01  0.51109989000E-03 0.  1.
</event>
<event>
 6   3  0.2312675E+03  0.9118800E+02  0.7818608E-02  0.1180000E+00
       11   -1    0    0    0    0  0.00000000000E+00  0.00000000000E+00  0.54999999763E+01  0.55000000000E+01  0.51109989000E-03 0. -1.
     -623   -1    0    0    0    0  0.00000000000E+00  0.00000000000E+00  0.93234578044E-11  0.17124000000E+03  0.17124000000E+03 0. -1.
       11    1    1    2    0    0  0.47141596583E-01 -0.57432607231E-01  0.85111270768E+00  0.85435000843E+00  0.51109989000E-03 0. -1.
     -623    1    1    2    0    0  0.29326756327E-01  0.61823505354E-01  0.38827732997E-02  0.17124001372E+03  0.17124000000E+03 0. -1.
     -611    1    1    2    0    0 -0.11446703413E-01 -0.33237395697E-03  0.68896725794E+00  0.68906261052E+00  0.51109989000E-03 0. -1.
      611    1    1    2    0    0 -0.65021649533E-01 -0.40585241687E-02  0.39560372395E+01  0.39565736677E+01  0.51109989000E-03 0. -1.
</event>
<event>
 6   3  0.2312675E+03  0.9118800E+02  0.7818608E-02  0.1180000E+00
       11   -1    0    0    0    0  0.00000000000E+00  0.00000000000E+00  0.54999999763E+01  0.55000000000E+01  0.51109989000E-03 0. -1.
     -623   -1    0    0    0    0  0.00000000000E+00  0.00000000000E+00  0.93234578044E-11  0.17124000000E+03  0.17124000000E+03 0. -1.
       11    1    1    2    0    0  0.63526959324E-01  0.31082967103E-01  0.10868779281E+01  0.10891766235E+01  0.51109989000E-03 0. -1.
     -623    1    1    2    0    0 -0.82912253228E-02 -0.20117743199E-02  0.28334469186E-02  0.17124000024E+03  0.17124000000E+03 0. -1.
     -611    1    1    2    0    0 -0.30130040052E-01  0.15103655557E-03  0.19130865399E+01  0.19133238650E+01  0.51109989000E-03 0.  1.
      611    1    1    2    0    0 -0.25105693949E-01 -0.29222229338E-01  0.24972020614E+01  0.24974992755E+01  0.51109989000E-03 0. -1.
</event>
<event>
 6   3  0.2312675E+03  0.9118800E+02  0.7818608E-02  0.1180000E+00
       11   -1    0    0    0    0  0.00000000000E+00  0.00000000000E+00  0.54999999763E+01  0.55000000000E+01  0.51109989000E-03 0. -1.
     -623   -1    0    0    0    0  0.00000000000E+00  0.00000000000E+00  0.93234578044E-11  0.17124000000E+03  0.17124000000E+03 0.  1.
       11    1    1    2    0    0 -0.89582197160E-01 -0.32970664661E-01  0.40552306928E+00  0.41660683590E+00  0.51109989000E-03 0. -1.
     -623    1    1    2    0    0  0.74168569397E-02 -0.56172245108E-01  0.12654359449E-01  0.17124000984E+03  0.17124000000E+03 0.  1.
     -611    1    1    2    0    0  0.49827381019E-01  0.35738192890E-01  0.20455333609E+01  0.20464522907E+01  0.51109989000E-03 0.  1.
      611    1    1    2    0    0  0.32337959201E-01  0.53404716879E-01  0.30362891867E+01  0.30369310321E+01  0.51109989000E-03 0. -1.
</event>
<event>
 6   3  0.2312675E+03  0.9118800E+02  0.7818608E-02  0.1180000E+00
       11   -1    0    0    0    0  0.00000000000E+00  0.00000000000E+00  0.54999999763E+01  0.55000000000E+01  0.51109989000E-03 0.  1.
     -623   -1    0    0    0    0  0.00000000000E+00  0.00000000000E+00  0.93234578044E-11  0.17124000000E+03  0.17124000000E+03 0.  1.
       11    1    1    2    0    0 -0.72753876615E-01 -0.44571464997E-02  0.90809706824E+00  0.91101785893E+00  0.51109989000E-03 0.  1.
     -623    1    1    2    0    0  0.14563508125E-01  0.18549952671E-01  0.33233548256E-02  0.17124000166E+03  0.17124000000E+03 0.  1.
     -611    1    1    2    0    0  0.45912669101E-01 -0.14322627889E-01  0.38175673586E+01  0.38178703369E+01  0.51109989000E-03 0.  1.
      611    1    1    2    0    0  0.12277699388E-01  0.22982171803E-03  0.77101219452E+00  0.77111014780E+00  0.51109989000E-03 0. -1.
</event>
<event>
 6   3  0.2312675E+03  0.9118800E+02  0.7818608E-02  0.1180000E+00
       11   -1    0    0    0    0  0.00000000000E+00  0.00000000000E+00  0.54999999763E+01  0.55000000000E+01  0.51109989000E-03 0.  1.
     -623   -1    0    0    0    0  0.00000000000E+00  0.00000000000E+00  0.93234578044E-11  0.17124000000E+03  0.17124000000E+03 0. -1.
       11    1    1    2    0    0  0.36434002727E-02 -0.32417162796E-02  0.50763678134E+00  0.50766046338E+00  0.51109989000E-03 0.  1.
     -623    1    1    2    0    0 -0.59385076000E-01  0.82993871643E-02  0.34830082392E-03  0.17124001050E+03  0.17124000000E+03 0. -1.
     -611    1    1    2    0    0  0.49805008122E-01 -0.47843495508E-02  0.44756772856E+01  0.44759569764E+01  0.51109989000E-03 0.  1.
      611    1    1    2    0    0  0.59366676419E-02 -0.27332133999E-03  0.51633761194E+00  0.51637206494E+00  0.51109989000E-03 0.  1.
</event>
<event>
 6   3  0.2312675E+03  0.9118800E+02  0.7818608E-02  0.1180000E+00
       11   -1    0    0    0    0  0.00000000000E+00  0.00000000000E+00  0.54999999763E+01  0.55000000000E+01  0.51109989000E-03 0.  1.
     -623   -1    0    0    0    0  0.00000000000E+00  0.00000000000E+00  0.93234578044E-11  0.17124000000E+03  0.17124000000E+03 0. -1.
       11    1    1    2    0    0  0.65666098735E-01  0.44883995949E-01  0.56309347425E+00  0.56868368324E+00  0.51109989000E-03 0.  1.
     -623    1    1    2    0    0 -0.51113962746E-02  0.10254029886E-01  0.62711454557E-02  0.17124000050E+03  0.17124000000E+03 0. -1.
     -611    1    1    2    0    0 -0.53102438361E-01 -0.47873854071E-01  0.43105995680E+01  0.43111924884E+01  0.51109989000E-03 0.  1.
      611    1    1    2    0    0 -0.74522641127E-02 -0.72641717769E-02  0.62003578964E+00  0.62012333136E+00  0.51109989000E-03 0.  1.
</event>
<event>
 6   3  0.2312675E+03  0.9118800E+02  0.7818608E-02  0.1180000E+00
       11   -1    0    0    0    0  0.00000000000E+00  0.00000000000E+00  0.54999999763E+01  0.55000000000E+01  0.51109989000E-03 0.  1.
     -623   -1    0    0    0    0  0.00000000000E+00  0.00000000000E+00  0.93234578044E-11  0.17124000000E+03  0.17124000000E+03 0.  1.
       11    1    1    2    0    0 -0.10399043043E-01 -0.10299212828E-01  0.52007569881E+00  0.52028185399E+00  0.51109989000E-03 0.  1.
     -623    1    1    2    0    0 -0.10883632249E-02  0.17368379839E-02  0.76030084266E-03  0.17124000001E+03  0.17124000000E+03 0.  1.
     -611    1    1    2    0    0 -0.27216459113E-01 -0.11247699788E-01  0.24925135011E+01  0.24926875177E+01  0.51109989000E-03 0. -1.
      611    1    1    2    0    0  0.38703865381E-01  0.19810074632E-01  0.24866504754E+01  0.24870306143E+01  0.51109989000E-03 0.  1.
</event>
<event>
 6   3  0.2312675E+03  0.9118800E+02  0.7818608E-02  0.1180000E+00
       11   -1    0    0    0    0  0.00000000000E+00  0.00000000000E+00  0.54999999763E+01  0.55000000000E+01  0.51109989000E-03 0. -1.
     -623   -1    0    0    0    0  0.00000000000E+00  0.00000000000E+00  0.93234578044E-11  0.17124000000E+03  0.17124000000E+03 0. -1.
       11    1    1    2    0    0  0.15026854686E-01  0.13771628328E-01  0.36546001832E+00  0.36602834633E+00  0.51109989000E-03 0. -1.
     -623    1    1    2    0    0 -0.35749710599E-01 -0.19077761232E-01  0.10121184745E-02  0.17124000480E+03  0.17124000000E+03 0. -1.
     -611    1    1    2    0    0 -0.21274427323E-01 -0.50085513276E-02  0.11802742788E+01  0.11804767348E+01  0.51109989000E-03 0.  1.
      611    1    1    2    0    0  0.41997283237E-01  0.10314684231E-01  0.39532535607E+01  0.39534901215E+01  0.51109989000E-03 0. -1.
</event>
<event>
 6   3  0.2312675E+03  0.9118800E+02  0.7818608E-02  0.1180000E+00
       11   -1    0    0    0    0  0.00000000000E+00  0.00000000000E+00  0.54999999763E+01  0.55000000000E+01  0.51109989000E-03 0.  1.
     -623   -1    0    0    0    0  0.00000000000E+00  0.00000000000E+00  0.93234578044E-11  0.17124000000E+03  0.17124000000E+03 0. -1.
       11    1    1    2    0    0  0.13647893948E-01  0.61980295581E-02  0.27559207416E+00  0.27599987888E+00  0.51109989000E-03 0. -1.
     -623    1    1    2    0    0 -0.10621435997E+00  0.38874014142E-02  0.12708116405E-02  0.17124003299E+03  0.17124000000E+03 0. -1.
     -611    1    1    2    0    0  0.32365842265E-01 -0.36831664489E-02  0.18253531612E+01  0.18256438694E+01  0.51109989000E-03 0.  1.
      611    1    1    2    0    0  0.60200623904E-01 -0.64022645396E-02  0.33977839376E+01  0.33983232707E+01  0.51109989000E-03 0.  1.
</event>
<event>
 6   3  0.2312675E+03  0.9118800E+02  0.7818608E-02  0.1180000E+00
       11   -1    0    0    0    0  0.00000000000E+00  0.00000000000E+00  0.54999999763E+01  0.55000000000E+01  0.51109989000E-03 0.  1.
     -623   -1    0    0    0    0  0.00000000000E+00  0.00000000000E+00  0.93234578044E-11  0.17124000000E+03  0.17124000000E+03 0.  1.
       11    1    1    2    0    0  0.60895139665E-01  0.92444950574E-01  0.49396892068E+00  0.50622114016E+00  0.51109989000E-03 0.  1.
     -623    1    1    2    0    0 -0.23014219251E-01  0.68931882091E-02  0.13833336619E-01  0.17124000224E+03  0.17124000000E+03 0.  1.
     -611    1    1    2    0    0  0.14161051131E-01 -0.10254753858E-01  0.13644160600E+01  0.13645281754E+01  0.51109989000E-03 0. -1.
      611    1    1    2    0    0 -0.52041971544E-01 -0.89083384925E-01  0.36277816589E+01  0.36292484404E+01  0.51109989000E-03 0.  1.
</event>
<event>
 6   3  0.2312675E+03  0.9118800E+02  0.7818608E-02  0.1180000E+00
       11   -1    0    0    0    0  0.00000000000E+00  0.00000000000E+00  0.54999999763E+01  0.55000000000E+01  0.51109989000E-03 0. -1.
     -623   -1    0    0    0    0  0.00000000000E+00  0.00000000000E+00  0.93234578044E-11  0.17124000000E+03  0.17124000000E+03 0.  1.
       11    1    1    2    0    0 -0.55422834559E-02  0.37043397727E-02  0.95247331309E+00  0.95249677816E+00  0.51109989000E-03 0. -1.
     -623    1    1    2    0    0  0.62338264219E-01  0.48789286113E-01  0.70003490295E-03  0.17124001830E+03  0.17124000000E+03 0.  1.
     -611    1    1    2    0    0 -0.25897964967E-01 -0.24601545635E-01  0.21537098093E+01  0.21540060689E+01  0.51109989000E-03 0.  1.
      611    1    1    2    0    0 -0.30898015823E-01 -0.27892080272E-01  0.23931168212E+01  0.23934788565E+01  0.51109989000E-03 0. -1.
</event>
<event>
 6   3  0.2312675E+03  0.9118800E+02  0.7818608E-02  0.1180000E+00
       11   -1    0    0    0    0  0.00000000000E+00  0.00000000000E+00  0.54999999763E+01  0.55000000000E+01  0.51109989000E-03 0.  1.
     -623   -1    0    0    0    0  0.00000000000E+00  0.00000000000E+00  0.93234578044E-11  0.17124000000E+03  0.17124000000E+03 0.  1.
       11    1    1    2    0    0  0.25012022714E-01  0.54741324754E-01  0.72510252530E-01  0.94234876034E-01  0.51109989000E-03 0.  1.
     -623    1    1    2    0    0  0.38912308366E-01  0.45348249167E-03  0.22435484751E-01  0.17124000589E+03  0.17124000000E+03 0.  1.
     -611    1    1    2    0    0 -0.10673471557E-01 -0.14280999726E-01  0.70655310458E+00  0.70677819771E+00  0.51109989000E-03 0. -1.
      611    1    1    2    0    0 -0.53250859523E-01 -0.40913807519E-01  0.46985011344E+01  0.46989810347E+01  0.51109989000E-03 0.  1.
</event>
<event>
 6   3  0.2312675E+03  0.9118800E+02  0.7818608E-02  0.1180000E+00
       11   -1    0    0    0    0  0.00000000000E+00  0.00000000000E+00  0.54999999763E+01  0.55000000000E+01  0.51109989000E-03 0. -1.
     -623   -1    0    0    0    0  0.00000000000E+00  0.00000000000E+00  0.93234578044E-11  0.17124000000E+03  0.17124000000E+03 0. -1.
       11    1    1    2    0    0  0.33994788343E-01 -0.43847751327E-01  0.47464030707E+00  0.47787231898E+00  0.51109989000E-03 0. -1.
     -623    1    1    2    0    0  0.20491255183E-01 -0.60981014701E-01  0.46359931817E-02  0.17124001215E+03  0.17124000000E+03 0. -1.
     -611    1    1    2    0    0 -0.39675674570E-01  0.77196634494E-01  0.37669435983E+01  0.37679434461E+01  0.51109989000E-03 0. -1.
      611    1    1    2    0    0 -0.14810368961E-01  0.27632131545E-01  0.12537800783E+01  0.12541720885E+01  0.51109989000E-03 0.  1.
</event>
<event>
 6   3  0.2312675E+03  0.9118800E+02  0.7818608E-02  0.1180000E+00
       11   -1    0    0    0    0  0.00000000000E+00  0.00000000000E+00  0.54999999763E+01  0.55000000000E+01  0.51109989000E-03 0.  1.
     -623   -1    0    0    0    0  0.00000000000E+00  0.00000000000E+00  0.93234578044E-11  0.17124000000E+03  0.17124000000E+03 0.  1.
       11    1    1    2    0    0 -0.49733997739E-01  0.34680294362E-01  0.28983121092E+00  0.29610569970E+00  0.51109989000E-03 0.  1.
     -623    1    1    2    0    0 -0.30790378553E-01  0.31241433704E-01  0.73214579332E-02  0.17124000577E+03  0.17124000000E+03 0.  1.
     -611    1    1    2    0    0  0.41925487293E-01 -0.35587440636E-01  0.27730944949E+01  0.27736397659E+01  0.51109989000E-03 0.  1.
      611    1    1    2    0    0  0.38598888957E-01 -0.30334287395E-01  0.24297528098E+01  0.24302487570E+01  0.51109989000E-03 0.  1.
</event>
<event>
 6   3  0.2312675E+03  0.9118800E+02  0.7818608E-02  0.1180000E+00
       11   -1    0    0    0    0  0.00000000000E+00  0.00000000000E+00  0.54999999763E+01  0.55000000000E+01  0.51109989000E-03 0.  1.
     -623   -1    0    0    0    0  0.00000000000E+00  0.00000000000E+00  0.93234578044E-11  0.17124000000E+03  0.17124000000E+03 0. -1.
       11    1    1    2    0    0  0.97402277056E-01 -0.19252423199E-01  0.78934713739E+00  0.79556710836E+00  0.51109989000E-03 0.  1.
     -623    1    1    2    0    0 -0.86820730757E-02  0.16031055071E-01  0.70621329885E-02  0.17124000112E+03  0.17124000000E+03 0. -1.
     -611    1    1    2    0    0 -0.40230996919E-01  0.31031791555E-02  0.20214237681E+01  0.20218265193E+01  0.51109989000E-03 0.  1.
      611    1    1    2    0    0 -0.48489207055E-01  0.11818897229E-03  0.26821669375E+01  0.26826052559E+01  0.51109989000E-03 0. -1.
</event>
<event>
 6   3  0.2312675E+03  0.9118800E+02  0.7818608E-02  0.1180000E+00
       11   -1    0    0    0    0  0.00000000000E+00  0.00000000000E+00  0.54999999763E+01  0.55000000000E+01  0.51109989000E-03 0. -1.
     -623   -1    0    0    0    0  0.00000000000E+00  0.00000000000E+00  0.93234578044E-11  0.17124000000E+03  0.17124000000E+03 0.  1.
       11    1    1    2    0    0  0.59080293766E-02  0.27257983729E-02  0.92946560081E-02  0.11357228592E-01  0.51109989000E-03 0. -1.
     -623    1    1    2    0    0 -0.60036428656E-02 -0.25468149956E-03  0.32687615257E-02  0.17124000014E+03  0.17124000000E+03 0.  1.
     -611    1    1    2    0    0  0.43757447739E-01  0.14189613888E-01  0.43539139192E+01  0.43541569490E+01  0.51109989000E-03 0. -1.
      611    1    1    2    0    0 -0.43661834250E-01 -0.16660730761E-01  0.11335226395E+01  0.11344856857E+01  0.51109989000E-03 0.  1.
</event>
<event>
 6   3  0.2312675E+03  0.9118800E+02  0.7818608E-02  0.1180000E+00
       11   -1    0    0    0    0  0.00000000000E+00  0.00000000000E+00  0.54999999763E+01  0.55000000000E+01  0.51109989000E-03 0. -1.
     -623   -1    0    0    0    0  0.00000000000E+00  0.00000000000E+00  0.93234578044E-11  0.17124000000E+03  0.17124000000E+03 0. -1.
       11    1    1    2    0    0  0.26411117635E-01  0.26262178738E-02  0.10195227739E+01  0.10198683208E+01  0.51109989000E-03 0. -1.
     -623    1    1    2    0    0 -0.64287069446E-02  0.15495034702E-01  0.95331648952E-03  0.17124000082E+03  0.17124000000E+03 0. -1.
     -611    1    1    2    0    0 -0.40341679368E-01 -0.12090220660E-01  0.38839425128E+01  0.38841708676E+01  0.51109989000E-03 0. -1.
      611    1    1    2    0    0  0.20359268678E-01 -0.60310319164E-02  0.59558137326E+00  0.59595998738E+00  0.51109989000E-03 0.  1.
</event>
<event>
 6   3  0.2312675E+03  0.9118800E+02  0.7818608E-02  0.1180000E+00
       11   -1    0    0    0    0  0.00000000000E+00  0.00000000000E+00  0.54999999763E+01  0.55000000000E+01  0.51109989000E-03 0. -1.
     -623   -1    0    0    0    0  0.00000000000E+00  0.00000000000E+00  0.93234578044E-11  0.17124000000E+03  0.17124000000E+03 0.  1.
       11    1    1    2    0    0  0.70345662782E-01 -0.11715660244E-02  0.88532510732E+00  0.88811637284E+00  0.51109989000E-03 0. -1.
     -623    1    1    2    0    0 -0.71656455099E-03  0.22889650338E-01  0.33731813748E-02  0.17124000156E+03  0.17124000000E+03 0.  1.
     -611    1    1    2    0    0 -0.59494830883E-01 -0.20038205179E-01  0.40406730090E+01  0.40411606986E+01  0.51109989000E-03 0. -1.
      611    1    1    2    0    0 -0.10134267356E-01 -0.16798791372E-02  0.57062867906E+00  0.57072136456E+00  0.51109989000E-03 0.  1.
</event>
<event>
 6   3  0.2312675E+03  0.9118800E+02  0.7818608E-02  0.1180000E+00
       11   -1    0    0    0    0  0.00000000000E+00  0.00000000000E+00  0.54999999763E+01  0.55000000000E+01  0.51109989000E-03 0.  1.
     -623   -1    0    0    0    0  0.00000000000E+00  0.00000000000E+00  0.93234578044E-11  0.17124000000E+03  0.17124000000E+03 0.  1.
       11    1    1    2    0    0  0.15157366371E-01 -0.51342626685E-01  0.49751405844E+00  0.50038616152E+00  0.51109989000E-03 0.  1.
     -623    1    1    2    0    0 -0.54353628269E-02  0.17224789381E-01  0.34644696818E-02  0.17124000099E+03  0.17124000000E+03 0.  1.
     -611    1    1    2    0    0 -0.35860458076E-01  0.10117117830E-01  0.33634090045E+01  0.33636154241E+01  0.51109989000E-03 0.  1.
      611    1    1    2    0    0  0.26138454532E-01  0.24000719474E-01  0.16356124437E+01  0.16359974268E+01  0.51109989000E-03 0. -1.
</event>
<event>
 6   3  0.2312675E+03  0.9118800E+02  0.7818608E-02  0.1180000E+00
       11   -1    0    0    0    0  0.00000000000E+00  0.00000000000E+00  0.54999999763E+01  0.55000000000E+01  0.51109989000E-03 0. -1.
     -623   -1    0    0    0    0  0.00000000000E+00  0.00000000000E+00  0.93234578044E-11  0.17124000000E+03  0.17124000000E+03 0. -1.
       11    1    1    2    0    0 -0.41636153060E-02 -0.20117466499E-01  0.33460340339E+00  0.33523386901E+00  0.51109989000E-03 0. -1.
     -623    1    1    2    0    0  0.17296550880E-01  0.32146038204E-01  0.30274137954E-02  0.17124000392E+03  0.17124000000E+03 0. -1.
     -611    1    1    2    0    0 -0.75983729633E-01 -0.38746485148E-01  0.34012426498E+01  0.34023119553E+01  0.51109989000E-03 0.  1.
      611    1    1    2    0    0  0.62850794059E-01  0.26717913444E-01  0.17611265093E+01  0.17624502580E+01  0.51109989000E-03 0. -1.
</event>
<event>
 6   3  0.2312675E+03  0.9118800E+02  0.7818608E-02  0.1180000E+00
       11   -1    0    0    0    0  0.00000000000E+00  0.00000000000E+00  0.54999999763E+01  0.55000000000E+01  0.51109989000E-03 0.  1.
     -623   -1    0    0    0    0  0.00000000000E+00  0.00000000000E+00  0.93234578044E-11  0.17124000000E+03  0.17124000000E+03 0. -1.
       11    1    1    2    0    0  0.12596174472E-01 -0.76374479691E-02  0.37544342568E+00  0.37573264608E+00  0.51109989000E-03 0.  1.
     -623    1    1    2    0    0 -0.16332093144E-01 -0.56838657432E-02  0.11643992065E-02  0.17124000088E+03  0.17124000000E+03 0. -1.
     -611    1    1    2    0    0  0.45735087201E-01  0.72163377264E-02  0.35499585758E+01  0.35502605432E+01  0.51109989000E-03 0. -1.
      611    1    1    2    0    0 -0.41999168529E-01  0.61049759862E-02  0.15734335757E+01  0.15740059337E+01  0.51109989000E-03 0.  1.
</event>
<event>
 6   3  0.2312675E+03  0.9118800E+02  0.7818608E-02  0.1180000E+00
       11   -1    0    0    0    0  0.00000000000E+00  0.00000000000E+00  0.54999999763E+01  0.55000000000E+01  0.51109989000E-03 0. -1.
     -623   -1    0    0    0    0  0.00000000000E+00  0.00000000000E+00  0.93234578044E-11  0.17124000000E+03  0.17124000000E+03 0.  1.
       11    1    1    2    0    0 -0.80916207482E-01 -0.14740107888E+00  0.42696743856E+00  0.45888556907E+00  0.51109989000E-03 0. -1.
     -623    1    1    2    0    0 -0.58124409229E-02  0.53420829037E-01  0.33555631785E-01  0.17124001172E+03  0.17124000000E+03 0.  1.
     -611    1    1    2    0    0  0.13294167932E-01  0.17564157187E-01  0.88104723122E+00  0.88132271013E+00  0.51109989000E-03 0. -1.
      611    1    1    2    0    0  0.73434480480E-01  0.76416092666E-01  0.41584296751E+01  0.41597800022E+01  0.51109989000E-03 0.  1.
</event>
<event>
 6   3  0.2312675E+03  0.9118800E+02  0.7818608E-02  0.1180000E+00
       11   -1    0    0    0    0  0.00000000000E+00  0.00000000000E+00  0.54999999763E+01  0.55000000000E+01  0.51109989000E-03 0. -1.
     -623   -1    0    0    0    0  0.00000000000E+00  0.00000000000E+00  0.93234578044E-11  0.17124000000E+03  0.17124000000E+03 0.  1.
       11    1    1    2    0    0 -0.73674978852E-01  0.27909434338E-01  0.60177569379E+00  0.60691118452E+00  0.51109989000E-03 0. -1.
     -623    1    1    2    0    0 -0.71335918582E-02 -0.68472560446E-02  0.58499714058E-02  0.17124000039E+03  0.17124000000E+03 0.  1.
     -611    1    1    2    0    0  0.32322584208E-01 -0.75616143077E-02  0.18530588740E+01  0.18533562473E+01  0.51109989000E-03 0.  1.
      611    1    1    2    0    0  0.48485986496E-01 -0.13500563984E-01  0.30393154367E+01  0.30397321824E+01  0.51109989000E-03 0. -1.
</event>
<event>
 6   3  0.2312675E+03  0.9118800E+02  0.7818608E-02  0.1180000E+00
       11   -1    0    0    0    0  0.00000000000E+00  0.00000000000E+00  0.54999999763E+01  0.55000000000E+01  0.51109989000E-03 0. -1.
     -623   -1    0    0    0    0  0.00000000000E+00  0.00000000000E+00  0.93234578044E-11  0.17124000000E+03  0.17124000000E+03 0. -1.
       11    1    1    2    0    0  0.32507899624E-01 -0.50865196561E-02  0.26875647521E+00  0.27076362461E+00  0.51109989000E-03 0. -1.
     -623    1    1    2    0    0 -0.17853368690E-01 -0.33305876924E-02  0.36061351058E-02  0.17124000100E+03  0.17124000000E+03 0. -1.
     -611    1    1    2    0    0  0.51846961175E-01 -0.55744020099E-02  0.32762248859E+01  0.32766398865E+01  0.51109989000E-03 0. -1.
      611    1    1    2    0    0 -0.66501492109E-01  0.13991509358E-01  0.19514124800E+01  0.19525954879E+01  0.51109989000E-03 0.  1.
</event>
<event>
 6   3  0.2312675E+03  0.9118800E+02  0.7818608E-02  0.1180000E+00
       11   -1    0    0    0    0  0.00000000000E+00  0.00000000000E+00  0.54999999763E+01  0.55000000000E+01  0.51109989000E-03 0. -1.
     -623   -1    0    0    0    0  0.00000000000E+00  0.00000000000E+00  0.93234578044E-11  0.17124000000E+03  0.17124000000E+03 0.  1.
       11    1    1    2    0    0 -0.17893560870E-01 -0.64669253073E-02  0.10948067242E+01  0.10949721573E+01  0.51109989000E-03 0. -1.
     -623    1    1    2    0    0 -0.37271029082E-02  0.10359605206E-03  0.15733459915E-02  0.17124000005E+03  0.17124000000E+03 0.  1.
     -611    1    1    2    0    0 -0.25115859785E-01  0.43603499578E-01  0.23489881865E+01  0.23495271510E+01  0.51109989000E-03 0. -1.
      611    1    1    2    0    0  0.46736523562E-01 -0.37240170323E-01  0.20546317194E+01  0.20555006437E+01  0.51109989000E-03 0.  1.
</event>
<event>
 6   3  0.2312675E+03  0.9118800E+02  0.7818608E-02  0.1180000E+00
       11   -1    0    0    0    0  0.00000000000E+00  0.00000000000E+00  0.54999999763E+01  0.55000000000E+01  0.51109989000E-03 0.  1.
     -623   -1    0    0    0    0  0.00000000000E+00  0.00000000000E+00  0.93234578044E-11  0.17124000000E+03  0.17124000000E+03 0.  1.
       11    1    1    2    0    0  0.10081191799E+00  0.91113026632E-01  0.73962237605E+00  0.75200142740E+00  0.51109989000E-03 0.  1.
     -623    1    1    2    0    0  0.52907559012E-02 -0.24536991765E-01  0.14040645457E-01  0.17124000242E+03  0.17124000000E+03 0.  1.
     -611    1    1    2    0    0 -0.66650245700E-01 -0.40732001523E-01  0.30969933104E+01  0.30979782402E+01  0.51109989000E-03 0.  1.
      611    1    1    2    0    0 -0.39452428195E-01 -0.25844033345E-01  0.16493436445E+01  0.16500179171E+01  0.51109989000E-03 0. -1.
</event>
<event>
 6   3  0.2312675E+03  0.9118800E+02  0.7818608E-02  0.1180000E+00
       11   -1    0    0    0    0  0.00000000000E+00  0.00000000000E+00  0.54999999763E+01  0.55000000000E+01  0.51109989000E-03 0.  1.
     -623   -1    0    0    0    0  0.00000000000E+00  0.00000000000E+00  0.93234578044E-11  0.17124000000E+03  0.17124000000E+03 0.  1.
       11    1    1    2    0    0 -0.84884013062E-02 -0.50081686495E-02  0.65263971065E-01  0.66005922857E-01  0.51109989000E-03 0.  1.
     -623    1    1    2    0    0  0.27269310035E-02  0.32968489981E-02  0.29014223459E-02  0.17124000008E+03  0.17124000000E+03 0.  1.
     -611    1    1    2    0    0  0.66427639520E-01 -0.22637523440E-01  0.15266240602E+01  0.15282363597E+01  0.51109989000E-03 0. -1.
      611    1    1    2    0    0 -0.60666169217E-01  0.24348843092E-01  0.39052105227E+01  0.39057576394E+01  0.51109989000E-03 0.  1.
</event>
<event>
 6   3  0.2312675E+03  0.9118800E+02  0.7818608E-02  0.1180000E+00
       11   -1    0    0    0    0  0.00000000000E+00  0.00000000000E+00  0.54999999763E+01  0.55000000000E+01  0.51109989000E-03 0.  1.
     -623   -1    0    0    0    0  0.00000000000E+00  0.00000000000E+00  0.93234578044E-11  0.17124000000E+03  0.17124000000E+03 0.  1.
       11    1    1    2    0    0  0.39082314396E-01  0.93536306152E-02  0.46952778164E+00  0.47124464629E+00  0.51109989000E-03 0.  1.
     -623    1    1    2    0    0  0.25973340507E-01  0.90655544995E-03  0.21521997238E-02  0.17124000199E+03  0.17124000000E+03 0.  1.
     -611    1    1    2    0    0 -0.22777400094E-01 -0.18787230956E-02  0.16469628819E+01  0.16471215302E+01  0.51109989000E-03 0. -1.
      611    1    1    2    0    0 -0.42278254807E-01 -0.83814629692E-02  0.33813571129E+01  0.33816318377E+01  0.51109989000E-03 0.  1.
</event>
<event>
 6   3  0.2312675E+03  0.9118800E+02  0.7818608E-02  0.1180000E+00
       11   -1    0    0    0    0  0.00000000000E+00  0.00000000000E+00  0.54999999763E+01  0.55000000000E+01  0.51109989000E-03 0.  1.
     -623   -1    0    0    0    0  0.00000000000E+00  0.00000000000E+00  0.93234578044E-11  0.17124000000E+03  0.17124000000E+03 0. -1.
       11    1    1    2    0    0  0.48000731276E-01  0.42138398824E-01  0.76744756641E+00  0.77010112536E+00  0.51109989000E-03 0.  1.
     -623    1    1    2    0    0 -0.34750659298E-02 -0.59136098543E-02  0.67336423565E-02  0.17124000027E+03  0.17124000000E+03 0. -1.
     -611    1    1    2    0    0 -0.64257406017E-01 -0.10596819682E+00  0.29809870799E+01  0.29835620497E+01  0.51109989000E-03 0. -1.
      611    1    1    2    0    0  0.19731740671E-01  0.69743407846E-01  0.17448316876E+01  0.17463365551E+01  0.51109989000E-03 0.  1.
</event>
<event>
 6   3  0.2312675E+03  0.9118800E+02  0.7818608E-02  0.1180000E+00
       11   -1    0    0    0    0  0.00000000000E+00  0.00000000000E+00  0.54999999763E+01  0.55000000000E+01  0.51109989000E-03 0.  1.
     -623   -1    0    0    0    0  0.00000000000E+00  0.00000000000E+00  0.93234578044E-11  0.17124000000E+03  0.17124000000E+03 0.  1.
       11    1    1    2    0    0  0.76665403027E-02 -0.32972621297E-02  0.67629686952E+00  0.67634855269E+00  0.51109989000E-03 0.  1.
     -623    1    1    2    0    0 -0.60893397384E-01  0.15726756839E-01  0.37348981789E-03  0.17124001155E+03  0.17124000000E+03 0.  1.
     -611    1    1    2    0    0  0.99868547108E-02 -0.28840881071E-02  0.96914656493E+00  0.96920244571E+00  0.51109989000E-03 0. -1.
      611    1    1    2    0    0  0.43240002862E-01 -0.95454067281E-02  0.38541830964E+01  0.38544374965E+01  0.51109989000E-03 0.  1.
</event>
<event>
 6   3  0.2312675E+03  0.9118800E+02  0.7818608E-02  0.1180000E+00
       11   -1    0    0    0    0  0.00000000000E+00  0.00000000000E+00  0.54999999763E+01  0.55000000000E+01  0.51109989000E-03 0.  1.
     -623   -1    0    0    0    0  0.00000000000E+00  0.00000000000E+00  0.93234578044E-11  0.17124000000E+03  0.17124000000E+03 0. -1.
       11    1    1    2    0    0  0.35002755078E-01  0.11295202243E-01  0.98844022750E+00  0.98912442040E+00  0.51109989000E-03 0.  1.
     -623    1    1    2    0    0  0.21859714944E-01 -0.27854500271E-02  0.10525037326E-02  0.17124000142E+03  0.17124000000E+03 0. -1.
     -611    1    1    2    0    0 -0.11728830105E-01 -0.24269066429E-02  0.94688954741E+00  0.94696543314E+00  0.51109989000E-03 0.  1.
      611    1    1    2    0    0 -0.45133639951E-01 -0.60828455784E-02  0.35636177003E+01  0.35639087280E+01  0.51109989000E-03 0. -1.
</event>
<event>
 6   3  0.2312675E+03  0.9118800E+02  0.7818608E-02  0.1180000E+00
       11   -1    0    0    0    0  0.00000000000E+00  0.00000000000E+00  0.54999999763E+01  0.55000000000E+01  0.51109989000E-03 0.  1.
     -623   -1    0    0    0    0  0.00000000000E+00  0.00000000000E+00  0.93234578044E-11  0.17124000000E+03  0.17124000000E+03 0. -1.
       11    1    1    2    0    0  0.96795289499E-02 -0.21855583436E-01  0.94863915922E+00  0.94894039615E+00  0.51109989000E-03 0.  1.
     -623    1    1    2    0    0  0.67766488814E-01  0.57511188042E-02  0.10047982760E-02  0.17124001351E+03  0.17124000000E+03 0. -1.
     -611    1    1    2    0    0 -0.49965247059E-01  0.12073095227E-01  0.28647078863E+01  0.28651690737E+01  0.51109989000E-03 0.  1.
      611    1    1    2    0    0 -0.27480770702E-01  0.40313694029E-02  0.16856481323E+01  0.16858770216E+01  0.51109989000E-03 0. -1.
</event>
<event>
 6   3  0.2312675E+03  0.9118800E+02  0.7818608E-02  0.1180000E+00
       11   -1    0    0    0    0  0.00000000000E+00  0.00000000000E+00  0.54999999763E+01  0.55000000000E+01  0.51109989000E-03 0. -1.
     -623   -1    0    0    0    0  0.00000000000E+00  0.00000000000E+00  0.93234578044E-11  0.17124000000E+03  0.17124000000E+03 0.  1.
       11    1    1    2    0    0  0.10530359134E-01  0.21518448388E-01  0.32590363025E+00  0.32678336787E+00  0.51109989000E-03 0. -1.
     -623    1    1    2    0    0 -0.49392010672E-02 -0.13362289628E-01  0.18740520925E-02  0.17124000060E+03  0.17124000000E+03 0.  1.
     -611    1    1    2    0    0  0.41188874165E-01 -0.88818564449E-02  0.12408038012E+01  0.12415191279E+01  0.51109989000E-03 0. -1.
      611    1    1    2    0    0 -0.46780032232E-01  0.72569768538E-03  0.39314184927E+01  0.39316969014E+01  0.51109989000E-03 0.  1.
</event>
<event>
 6   3  0.2312675E+03  0.9118800E+02  0.7818608E-02  0.1180000E+00
       11   -1    0    0    0    0  0.00000000000E+00  0.00000000000E+00  0.54999999763E+01  0.55000000000E+01  0.51109989000E-03 0. -1.
     -623   -1    0    0    0    0  0.00000000000E+00  0.00000000000E+00  0.93234578044E-11  0.17124000000E+03  0.17124000000E+03 0.  1.
       11    1    1    2    0    0  0.36272166179E-02 -0.78056239618E-02  0.32754004661E+00  0.32765351795E+00  0.51109989000E-03 0. -1.
     -623    1    1    2    0    0 -0.76555136682E-01  0.10942694870E+00  0.16789393520E-02  0.17124005208E+03  0.17124000000E+03 0.  1.
     -611    1    1    2    0    0  0.19310453068E-01 -0.25308440488E-01  0.13412339471E+01  0.13416117817E+01  0.51109989000E-03 0.  1.
      611    1    1    2    0    0  0.53617466728E-01 -0.76312883871E-01  0.38295470240E+01  0.38306825970E+01  0.51109989000E-03 0. -1.
</event>
<event>
 6   3  0.2312675E+03  0.9118800E+02  0.7818608E-02  0.1180000E+00
       11   -1    0    0    0    0  0.00000000000E+00  0.00000000000E+00  0.54999999763E+01  0.55000000000E+01  0.51109989000E-03 0. -1.
     -623   -1    0    0    0    0  0.00000000000E+00  0.00000000000E+00  0.93234578044E-11  0.17124000000E+03  0.17124000000E+03 0. -1.
       11    1    1    2    0    0 -0.51095013010E-02  0.99620672118E-02  0.31190181313E-01  0.33142697840E-01  0.51109989000E-03 0. -1.
     -623    1    1    2    0    0 -0.95234958518E-03 -0.37113093800E-02  0.24234761530E-02  0.17124000006E+03  0.17124000000E+03 0. -1.
     -611    1    1    2    0    0 -0.27705355032E-01 -0.19848701833E-01  0.21359865738E+01  0.21362585195E+01  0.51109989000E-03 0.  1.
      611    1    1    2    0    0  0.33767205919E-01  0.13597944001E-01  0.33303997450E+01  0.33305987226E+01  0.51109989000E-03 0. -1.
</event>
<event>
 6   3  0.2312675E+03  0.9118800E+02  0.7818608E-02  0.1180000E+00
       11   -1    0    0    0    0  0.00000000000E+00  0.00000000000E+00  0.54999999763E+01  0.55000000000E+01  0.51109989000E-03 0. -1.
     -623   -1    0    0    0    0  0.00000000000E+00  0.00000000000E+00  0.93234578044E-11  0.17124000000E+03  0.17124000000E+03 0.  1.
       11    1    1    2    0    0 -0.26168301675E-01 -0.50838116290E-01  0.21045529889E+00  0.21808481867E+00  0.51109989000E-03 0. -1.
     -623    1    1    2    0    0 -0.37229112231E-03  0.77324512016E-02  0.87734369447E-02  0.17124000040E+03  0.17124000000E+03 0.  1.
     -611    1    1    2    0    0  0.61308301539E-01  0.15247304326E-01  0.35937349700E+01  0.35942902615E+01  0.51109989000E-03 0. -1.
      611    1    1    2    0    0 -0.34767708742E-01  0.27858360762E-01  0.16870362705E+01  0.16876245201E+01  0.51109989000E-03 0.  1.
</event>
<event>
 6   3  0.2312675E+03  0.9118800E+02  0.7818608E-02  0.1180000E+00
       11   -1    0    0    0    0  0.00000000000E+00  0.00000000000E+00  0.54999999763E+01  0.55000000000E+01  0.51109989000E-03 0. -1.
     -623   -1    0    0    0    0  0.00000000000E+00  0.00000000000E+00  0.93234578044E-11  0.17124000000E+03  0.17124000000E+03 0. -1.
       11    1    1    2    0    0 -0.75265545815E-02 -0.51208103507E-01  0.86011567819E+00  0.86167172402E+00  0.51109989000E-03 0. -1.
     -623    1    1    2    0    0  0.31638890841E-01 -0.13343602798E-01  0.85698436460E-02  0.17124000366E+03  0.17124000000E+03 0. -1.
     -611    1    1    2    0    0  0.35171306879E-01  0.14407266599E+00  0.32939755877E+01  0.32973124492E+01  0.51109989000E-03 0.  1.
      611    1    1    2    0    0 -0.59283643138E-01 -0.79520959684E-01  0.13373388667E+01  0.13410121696E+01  0.51109989000E-03 0. -1.
</event>
<event>
 6   3  0.2312675E+03  0.9118800E+02  0.7818608E-02  0.1180000E+00
       11   -1    0    0    0    0  0.00000000000E+00  0.00000000000E+00  0.54999999763E+01  0.55000000000E+01  0.51109989000E-03 0. -1.
     -623   -1    0    0    0    0  0.00000000000E+00  0.00000000000E+00  0.93234578044E-11  0.17124000000E+03  0.17124000000E+03 0.  1.
       11    1    1    2    0    0 -0.97481029455E-02  0.69949056308E-02  0.14821527377E+00  0.14870098459E+00  0.51109989000E-03 0. -1.
     -623    1    1    2    0    0  0.96252103077E-03 -0.31661590392E-02  0.21011331773E-02  0.17124000004E+03  0.17124000000E+03 0.  1.
     -611    1    1    2    0    0  0.63979327711E-01 -0.28737881116E-01  0.31593022557E+01  0.31600807307E+01  0.51109989000E-03 0. -1.
      611    1    1    2    0    0 -0.55193745796E-01  0.24909134524E-01  0.21903813136E+01  0.21912182399E+01  0.51109989000E-03 0.  1.
</event>
<event>
 6   3  0.2312675E+03  0.9118800E+02  0.7818608E-02  0.1180000E+00
       11   -1    0    0    0    0  0.00000000000E+00  0.00000000000E+00  0.54999999763E+01  0.55000000000E+01  0.51109989000E-03 0. -1.
     -623   -1    0    0    0    0  0.00000000000E+00  0.00000000000E+00  0.93234578044E-11  0.17124000000E+03  0.17124000000E+03 0. -1.
       11    1    1    2    0    0  0.57837553602E-03 -0.39165687431E-03  0.10067681379E-01  0.10104817901E-01  0.51109989000E-03 0. -1.
     -623    1    1    2    0    0 -0.77925058614E-03 -0.12377049386E-02  0.56397826810E-03  0.17124000001E+03  0.17124000000E+03 0. -1.
     -611    1    1    2    0    0 -0.37266950936E-01  0.74783842506E-02  0.29004633111E+01  0.29007124008E+01  0.51109989000E-03 0. -1.
      611    1    1    2    0    0  0.37467825986E-01 -0.58490224377E-02  0.25889050055E+01  0.25891827741E+01  0.51109989000E-03 0.  1.
</event>
<event>
 6   3  0.2312675E+03  0.9118800E+02  0.7818608E-02  0.1180000E+00
       11   -1    0    0    0    0  0.00000000000E+00  0.00000000000E+00  0.54999999763E+01  0.55000000000E+01  0.51109989000E-03 0. -1.
     -623   -1    0    0    0    0  0.00000000000E+00  0.00000000000E+00  0.93234578044E-11  0.17124000000E+03  0.17124000000E+03 0.  1.
       11    1    1    2    0    0 -0.11805232233E-01 -0.82162749254E-03  0.93969823861E+00  0.93977288716E+00  0.51109989000E-03 0. -1.
     -623    1    1    2    0    0  0.75988202885E-01  0.60102033028E-03  0.54344961767E-03  0.17124001686E+03  0.17124000000E+03 0.  1.
     -611    1    1    2    0    0 -0.49575824656E-01  0.26683488220E-03  0.34939226116E+01  0.34942743612E+01  0.51109989000E-03 0. -1.
      611    1    1    2    0    0 -0.14607147121E-01 -0.46227729183E-04  0.10658357579E+01  0.10659359714E+01  0.51109989000E-03 0. -1.
</event>
<event>
 6   3  0.2312675E+03  0.9118800E+02  0.7818608E-02  0.1180000E+00
       11   -1    0    0    0    0  0.00000000000E+00  0.00000000000E+00  0.54999999763E+01  0.55000000000E+01  0.51109989000E-03 0. -1.
     -623   -1    0    0    0    0  0.00000000000E+00  0.00000000000E+00  0.93234578044E-11  0.17124000000E+03  0.17124000000E+03 0.  1.
       11    1    1    2    0    0 -0.50830229864E-01  0.75454778315E-03  0.97023010123E+00  0.97156111088E+00  0.51109989000E-03 0. -1.
     -623    1    1    2    0    0 -0.10101509708E-02  0.87041551888E-03  0.16282664999E-02  0.17124000001E+03  0.17124000000E+03 0.  1.
     -611    1    1    2    0    0  0.18583238997E-01 -0.72681505562E-03  0.15836026787E+01  0.15837119594E+01  0.51109989000E-03 0. -1.
      611    1    1    2    0    0  0.33257141830E-01 -0.89814824616E-03  0.29445389291E+01  0.29447269161E+01  0.51109989000E-03 0. -1.
</event>
<event>
 6   3  0.2312675E+03  0.9118800E+02  0.7818608E-02  0.1180000E+00
       11   -1    0    0    0    0  0.00000000000E+00  0.00000000000E+00  0.54999999763E+01  0.55000000000E+01  0.51109989000E-03 0. -1.
     -623   -1    0    0    0    0  0.00000000000E+00  0.00000000000E+00  0.93234578044E-11  0.17124000000E+03  0.17124000000E+03 0. -1.
       11    1    1    2    0    0  0.17848468150E-01 -0.76020382898E-02  0.19491711463E+00  0.19588083521E+00  0.51109989000E-03 0. -1.
     -623    1    1    2    0    0 -0.77163077239E-01 -0.72317997538E-01  0.20949423022E-02  0.17124003267E+03  0.17124000000E+03 0. -1.
     -611    1    1    2    0    0  0.28516860401E-01  0.55761595802E-01  0.23328774091E+01  0.23337180279E+01  0.51109989000E-03 0. -1.
      611    1    1    2    0    0  0.30797748688E-01  0.24158440027E-01  0.29701105103E+01  0.29703684681E+01  0.51109989000E-03 0.  1.
</event>
<event>
 6   3  0.2312675E+03  0.9118800E+02  0.7818608E-02  0.1180000E+00
       11   -1    0    0    0    0  0.00000000000E+00  0.00000000000E+00  0.54999999763E+01  0.55000000000E+01  0.51109989000E-03 0.  1.
     -623   -1    0    0    0    0  0.00000000000E+00  0.00000000000E+00  0.93234578044E-11  0.17124000000E+03  0.17124000000E+03 0.  1.
       11    1    1    2    0    0 -0.84517234465E-01 -0.77862430928E-01  0.10927389199E+01  0.10987649109E+01  0.51109989000E-03 0.  1.
     -623    1    1    2    0    0 -0.82827651517E-02  0.12703454137E-01  0.75077408173E-02  0.17124000084E+03  0.17124000000E+03 0.  1.
     -611    1    1    2    0    0  0.44926666336E-01  0.34189572701E-01  0.24301944162E+01  0.24308501587E+01  0.51109989000E-03 0.  1.
      611    1    1    2    0    0  0.47873333282E-01  0.30969404090E-01  0.19695588994E+01  0.19703840944E+01  0.51109989000E-03 0. -1.
</event>
<event>
 6   3  0.2312675E+03  0.9118800E+02  0.7818608E-02  0.1180000E+00
       11   -1    0    0    0    0  0.00000000000E+00  0.00000000000E+00  0.54999999763E+01  0.55000000000E+01  0.51109989000E-03 0.  1.
     -623   -1    0    0    0    0  0.00000000000E+00  0.00000000000E+00  0.93234578044E-11  0.17124000000E+03  0.17124000000E+03 0. -1.
       11    1    1    2    0    0  0.10038445316E+00  0.63062165529E-01  0.64206003899E+00  0.65291288090E+00  0.51109989000E-03 0.  1.
     -623    1    1    2    0    0 -0.39396812436E-01  0.33314290272E-03  0.11659481709E-01  0.17124000493E+03  0.17124000000E+03 0. -1.
     -611    1    1    2    0    0 -0.26477599730E-01 -0.27817693193E-01  0.19631994026E+01  0.19635750668E+01  0.51109989000E-03 0. -1.
      611    1    1    2    0    0 -0.34510040990E-01 -0.35577615237E-01  0.28830810528E+01  0.28835071229E+01  0.51109989000E-03 0.  1.
</event>
<event>
 6   3  0.2312675E+03  0.9118800E+02  0.7818608E-02  0.1180000E+00
       11   -1    0    0    0    0  0.00000000000E+00  0.00000000000E+00  0.54999999763E+01  0.55000000000E+01  0.51109989000E-03 0.  1.
     -623   -1    0    0    0    0  0.00000000000E+00  0.00000000000E+00  0.93234578044E-11  0.17124000000E+03  0.17124000000E+03 0. -1.
       11    1    1    2    0    0  0.21161444250E-01  0.68497372409E-02  0.19202414093E+00  0.19330871048E+00  0.51109989000E-03 0.  1.
     -623    1    1    2    0    0  0.13112276922E-02  0.44640741013E-02  0.26689774333E-02  0.17124000008E+03  0.17124000000E+03 0. -1.
     -611    1    1    2    0    0  0.29205479292E-01 -0.40809076947E-01  0.13426513451E+01  0.13435889388E+01  0.51109989000E-03 0. -1.
      611    1    1    2    0    0 -0.51678151234E-01  0.29495265605E-01  0.39626555129E+01  0.39631022668E+01  0.51109989000E-03 0.  1.
</event>
<event>
 6   3  0.2312675E+03  0.9118800E+02  0.7818608E-02  0.1180000E+00
       11   -1    0    0    0    0  0.00000000000E+00  0.00000000000E+00  0.54999999763E+01  0.55000000000E+01  0.51109989000E-03 0.  1.
     -623   -1    0    0    0    0  0.00000000000E+00  0.00000000000E+00  0.93234578044E-11  0.17124000000E+03  0.17124000000E+03 0.  1.
       11    1    1    2    0    0 -0.86464778569E-02 -0.62198761487E-01  0.56945621453E+00  0.57290844731E+00  0.51109989000E-03 0.  1.
     -623    1    1    2    0    0 -0.26389814903E-02  0.10417160365E-01  0.46536332053E-02  0.17124000040E+03  0.17124000000E+03 0.  1.
     -611    1    1    2    0    0  0.51128531874E-01  0.42543004541E-01  0.34135130915E+01  0.34141610859E+01  0.51109989000E-03 0.  1.
      611    1    1    2    0    0 -0.39843072527E-01  0.92385965806E-02  0.15123770371E+01  0.15129300663E+01  0.51109989000E-03 0. -1.
</event>
<event>
 6   3  0.2312675E+03  0.9118800E+02  0.7818608E-02  0.1180000E+00
       11   -1    0    0    0    0  0.00000000000E+00  0.00000000000E+00  0.54999999763E+01  0.55000000000E+01  0.51109989000E-03 0. -1.
     -623   -1    0    0    0    0  0.00000000000E+00  0.00000000000E+00  0.93234578044E-11  0.17124000000E+03  0.17124000000E+03 0. -1.
       11    1    1    2    0    0 -0.78298071480E-01  0.14883549758E-01  0.62093300618E+00  0.62602728969E+00  0.51109989000E-03 0. -1.
     -623    1    1    2    0    0  0.19149367215E-01  0.18284492152E-01  0.55686894104E-02  0.17124000214E+03  0.17124000000E+03 0. -1.
     -611    1    1    2    0    0  0.31971540940E-01 -0.18675322297E-01  0.26072479886E+01  0.26075109362E+01  0.51109989000E-03 0. -1.
      611    1    1    2    0    0  0.27177163300E-01 -0.14492719600E-01  0.22662502899E+01  0.22664596345E+01  0.51109989000E-03 0.  1.
</event>
<event>
 6   3  0.2312675E+03  0.9118800E+02  0.7818608E-02  0.1180000E+00
       11   -1    0    0    0    0  0.00000000000E+00  0.00000000000E+00  0.54999999763E+01  0.55000000000E+01  0.51109989000E-03 0.  1.
     -623   -1    0    0    0    0  0.00000000000E+00  0.00000000000E+00  0.93234578044E-11  0.17124000000E+03  0.17124000000E+03 0. -1.
       11    1    1    2    0    0 -0.28620516765E-01  0.42426618824E-01  0.56123748705E+00  0.56356626058E+00  0.51109989000E-03 0.  1.
     -623    1    1    2    0    0 -0.16336928155E-01 -0.40357420216E-02  0.31287990048E-02  0.17124000086E+03  0.17124000000E+03 0. -1.
     -611    1    1    2    0    0 -0.14803886911E-01  0.12591852760E-02  0.13509725500E+01  0.13510543411E+01  0.51109989000E-03 0. -1.
      611    1    1    2    0    0  0.59761331832E-01 -0.39650062079E-01  0.35846611402E+01  0.35853785428E+01  0.51109989000E-03 0.  1.
</event>
<event>
 6   3  0.2312675E+03  0.9118800E+02  0.7818608E-02  0.1180000E+00
       11   -1    0    0    0    0  0.00000000000E+00  0.00000000000E+00  0.54999999763E+01  0.55000000000E+01  0.51109989000E-03 0.  1.
     -623   -1    0    0    0    0  0.00000000000E+00  0.00000000000E+00  0.93234578044E-11  0.17124000000E+03  0.17124000000E+03 0.  1.
       11    1    1    2    0    0  0.95449767698E-02  0.27753602548E-02  0.69321890008E+00  0.69329035321E+00  0.51109989000E-03 0.  1.
     -623    1    1    2    0    0  0.11494582015E-02  0.66238923176E-02  0.10447110297E-02  0.17124000014E+03  0.17124000000E+03 0.  1.
     -611    1    1    2    0    0 -0.52836942999E-01 -0.10756541341E-01  0.24218196593E+01  0.24224198995E+01  0.51109989000E-03 0.  1.
      611    1    1    2    0    0  0.42142508028E-01  0.13572887691E-02  0.23839167057E+01  0.23842896121E+01  0.51109989000E-03 0. -1.
</event>
<event>
 6   3  0.2312675E+03  0.9118800E+02  0.7818608E-02  0.1180000E+00
       11   -1    0    0    0    0  0.00000000000E+00  0.00000000000E+00  0.54999999763E+01  0.55000000000E+01  0.51109989000E-03 0. -1.
     -623   -1    0    0    0    0  0.00000000000E+00  0.00000000000E+00  0.93234578044E-11  0.17124000000E+03  0.17124000000E+03 0. -1.
       11    1    1    2    0    0  0.16116184817E+00  0.30279639980E-01  0.43397317164E+00  0.46392130025E+00  0.51109989000E-03 0. -1.
     -623    1    1    2    0    0  0.68424948029E-02  0.68987135871E-01  0.33764640704E-01  0.17124001736E+03  0.17124000000E+03 0. -1.
     -611    1    1    2    0    0 -0.87224138157E-01 -0.53750483462E-01  0.24803237081E+01  0.24824389465E+01  0.51109989000E-03 0. -1.
      611    1    1    2    0    0 -0.80780204821E-01 -0.45516292391E-01  0.25519384559E+01  0.25536223914E+01  0.51109989000E-03 0.  1.
</event>
<event>
 6   3  0.2312675E+03  0.9118800E+02  0.7818608E-02  0.1180000E+00
       11   -1    0    0    0    0  0.00000000000E+00  0.00000000000E+00  0.54999999763E+01  0.55000000000E+01  0.51109989000E-03 0. -1.
     -623   -1    0    0    0    0  0.00000000000E+00  0.00000000000E+00  0.93234578044E-11  0.17124000000E+03  0.17124000000E+03 0.  1.
       11    1    1    2    0    0 -0.26598984595E-01  0.58417703195E-02  0.10048205086E+00  0.10410828992E+00  0.51109989000E-03 0. -1.
     -623    1    1    2    0    0  0.27130300656E-01  0.66132772645E-03  0.45570322346E-02  0.17124000221E+03  0.17124000000E+03 0.  1.
     -611    1    1    2    0    0  0.49000238514E-01 -0.98807859697E-02  0.29660121710E+01  0.29664333994E+01  0.51109989000E-03 0.  1.
      611    1    1    2    0    0 -0.49531554575E-01  0.33776879237E-02  0.24289487221E+01  0.24294560995E+01  0.51109989000E-03 0. -1.
</event>
<event>
 6   3  0.2312675E+03  0.9118800E+02  0.7818608E-02  0.1180000E+00
       11   -1    0    0    0    0  0.00000000000E+00  0.00000000000E+00  0.54999999763E+01  0.55000000000E+01  0.51109989000E-03 0.  1.
     -623   -1    0    0    0    0  0.00000000000E+00  0.00000000000E+00  0.93234578044E-11  0.17124000000E+03  0.17124000000E+03 0.  1.
       11    1    1    2    0    0  0.40239724362E-01  0.30726716868E-01  0.62060701004E+00  0.62266900411E+00  0.51109989000E-03 0.  1.
     -623    1    1    2    0    0  0.36250436529E-01 -0.19829446081E-02  0.27646380536E-02  0.17124000387E+03  0.17124000000E+03 0.  1.
     -611    1    1    2    0    0 -0.57207901877E-01 -0.26728511205E-01  0.36855363554E+01  0.36860772707E+01  0.51109989000E-03 0.  1.
      611    1    1    2    0    0 -0.19282259012E-01 -0.20152610549E-02  0.11910919726E+01  0.11912498542E+01  0.51109989000E-03 0. -1.
</event>
<event>
 6   3  0.2312675E+03  0.9118800E+02  0.7818608E-02  0.1180000E+00
       11   -1    0    0    0    0  0.00000000000E+00  0.00000000000E+00  0.54999999763E+01  0.55000000000E+01  0.51109989000E-03 0. -1.
     -623   -1    0    0    0    0  0.00000000000E+00  0.00000000000E+00  0.93234578044E-11  0.17124000000E+03  0.17124000000E+03 0. -1.
       11    1    1    2    0    0 -0.43973757174E-02 -0.40367380187E-02  0.37194433348E-01  0.37673853828E-01  0.51109989000E-03 0. -1.
     -623    1    1    2    0    0  0.17199478049E-01  0.35924603099E-02  0.10572253374E-02  0.17124000090E+03  0.17124000000E+03 0. -1.
     -611    1    1    2    0    0 -0.46013920803E-01 -0.14257236937E-02  0.32908691104E+01  0.32911911334E+01  0.51109989000E-03 0. -1.
      611    1    1    2    0    0  0.33211818472E-01  0.18700014026E-02  0.21708792070E+01  0.21711341079E+01  0.51109989000E-03 0.  1.
</event>
<event>
 6   3  0.2312675E+03  0.9118800E+02  0.7818608E-02  0.1180000E+00
       11   -1    0    0    0    0  0.00000000000E+00  0.00000000000E+00  0.54999999763E+01  0.55000000000E+01  0.51109989000E-03 0.  1.
     -623   -1    0    0    0    0  0.00000000000E+00  0.00000000000E+00  0.93234578044E-11  0.17124000000E+03  0.17124000000E+03 0.  1.
       11    1    1    2    0    0 -0.65863177542E-01  0.26417744830E-01  0.54183757955E+00  0.54646507595E+00  0.51109989000E-03 0.  1.
     -623    1    1    2    0    0  0.35313405229E-02 -0.13306169868E-01  0.50383929434E-02  0.17124000063E+03  0.17124000000E+03 0.  1.
     -611    1    1    2    0    0  0.35276517274E-01 -0.84616054322E-02  0.27626934612E+01  0.27629316773E+01  0.51109989000E-03 0. -1.
      611    1    1    2    0    0  0.27055319730E-01 -0.46499695257E-02  0.21904305414E+01  0.21906026181E+01  0.51109989000E-03 0.  1.
</event>
<event>
 6   3  0.2312675E+03  0.9118800E+02  0.7818608E-02  0.1180000E+00
       11   -1    0    0    0    0  0.00000000000E+00  0.00000000000E+00  0.54999999763E+01  0.55000000000E+01  0.51109989000E-03 0.  1.
     -623   -1    0    0    0    0  0.00000000000E+00  0.00000000000E+00  0.93234578044E-11  0.17124000000E+03  0.17124000000E+03 0. -1.
       11    1    1    2    0    0 -0.76570326891E-01  0.92434492601E-02  0.56265850966E+00  0.56792016695E+00  0.51109989000E-03 0.  1.
     -623    1    1    2    0    0 -0.13624518516E-02 -0.24616446264E-01  0.59148149682E-02  0.17124000188E+03  0.17124000000E+03 0. -1.
     -611    1    1    2    0    0  0.26784505778E-01  0.81767006400E-02  0.20020134317E+01  0.20022093572E+01  0.51109989000E-03 0. -1.
      611    1    1    2    0    0  0.51148272964E-01  0.71962963641E-02  0.29294132199E+01  0.29298685988E+01  0.51109989000E-03 0.  1.
</event>
<event>
 6   3  0.2312675E+03  0.9118800E+02  0.7818608E-02  0.1180000E+00
       11   -1    0    0    0    0  0.00000000000E+00  0.00000000000E+00  0.54999999763E+01  0.55000000000E+01  0.51109989000E-03 0. -1.
     -623   -1    0    0    0    0  0.00000000000E+00  0.00000000000E+00  0.93234578044E-11  0.17124000000E+03  0.17124000000E+03 0.  1.
       11    1    1    2    0    0 -0.62074043961E-02 -0.18782018439E-01  0.77241460467E+00  0.77266802627E+00  0.51109989000E-03 0. -1.
     -623    1    1    2    0    0  0.58917164820E-01  0.25985643331E-01  0.60410511841E-03  0.17124001211E+03  0.17124000000E+03 0.  1.
     -611    1    1    2    0    0 -0.12699037079E-01  0.65009558460E-02  0.11585918482E+01  0.11586797918E+01  0.51109989000E-03 0.  1.
      611    1    1    2    0    0 -0.40010723348E-01 -0.13704580739E-01  0.35683894186E+01  0.35686400739E+01  0.51109989000E-03 0. -1.
</event>
<event>
 6   3  0.2312675E+03  0.9118800E+02  0.7818608E-02  0.1180000E+00
       11   -1    0    0    0    0  0.00000000000E+00  0.00000000000E+00  0.54999999763E+01  0.55000000000E+01  0.51109989000E-03 0. -1.
     -623   -1    0    0    0    0  0.00000000000E+00  0.00000000000E+00  0.93234578044E-11  0.17124000000E+03  0.17124000000E+03 0. -1.
       11    1    1    2    0    0 -0.20250253603E-01 -0.20260808933E-01  0.21686743865E+00  0.21875173215E+00  0.51109989000E-03 0. -1.
     -623    1    1    2    0    0 -0.55614867153E-01  0.38976023227E-01  0.24772510267E-02  0.17124001348E+03  0.17124000000E+03 0. -1.
     -611    1    1    2    0    0  0.18690874692E-01 -0.35301630450E-02  0.13656084061E+01  0.13657409677E+01  0.51109989000E-03 0.  1.
      611    1    1    2    0    0  0.57174246061E-01 -0.15185051249E-01  0.39150468803E+01  0.39154938152E+01  0.51109989000E-03 0. -1.
</event>
<event>
 6   3  0.2312675E+03  0.9118800E+02  0.7818608E-02  0.1180000E+00
       11   -1    0    0    0    0  0.00000000000E+00  0.00000000000E+00  0.54999999763E+01  0.55000000000E+01  0.51109989000E-03 0. -1.
     -623   -1    0    0    0    0  0.00000000000E+00  0.00000000000E+00  0.93234578044E-11  0.17124000000E+03  0.17124000000E+03 0.  1.
       11    1    1    2    0    0 -0.27653782588E-02  0.19979087015E-02  0.12721957022E+00  0.12726633186E+00  0.51109989000E-03 0. -1.
     -623    1    1    2    0    0  0.65079271433E-01 -0.36171252737E-01  0.53316991809E-03  0.17124001619E+03  0.17124000000E+03 0.  1.
     -611    1    1    2    0    0 -0.34363031639E-01  0.19237926495E-01  0.29999301241E+01  0.30001886485E+01  0.51109989000E-03 0.  1.
      611    1    1    2    0    0 -0.27950861612E-01  0.14935417583E-01  0.23723171185E+01  0.23725288384E+01  0.51109989000E-03 0. -1.
</event>
<event>
 6   3  0.2312675E+03  0.9118800E+02  0.7818608E-02  0.1180000E+00
       11   -1    0    0    0    0  0.00000000000E+00  0.00000000000E+00  0.54999999763E+01  0.55000000000E+01  0.51109989000E-03 0. -1.
     -623   -1    0    0    0    0  0.00000000000E+00  0.00000000000E+00  0.93234578044E-11  0.17124000000E+03  0.17124000000E+03 0.  1.
       11    1    1    2    0    0 -0.11514972131E-01  0.47906885947E-02  0.55318713920E+00  0.55332794749E+00  0.51109989000E-03 0. -1.
     -623    1    1    2    0    0  0.21798219062E-01 -0.14799628124E-01  0.26419104113E-02  0.17124000205E+03  0.17124000000E+03 0.  1.
     -611    1    1    2    0    0  0.59941592016E-01  0.14954299667E-02  0.95984338933E+00  0.96171452314E+00  0.51109989000E-03 0.  1.
      611    1    1    2    0    0 -0.70224838947E-01  0.85135095627E-02  0.39843275373E+01  0.39849554820E+01  0.51109989000E-03 0. -1.
</event>
<event>
 6   3  0.2312675E+03  0.9118800E+02  0.7818608E-02  0.1180000E+00
       11   -1    0    0    0    0  0.00000000000E+00  0.00000000000E+00  0.54999999763E+01  0.55000000000E+01  0.51109989000E-03 0.  1.
     -623   -1    0    0    0    0  0.00000000000E+00  0.00000000000E+00  0.93234578044E-11  0.17124000000E+03  0.17124000000E+03 0.  1.
       11    1    1    2    0    0 -0.23313395265E-02 -0.13342593900E-01  0.85780930542E-01  0.86845202653E-01  0.51109989000E-03 0.  1.
     -623    1    1    2    0    0 -0.36373090125E-01  0.29000119967E-02  0.35991362109E-02  0.17124000393E+03  0.17124000000E+03 0.  1.
     -611    1    1    2    0    0 -0.38245955829E-01 -0.38355005755E-01  0.34389275343E+01  0.34393541119E+01  0.51109989000E-03 0.  1.
      611    1    1    2    0    0  0.76950385480E-01  0.48797587659E-01  0.19716923752E+01  0.19737967601E+01  0.51109989000E-03 0. -1.
</event>
<event>
 6   3  0.2312675E+03  0.9118800E+02  0.7818608E-02  0.1180000E+00
       11   -1    0    0    0    0  0.00000000000E+00  0.00000000000E+00  0.54999999763E+01  0.55000000000E+01  0.51109989000E-03 0.  1.
     -623   -1    0    0    0    0  0.00000000000E+00  0.00000000000E+00  0.93234578044E-11  0.17124000000E+03  0.17124000000E+03 0.  1.
       11    1    1    2    0    0 -0.54534586906E-01  0.40861714019E-02  0.70062810682E+00  0.70275936370E+00  0.51109989000E-03 0.  1.
     -623    1    1    2    0    0 -0.16536621831E-01  0.14839382243E-02  0.27446247648E-02  0.17124000083E+03  0.17124000000E+03 0.  1.
     -611    1    1    2    0    0  0.11701818853E-01  0.97139395003E-02  0.10732703813E+01  0.10733782492E+01  0.51109989000E-03 0. -1.
      611    1    1    2    0    0  0.59369389884E-01 -0.15284049127E-01  0.37233568633E+01  0.37238615602E+01  0.51109989000E-03 0.  1.
</event>
<event>
 6   3  0.2312675E+03  0.9118800E+02  0.7818608E-02  0.1180000E+00
       11   -1    0    0    0    0  0.00000000000E+00  0.00000000000E+00  0.54999999763E+01  0.55000000000E+01  0.51109989000E-03 0.  1.
     -623   -1    0    0    0    0  0.00000000000E+00  0.00000000000E+00  0.93234578044E-11  0.17124000000E+03  0.17124000000E+03 0.  1.
       11    1    1    2    0    0 -0.31048611492E-01 -0.23212990257E-02  0.88071043277E+00  0.88126076295E+00  0.51109989000E-03 0.  1.
     -623    1    1    2    0    0 -0.16216800739E-01 -0.63917291324E-02  0.80178843461E-03  0.17124000089E+03  0.17124000000E+03 0.  1.
     -611    1    1    2    0    0  0.75156640257E-02  0.13684184350E-02  0.67761106047E+00  0.67765431325E+00  0.51109989000E-03 0.  1.
      611    1    1    2    0    0  0.39749748170E-01  0.73446097165E-02  0.39408766912E+01  0.39410840313E+01  0.51109989000E-03 0.  1.
</event>
<event>
 6   3  0.2312675E+03  0.9118800E+02  0.7818608E-02  0.1180000E+00
       11   -1    0    0    0    0  0.00000000000E+00  0.00000000000E+00  0.54999999763E+01  0.55000000000E+01  0.51109989000E-03 0. -1.
     -623   -1    0    0    0    0  0.00000000000E+00  0.00000000000E+00  0.93234578044E-11  0.17124000000E+03  0.17124000000E+03 0. -1.
       11    1    1    2    0    0 -0.10105261696E-01  0.26872970465E-01  0.46713530898E+00  0.46801701996E+00  0.51109989000E-03 0. -1.
     -623    1    1    2    0    0  0.16506231964E-01 -0.63791395441E-02  0.15557592075E-02  0.17124000092E+03  0.17124000000E+03 0. -1.
     -611    1    1    2    0    0  0.28074498299E-01 -0.33589144475E-01  0.22238377241E+01  0.22242686197E+01  0.51109989000E-03 0.  1.
      611    1    1    2    0    0 -0.34475468567E-01  0.13095313554E-01  0.28074711839E+01  0.28077134388E+01  0.51109989000E-03 0. -1.
</event>
<event>
 6   3  0.2312675E+03  0.9118800E+02  0.7818608E-02  0.1180000E+00
       11   -1    0    0    0    0  0.00000000000E+00  0.00000000000E+00  0.54999999763E+01  0.55000000000E+01  0.51109989000E-03 0. -1.
     -623   -1    0    0    0    0  0.00000000000E+00  0.00000000000E+00  0.93234578044E-11  0.17124000000E+03  0.17124000000E+03 0. -1.
       11    1    1    2    0    0 -0.73825460049E-02 -0.51852257751E-02  0.54977250224E-01  0.55714879675E-01  0.51109989000E-03 0. -1.
     -623    1    1    2    0    0 -0.56687693695E-01  0.82247300936E-01  0.16894310999E-02  0.17124002914E+03  0.17124000000E+03 0. -1.
     -611    1    1    2    0    0  0.21192431924E-01 -0.25586560458E-01  0.18306780039E+01  0.18309795210E+01  0.51109989000E-03 0. -1.
      611    1    1    2    0    0  0.42877807676E-01 -0.51475514583E-01  0.36126552826E+01  0.36132764476E+01  0.51109989000E-03 0. -1.
</event>
<event>
 6   3  0.2312675E+03  0.9118800E+02  0.7818608E-02  0.1180000E+00
       11   -1    0    0    0    0  0.00000000000E+00  0.00000000000E+00  0.54999999763E+01  0.55000000000E+01  0.51109989000E-03 0. -1.
     -623   -1    0    0    0    0  0.00000000000E+00  0.00000000000E+00  0.93234578044E-11  0.17124000000E+03  0.17124000000E+03 0. -1.
       11    1    1    2    0    0  0.18124285220E-01 -0.56137498559E-03  0.31414216106E+00  0.31466547862E+00  0.51109989000E-03 0. -1.
     -623    1    1    2    0    0 -0.21926180845E-01  0.95964414804E-03  0.22596646943E-02  0.17124000142E+03  0.17124000000E+03 0. -1.
     -611    1    1    2    0    0 -0.43430101875E-01  0.44963032779E-01  0.33110980869E+01  0.33116881874E+01  0.51109989000E-03 0. -1.
      611    1    1    2    0    0  0.47231997500E-01 -0.45361301942E-01  0.18725000636E+01  0.18736449127E+01  0.51109989000E-03 0.  1.
</event>
<event>
 6   3  0.2312675E+03  0.9118800E+02  0.7818608E-02  0.1180000E+00
       11   -1    0    0    0    0  0.00000000000E+00  0.00000000000E+00  0.54999999763E+01  0.55000000000E+01  0.51109989000E-03 0. -1.
     -623   -1    0    0    0    0  0.00000000000E+00  0.00000000000E+00  0.93234578044E-11  0.17124000000E+03  0.17124000000E+03 0.  1.
       11    1    1    2    0    0  0.28059788056E-01 -0.36528517364E-01  0.73231470271E+00  0.73376206588E+00  0.51109989000E-03 0. -1.
     -623    1    1    2    0    0  0.50535766447E-01 -0.98849959237E-02  0.26342770399E-02  0.17124000776E+03  0.17124000000E+03 0.  1.
     -611    1    1    2    0    0 -0.40633273132E-01 -0.59789829801E-02  0.16970503717E+01  0.16975473591E+01  0.51109989000E-03 0.  1.
      611    1    1    2    0    0 -0.37962281372E-01  0.52392496268E-01  0.30680006249E+01  0.30686828126E+01  0.51109989000E-03 0. -1.
</event>
<event>
 6   3  0.2312675E+03  0.9118800E+02  0.7818608E-02  0.1180000E+00
       11   -1    0    0    0    0  0.00000000000E+00  0.00000000000E+00  0.54999999763E+01  0.55000000000E+01  0.51109989000E-03 0.  1.
     -623   -1    0    0    0    0  0.00000000000E+00  0.00000000000E+00  0.93234578044E-11  0.17124000000E+03  0.17124000000E+03 0.  1.
       11    1    1    2    0    0  0.41717124622E-01  0.14926525104E-02  0.80032775407E+00  0.80141582319E+00  0.51109989000E-03 0.  1.
     -623    1    1    2    0    0 -0.19437062990E-03 -0.15674838312E-02  0.16365765551E-02  0.17124000002E+03  0.17124000000E+03 0.  1.
     -611    1    1    2    0    0  0.10374257979E-01  0.14407991576E-01  0.10244162294E+01  0.10245701966E+01  0.51109989000E-03 0. -1.
      611    1    1    2    0    0 -0.51897011971E-01 -0.14333160255E-01  0.36736194162E+01  0.36740139650E+01  0.51109989000E-03 0.  1.
</event>
<event>
 6   3  0.2312675E+03  0.9118800E+02  0.7818608E-02  0.1180000E+00
       11   -1    0    0    0    0  0.00000000000E+00  0.00000000000E+00  0.54999999763E+01  0.55000000000E+01  0.51109989000E-03 0. -1.
     -623   -1    0    0    0    0  0.00000000000E+00  0.00000000000E+00  0.93234578044E-11  0.17124000000E+03  0.17124000000E+03 0. -1.
       11    1    1    2    0    0 -0.13723945905E-03 -0.16126084116E-02  0.40945890980E-01  0.40981051131E-01  0.51109989000E-03 0. -1.
     -623    1    1    2    0    0 -0.11704664945E-02  0.57496957457E-03  0.67625619229E-03  0.17124000001E+03  0.17124000000E+03 0. -1.
     -611    1    1    2    0    0  0.41223350416E-01 -0.46231595596E-02  0.33384781235E+01  0.33387358657E+01  0.51109989000E-03 0.  1.
      611    1    1    2    0    0 -0.39915644463E-01  0.56607983967E-02  0.21198997054E+01  0.21202830768E+01  0.51109989000E-03 0. -1.
</event>
<event>
 6   3  0.2312675E+03  0.9118800E+02  0.7818608E-02  0.1180000E+00
       11   -1    0    0    0    0  0.00000000000E+00  0.00000000000E+00  0.54999999763E+01  0.55000000000E+01  0.51109989000E-03 0.  1.
     -623   -1    0    0    0    0  0.00000000000E+00  0.00000000000E+00  0.93234578044E-11  0.17124000000E+03  0.17124000000E+03 0.  1.
       11    1    1    2    0    0 -0.39426270021E-01 -0.25450620408E-01  0.10801403724E+01  0.10811594009E+01  0.51109989000E-03 0.  1.
     -623    1    1    2    0    0 -0.38121365627E-01  0.51549080168E-01  0.17949288358E-02  0.17124001201E+03  0.17124000000E+03 0.  1.
     -611    1    1    2    0    0  0.49246920181E-01 -0.13625139270E-01  0.28711960145E+01  0.28716506958E+01  0.51109989000E-03 0.  1.
      611    1    1    2    0    0  0.28300715465E-01 -0.12473320489E-01  0.15468686604E+01  0.15471778916E+01  0.51109989000E-03 0. -1.
</event>
<event>
 6   3  0.2312675E+03  0.9118800E+02  0.7818608E-02  0.1180000E+00
       11   -1    0    0    0    0  0.00000000000E+00  0.00000000000E+00  0.54999999763E+01  0.55000000000E+01  0.51109989000E-03 0.  1.
     -623   -1    0    0    0    0  0.00000000000E+00  0.00000000000E+00  0.93234578044E-11  0.17124000000E+03  0.17124000000E+03 0. -1.
       11    1    1    2    0    0 -0.50912469208E-01  0.62358617035E-02  0.86711405812E+00  0.86862996523E+00  0.51109989000E-03 0.  1.
     -623    1    1    2    0    0  0.16054256371E-02 -0.31729485656E-03  0.17824010077E-02  0.17124000002E+03  0.17124000000E+03 0. -1.
     -611    1    1    2    0    0  0.15294571589E-01 -0.14543683481E-02  0.14584293399E+01  0.14585103496E+01  0.51109989000E-03 0.  1.
      611    1    1    2    0    0  0.34012471988E-01 -0.44641984997E-02  0.31726741778E+01  0.31728596687E+01  0.51109989000E-03 0.  1.
</event>
<event>
 6   3  0.2312675E+03  0.9118800E+02  0.7818608E-02  0.1180000E+00
       11   -1    0    0    0    0  0.00000000000E+00  0.00000000000E+00  0.54999999763E+01  0.55000000000E+01  0.51109989000E-03 0. -1.
     -623   -1    0    0    0    0  0.00000000000E+00  0.00000000000E+00  0.93234578044E-11  0.17124000000E+03  0.17124000000E+03 0.  1.
       11    1    1    2    0    0  0.62962403813E-02 -0.20915496244E-02  0.54087538662E-01  0.54495323510E-01  0.51109989000E-03 0. -1.
     -623    1    1    2    0    0 -0.26563726036E-02  0.36900551176E-02  0.72639055073E-03  0.17124000006E+03  0.17124000000E+03 0.  1.
     -611    1    1    2    0    0  0.26117419988E-01  0.85010727411E-02  0.25635568148E+01  0.25637039985E+01  0.51109989000E-03 0. -1.
      611    1    1    2    0    0 -0.29757287766E-01 -0.10099578234E-01  0.28816292322E+01  0.28818006161E+01  0.51109989000E-03 0.  1.
</event>
<event>
 6   3  0.2312675E+03  0.9118800E+02  0.7818608E-02  0.1180000E+00
       11   -1    0    0    0    0  0.00000000000E+00  0.00000000000E+00  0.54999999763E+01  0.55000000000E+01  0.51109989000E-03 0. -1.
     -623   -1    0    0    0    0  0.00000000000E+00  0.00000000000E+00  0.93234578044E-11  0.17124000000E+03  0.17124000000E+03 0.  1.
       11    1    1    2    0    0  0.84907748092E-01  0.12806797640E-01  0.99397362540E+00  0.99767588373E+00  0.51109989000E-03 0. -1.
     -623    1    1    2    0    0  0.60619456649E-01  0.14173122697E-01  0.61481984902E-02  0.17124001143E+03  0.17124000000E+03 0.  1.
     -611    1    1    2    0    0 -0.25809609184E-01 -0.55157956940E-02  0.77733243444E+00  0.77778051839E+00  0.51109989000E-03 0.  1.
      611    1    1    2    0    0 -0.11971759558E+00 -0.21464124647E-01  0.37225457185E+01  0.37245321718E+01  0.51109989000E-03 0. -1.
</event>
<event>
 6   3  0.2312675E+03  0.9118800E+02  0.7818608E-02  0.1180000E+00
       11   -1    0    0    0    0  0.00000000000E+00  0.00000000000E+00  0.54999999763E+01  0.55000000000E+01  0.51109989000E-03 0.  1.
     -623   -1    0    0    0    0  0.00000000000E+00  0.00000000000E+00  0.93234578044E-11  0.17124000000E+03  0.17124000000E+03 0.  1.
       11    1    1    2    0    0  0.15253238383E-01  0.28680186195E-01  0.89358144785E+00  0.89417184004E+00  0.51109989000E-03 0.  1.
     -623    1    1    2    0    0  0.91333822835E-03 -0.85961523179E-03  0.19415931910E-02  0.17124000002E+03  0.17124000000E+03 0.  1.
     -611    1    1    2    0    0  0.37741449815E-01 -0.31778044825E-01  0.13482155464E+01  0.13491181127E+01  0.51109989000E-03 0.  1.
      611    1    1    2    0    0 -0.53908026426E-01  0.39574738617E-02  0.32562613888E+01  0.32567100317E+01  0.51109989000E-03 0. -1.
</event>
<event>
 6   3  0.2312675E+03  0.9118800E+02  0.7818608E-02  0.1180000E+00
       11   -1    0    0    0    0  0.00000000000E+00  0.00000000000E+00  0.54999999763E+01  0.55000000000E+01  0.51109989000E-03 0. -1.
     -623   -1    0    0    0    0  0.00000000000E+00  0.00000000000E+00  0.93234578044E-11  0.17124000000E+03  0.17124000000E+03 0. -1.
       11    1    1    2    0    0  0.58348903876E-01 -0.21947982464E-01  0.10629053669E+01  0.10647320737E+01  0.51109989000E-03 0. -1.
     -623    1    1    2    0    0 -0.47376746463E-02  0.95397110407E-02  0.21713834670E-02  0.17124000035E+03  0.17124000000E+03 0. -1.
     -611    1    1    2    0    0 -0.41287370222E-01  0.78502667949E-02  0.34808294028E+01  0.34810831455E+01  0.51109989000E-03 0. -1.
      611    1    1    2    0    0 -0.12323859006E-01  0.45580046278E-02  0.95409382301E+00  0.95418443565E+00  0.51109989000E-03 0.  1.
</event>
<event>
 6   3  0.2312675E+03  0.9118800E+02  0.7818608E-02  0.1180000E+00
       11   -1    0    0    0    0  0.00000000000E+00  0.00000000000E+00  0.54999999763E+01  0.55000000000E+01  0.51109989000E-03 0.  1.
     -623   -1    0    0    0    0  0.00000000000E+00  0.00000000000E+00  0.93234578044E-11  0.17124000000E+03  0.17124000000E+03 0.  1.
       11    1    1    2    0    0  0.57940040685E-01  0.14323588010E-02  0.99601236002E+00  0.99769734013E+00  0.51109989000E-03 0.  1.
     -623    1    1    2    0    0  0.19532738238E-02  0.25456413391E-02  0.20911060177E-02  0.17124000004E+03  0.17124000000E+03 0.  1.
     -611    1    1    2    0    0 -0.72045429198E-02  0.18511583308E-02  0.56586513910E+00  0.56591425949E+00  0.51109989000E-03 0. -1.
      611    1    1    2    0    0 -0.52688771588E-01 -0.58291584709E-02  0.39360313711E+01  0.39363883576E+01  0.51109989000E-03 0.  1.
</event>
<event>
 6   3  0.2312675E+03  0.9118800E+02  0.7818608E-02  0.1180000E+00
       11   -1    0    0    0    0  0.00000000000E+00  0.00000000000E+00  0.54999999763E+01  0.55000000000E+01  0.51109989000E-03 0.  1.
     -623   -1    0    0    0    0  0.00000000000E+00  0.00000000000E+00  0.93234578044E-11  0.17124000000E+03  0.17124000000E+03 0.  1.
       11    1    1    2    0    0 -0.15470904786E-01 -0.63993375099E-02  0.10566656033E+01  0.10567983530E+01  0.51109989000E-03 0.  1.
     -623    1    1    2    0    0 -0.16185391920E-02  0.67186442422E-02  0.73676049424E-03  0.17124000014E+03  0.17124000000E+03 0.  1.
     -611    1    1    2    0    0 -0.26946123527E-01 -0.32148173767E-02  0.12211932771E+01  0.12214948669E+01  0.51109989000E-03 0. -1.
      611    1    1    2    0    0  0.44035567505E-01  0.28955106445E-02  0.32214043354E+01  0.32217066391E+01  0.51109989000E-03 0.  1.
</event>
<event>
 6   3  0.2312675E+03  0.9118800E+02  0.7818608E-02  0.1180000E+00
       11   -1    0    0    0    0  0.00000000000E+00  0.00000000000E+00  0.54999999763E+01  0.55000000000E+01  0.51109989000E-03 0.  1.
     -623   -1    0    0    0    0  0.00000000000E+00  0.00000000000E+00  0.93234578044E-11  0.17124000000E+03  0.17124000000E+03 0.  1.
       11    1    1    2    0    0  0.12650121171E-01  0.10773982709E-01  0.72506731966E-01  0.74388115130E-01  0.51109989000E-03 0.  1.
     -623    1    1    2    0    0 -0.35422823753E-02  0.62964367519E-02  0.37877214993E-02  0.17124000019E+03  0.17124000000E+03 0.  1.
     -611    1    1    2    0    0  0.65601987669E-01 -0.17387763843E-01  0.22308016452E+01  0.22318338193E+01  0.51109989000E-03 0.  1.
      611    1    1    2    0    0 -0.74709826465E-01  0.31734438268E-03  0.31929038775E+01  0.31937778713E+01  0.51109989000E-03 0. -1.
</event>
<event>
 6   3  0.2312675E+03  0.9118800E+02  0.7818608E-02  0.1180000E+00
       11   -1    0    0    0    0  0.00000000000E+00  0.00000000000E+00  0.54999999763E+01  0.55000000000E+01  0.51109989000E-03 0. -1.
     -623   -1    0    0    0    0  0.00000000000E+00  0.00000000000E+00  0.93234578044E-11  0.17124000000E+03  0.17124000000E+03 0.  1.
       11    1    1    2    0    0  0.65941989520E-01 -0.28235913443E-01  0.99728667711E+00  0.99986328584E+00  0.51109989000E-03 0. -1.
     -623    1    1    2    0    0  0.18830177074E-02 -0.13842739982E-01  0.32874623328E-02  0.17124000060E+03  0.17124000000E+03 0.  1.
     -611    1    1    2    0    0 -0.95094027182E-02  0.42440489914E-02  0.61041258386E+00  0.61050161708E+00  0.51109989000E-03 0.  1.
      611    1    1    2    0    0 -0.58315604516E-01  0.37834604438E-01  0.38890132534E+01  0.38896344961E+01  0.51109989000E-03 0. -1.
</event>
<event>
 6   3  0.2312675E+03  0.9118800E+02  0.7818608E-02  0.1180000E+00
       11   -1    0    0    0    0  0.00000000000E+00  0.00000000000E+00  0.54999999763E+01  0.55000000000E+01  0.51109989000E-03 0.  1.
     -623   -1    0    0    0    0  0.00000000000E+00  0.00000000000E+00  0.93234578044E-11  0.17124000000E+03  0.17124000000E+03 0. -1.
       11    1    1    2    0    0 -0.30768558310E-01  0.53568138725E-01  0.46062690369E+00  0.46475117568E+00  0.51109989000E-03 0.  1.
     -623    1    1    2    0    0 -0.25904143248E-01 -0.45695135050E-02  0.46838477892E-02  0.17124000208E+03  0.17124000000E+03 0. -1.
     -611    1    1    2    0    0  0.17260877501E-01 -0.14638915324E-01  0.15164787866E+01  0.15166477532E+01  0.51109989000E-03 0.  1.
      611    1    1    2    0    0  0.39411823973E-01 -0.34359709824E-01  0.35182104307E+01  0.35185989794E+01  0.51109989000E-03 0.  1.
</event>
<event>
 6   3  0.2312675E+03  0.9118800E+02  0.7818608E-02  0.1180000E+00
       11   -1    0    0    0    0  0.00000000000E+00  0.00000000000E+00  0.54999999763E+01  0.55000000000E+01  0.51109989000E-03 0.  1.
     -623   -1    0    0    0    0  0.00000000000E+00  0.00000000000E+00  0.93234578044E-11  0.17124000000E+03  0.17124000000E+03 0. -1.
       11    1    1    2    0    0 -0.20555175682E-01  0.78173016589E-02  0.32240994112E+00  0.32315949129E+00  0.51109989000E-03 0.  1.
     -623    1    1    2    0    0  0.46959239861E-02 -0.13383715381E-01  0.35293898999E-02  0.17124000062E+03  0.17124000000E+03 0. -1.
     -611    1    1    2    0    0  0.76367429819E-01  0.88090644688E-02  0.12792114903E+01  0.12815193646E+01  0.51109989000E-03 0. -1.
      611    1    1    2    0    0 -0.60508178123E-01 -0.32426507471E-02  0.38948491550E+01  0.38953205203E+01  0.51109989000E-03 0.  1.
</event>
<event>
 6   3  0.2312675E+03  0.9118800E+02  0.7818608E-02  0.1180000E+00
       11   -1    0    0    0    0  0.00000000000E+00  0.00000000000E+00  0.54999999763E+01  0.55000000000E+01  0.51109989000E-03 0.  1.
     -623   -1    0    0    0    0  0.00000000000E+00  0.00000000000E+00  0.93234578044E-11  0.17124000000E+03  0.17124000000E+03 0.  1.
       11    1    1    2    0    0 -0.90640878320E-02  0.15488372366E-01  0.23803997738E+00  0.23871602255E+00  0.51109989000E-03 0.  1.
     -623    1    1    2    0    0  0.67078636365E-02  0.39612824877E-02  0.10377417031E-02  0.17124000018E+03  0.17124000000E+03 0.  1.
     -611    1    1    2    0    0  0.30343503239E-01 -0.95195448240E-02  0.29157446450E+01  0.29159181137E+01  0.51109989000E-03 0.  1.
      611    1    1    2    0    0 -0.27987279044E-01 -0.99301100297E-02  0.23451776122E+01  0.23453656834E+01  0.51109989000E-03 0. -1.
</event>
<event>
 6   3  0.2312675E+03  0.9118800E+02  0.7818608E-02  0.1180000E+00
       11   -1    0    0    0    0  0.00000000000E+00  0.00000000000E+00  0.54999999763E+01  0.55000000000E+01  0.51109989000E-03 0. -1.
     -623   -1    0    0    0    0  0.00000000000E+00  0.00000000000E+00  0.93234578044E-11  0.17124000000E+03  0.17124000000E+03 0.  1.
       11    1    1    2    0    0  0.21360560340E-02 -0.77733954846E-02  0.39500307823E-01  0.40317787067E-01  0.51109989000E-03 0. -1.
     -623    1    1    2    0    0  0.24398568603E-01  0.22403032553E-01  0.20651109112E-02  0.17124000322E+03  0.17124000000E+03 0.  1.
     -611    1    1    2    0    0  0.39921991050E-01  0.13670228546E-01  0.15370412949E+01  0.15376205136E+01  0.51109989000E-03 0.  1.
      611    1    1    2    0    0 -0.66456615687E-01 -0.28299865615E-01  0.39213932627E+01  0.39220584832E+01  0.51109989000E-03 0. -1.
</event>
<event>
 6   3  0.2312675E+03  0.9118800E+02  0.7818608E-02  0.1180000E+00
       11   -1    0    0    0    0  0.00000000000E+00  0.00000000000E+00  0.54999999763E+01  0.55000000000E+01  0.51109989000E-03 0. -1.
     -623   -1    0    0    0    0  0.00000000000E+00  0.00000000000E+00  0.93234578044E-11  0.17124000000E+03  0.17124000000E+03 0. -1.
       11    1    1    2    0    0 -0.55764915025E-01 -0.72583331670E-02  0.43856688586E+00  0.44215787197E+00  0.51109989000E-03 0. -1.
     -623    1    1    2    0    0 -0.78829761085E-03  0.76764351125E-02  0.39122696935E-02  0.17124000022E+03  0.17124000000E+03 0. -1.
     -611    1    1    2    0    0  0.28083556726E-01 -0.19997762455E-02  0.27776707353E+01  0.27778134675E+01  0.51109989000E-03 0. -1.
      611    1    1    2    0    0  0.28469655906E-01  0.15816743001E-02  0.22798500850E+01  0.22800284415E+01  0.51109989000E-03 0.  1.
</event>
<event>
 6   3  0.2312675E+03  0.9118800E+02  0.7818608E-02  0.1180000E+00
       11   -1    0    0    0    0  0.00000000000E+00  0.00000000000E+00  0.54999999763E+01  0.55000000000E+01  0.51109989000E-03 0. -1.
     -623   -1    0    0    0    0  0.00000000000E+00  0.00000000000E+00  0.93234578044E-11  0.17124000000E+03  0.17124000000E+03 0.  1.
       11    1    1    2    0    0 -0.65271676027E-01 -0.12599513626E-01  0.10824975543E+01  0.10845369315E+01  0.51109989000E-03 0. -1.
     -623    1    1    2    0    0 -0.21386515802E-02  0.53443963323E-02  0.26035858194E-02  0.17124000012E+03  0.17124000000E+03 0.  1.
     -611    1    1    2    0    0  0.45121937071E-01 -0.33301598645E-02  0.25585071793E+01  0.25589072525E+01  0.51109989000E-03 0. -1.
      611    1    1    2    0    0  0.22288390537E-01  0.10585277159E-01  0.18563916569E+01  0.18565556995E+01  0.51109989000E-03 0.  1.
</event>
<event>
 6   3  0.2312675E+03  0.9118800E+02  0.7818608E-02  0.1180000E+00
       11   -1    0    0    0    0  0.00000000000E+00  0.00000000000E+00  0.54999999763E+01  0.55000000000E+01  0.51109989000E-03 0.  1.
     -623   -1    0    0    0    0  0.00000000000E+00  0.00000000000E+00  0.93234578044E-11  0.17124000000E+03  0.17124000000E+03 0. -1.
       11    1    1    2    0    0 -0.28191606023E-02 -0.24352632197E-02  0.20855139039E+00  0.20858528670E+00  0.51109989000E-03 0.  1.
     -623    1    1    2    0    0  0.73019037506E-01  0.80053143270E-01  0.11033167566E-02  0.17124003428E+03  0.17124000000E+03 0. -1.
     -611    1    1    2    0    0 -0.23080120578E-01 -0.25505325101E-01  0.17437636018E+01  0.17441029137E+01  0.51109989000E-03 0.  1.
      611    1    1    2    0    0 -0.47119755700E-01 -0.52112554264E-01  0.35465816202E+01  0.35472774687E+01  0.51109989000E-03 0.  1.
</event>
<event>
 6   3  0.2312675E+03  0.9118800E+02  0.7818608E-02  0.1180000E+00
       11   -1    0    0    0    0  0.00000000000E+00  0.00000000000E+00  0.54999999763E+01  0.55000000000E+01  0.51109989000E-03 0.  1.
     -623   -1    0    0    0    0  0.00000000000E+00  0.00000000000E+00  0.93234578044E-11  0.17124000000E+03  0.17124000000E+03 0.  1.
       11    1    1    2    0    0 -0.58958991206E-02  0.34146905653E-02  0.25677164038E+00  0.25686252795E+00  0.51109989000E-03 0.  1.
     -623    1    1    2    0    0  0.75038879766E-02 -0.43822333912E-02  0.99318577563E-03  0.17124000022E+03  0.17124000000E+03 0.  1.
     -611    1    1    2    0    0  0.43613444365E-01 -0.14243228506E-01  0.32858881692E+01  0.32862085028E+01  0.51109989000E-03 0.  1.
      611    1    1    2    0    0 -0.45221433221E-01  0.15210771332E-01  0.19563469810E+01  0.19569287460E+01  0.51109989000E-03 0. -1.
</event>
<event>
 6   3  0.2312675E+03  0.9118800E+02  0.7818608E-02  0.1180000E+00
       11   -1    0    0    0    0  0.00000000000E+00  0.00000000000E+00  0.54999999763E+01  0.55000000000E+01  0.51109989000E-03 0. -1.
     -623   -1    0    0    0    0  0.00000000000E+00  0.00000000000E+00  0.93234578044E-11  0.17124000000E+03  0.17124000000E+03 0. -1.
       11    1    1    2    0    0  0.37197792687E-01 -0.13506829028E-01  0.77290054031E+00  0.77391318418E+00  0.51109989000E-03 0. -1.
     -623    1    1    2    0    0  0.11801849582E-01 -0.15031338017E-01  0.13540131892E-02  0.17124000107E+03  0.17124000000E+03 0. -1.
     -611    1    1    2    0    0 -0.31695783887E-01  0.18479198342E-01  0.30713508332E+01  0.30715700066E+01  0.51109989000E-03 0. -1.
      611    1    1    2    0    0 -0.17303858457E-01  0.10058968747E-01  0.16543945969E+01  0.16545157448E+01  0.51109989000E-03 0. -1.
</event>
<event>
 6   3  0.2312675E+03  0.9118800E+02  0.7818608E-02  0.1180000E+00
       11   -1    0    0    0    0  0.00000000000E+00  0.00000000000E+00  0.54999999763E+01  0.55000000000E+01  0.51109989000E-03 0.  1.
     -623   -1    0    0    0    0  0.00000000000E+00  0.00000000000E+00  0.93234578044E-11  0.17124000000E+03  0.17124000000E+03 0.  1.
       11    1    1    2    0    0 -0.13563539832E-01  0.29962144379E-03  0.52058749165E-01  0.53799943992E-01  0.51109989000E-03 0.  1.
     -623    1    1    2    0    0 -0.20511782865E-02  0.22042077759E-02  0.25384148230E-02  0.17124000005E+03  0.17124000000E+03 0.  1.
     -611    1    1    2    0    0 -0.34909663000E-01  0.17233333906E-01  0.22612046534E+01  0.22615398334E+01  0.51109989000E-03 0. -1.
      611    1    1    2    0    0  0.50524381118E-01 -0.19737163125E-01  0.31841981589E+01  0.31846601774E+01  0.51109989000E-03 0.  1.
</event>
<event>
 6   3  0.2312675E+03  0.9118800E+02  0.7818608E-02  0.1180000E+00
       11   -1    0    0    0    0  0.00000000000E+00  0.00000000000E+00  0.54999999763E+01  0.55000000000E+01  0.51109989000E-03 0.  1.
     -623   -1    0    0    0    0  0.00000000000E+00  0.00000000000E+00  0.93234578044E-11  0.17124000000E+03  0.17124000000E+03 0.  1.
       11    1    1    2    0    0 -0.93391499795E-02 -0.36974819899E-01  0.49783255045E+00  0.49929136437E+00  0.51109989000E-03 0.  1.
     -623    1    1    2    0    0 -0.68386395409E-01  0.21766639604E-01  0.21029317639E-02  0.17124001505E+03  0.17124000000E+03 0.  1.
     -611    1    1    2    0    0  0.10471827334E-01  0.29194497891E-02  0.61942909260E+00  0.61952469227E+00  0.51109989000E-03 0. -1.
      611    1    1    2    0    0  0.67253718051E-01  0.12288730505E-01  0.43806354012E+01  0.43811688914E+01  0.51109989000E-03 0.  1.
</event>
<event>
 6   3  0.2312675E+03  0.9118800E+02  0.7818608E-02  0.1180000E+00
       11   -1    0    0    0    0  0.00000000000E+00  0.00000000000E+00  0.54999999763E+01  0.55000000000E+01  0.51109989000E-03 0.  1.
     -623   -1    0    0    0    0  0.00000000000E+00  0.00000000000E+00  0.93234578044E-11  0.17124000000E+03  0.17124000000E+03 0. -1.
       11    1    1    2    0    0 -0.68619010407E-02 -0.28718629281E-02  0.42934070960E+00  0.42940544876E+00  0.51109989000E-03 0.  1.
     -623    1    1    2    0    0  0.67595841126E-01  0.39436741417E-01  0.57838257196E-03  0.17124001788E+03  0.17124000000E+03 0. -1.
     -611    1    1    2    0    0 -0.20688172641E-01 -0.12916312000E-01  0.17561488179E+01  0.17563182409E+01  0.51109989000E-03 0. -1.
      611    1    1    2    0    0 -0.40045767832E-01 -0.23648566715E-01  0.33139320978E+01  0.33142584582E+01  0.51109989000E-03 0.  1.
</event>
<event>
 6   3  0.2312675E+03  0.9118800E+02  0.7818608E-02  0.1180000E+00
       11   -1    0    0    0    0  0.00000000000E+00  0.00000000000E+00  0.54999999763E+01  0.55000000000E+01  0.51109989000E-03 0.  1.
     -623   -1    0    0    0    0  0.00000000000E+00  0.00000000000E+00  0.93234578044E-11  0.17124000000E+03  0.17124000000E+03 0.  1.
       11    1    1    2    0    0  0.67141283036E-01 -0.35843602613E-01  0.10962272853E+01  0.10988663422E+01  0.51109989000E-03 0.  1.
     -623    1    1    2    0    0 -0.11438025605E-01  0.52608868955E-01  0.31071801213E-02  0.17124000849E+03  0.17124000000E+03 0.  1.
     -611    1    1    2    0    0 -0.40444112334E-01 -0.23481033236E-01  0.31020650098E+01  0.31024175527E+01  0.51109989000E-03 0.  1.
      611    1    1    2    0    0 -0.15259145097E-01  0.67157668941E-02  0.12986005010E+01  0.12987076136E+01  0.51109989000E-03 0. -1.
</event>
<event>
 6   3  0.2312675E+03  0.9118800E+02  0.7818608E-02  0.1180000E+00
       11   -1    0    0    0    0  0.00000000000E+00  0.00000000000E+00  0.54999999763E+01  0.55000000000E+01  0.51109989000E-03 0. -1.
     -623   -1    0    0    0    0  0.00000000000E+00  0.00000000000E+00  0.93234578044E-11  0.17124000000E+03  0.17124000000E+03 0.  1.
       11    1    1    2    0    0 -0.28037651552E-01  0.33686098000E-01  0.91670496290E+00  0.91775220693E+00  0.51109989000E-03 0. -1.
     -623    1    1    2    0    0 -0.38919646002E-01 -0.22902267325E-01  0.15553238715E-02  0.17124000596E+03  0.17124000000E+03 0.  1.
     -611    1    1    2    0    0  0.42869251442E-01 -0.71829394517E-02  0.29113271862E+01  0.29116516985E+01  0.51109989000E-03 0. -1.
      611    1    1    2    0    0  0.24088046149E-01 -0.36008912286E-02  0.16704125058E+01  0.16705901356E+01  0.51109989000E-03 0. -1.
</event>
<event>
 6   3  0.2312675E+03  0.9118800E+02  0.7818608E-02  0.1180000E+00
       11   -1    0    0    0    0  0.00000000000E+00  0.00000000000E+00  0.54999999763E+01  0.55000000000E+01  0.51109989000E-03 0. -1.
     -623   -1    0    0    0    0  0.00000000000E+00  0.00000000000E+00  0.93234578044E-11  0.17124000000E+03  0.17124000000E+03 0.  1.
       11    1    1    2    0    0 -0.73968694064E-02  0.20397961272E-02  0.30736584686E-01  0.31683959767E-01  0.51109989000E-03 0. -1.
     -623    1    1    2    0    0 -0.10163744149E-01 -0.59745685525E-02  0.25596260515E-02  0.17124000042E+03  0.17124000000E+03 0.  1.
     -611    1    1    2    0    0 -0.50988774295E-01  0.14822581076E-01  0.34689274510E+01  0.34693338677E+01  0.51109989000E-03 0.  1.
      611    1    1    2    0    0  0.68549387851E-01 -0.10887808650E-01  0.19977763145E+01  0.19989817476E+01  0.51109989000E-03 0. -1.
</event>
<event>
 6   3  0.2312675E+03  0.9118800E+02  0.7818608E-02  0.1180000E+00
       11   -1    0    0    0    0  0.00000000000E+00  0.00000000000E+00  0.54999999763E+01  0.55000000000E+01  0.51109989000E-03 0. -1.
     -623   -1    0    0    0    0  0.00000000000E+00  0.00000000000E+00  0.93234578044E-11  0.17124000000E+03  0.17124000000E+03 0. -1.
       11    1    1    2    0    0  0.30573808190E-02 -0.98003450330E-02  0.64787227341E+00  0.64795380871E+00  0.51109989000E-03 0. -1.
     -623    1    1    2    0    0 -0.15230678171E-01  0.10682081862E-01  0.10141536232E-02  0.17124000101E+03  0.17124000000E+03 0. -1.
     -611    1    1    2    0    0 -0.31672180316E-01 -0.13322030199E-01  0.88089662166E+00  0.88156662980E+00  0.51109989000E-03 0. -1.
      611    1    1    2    0    0  0.43845477667E-01  0.12440293370E-01  0.39702169276E+01  0.39704785480E+01  0.51109989000E-03 0.  1.
</event>
<event>
 6   3  0.2312675E+03  0.9118800E+02  0.7818608E-02  0.1180000E+00
       11   -1    0    0    0    0  0.00000000000E+00  0.00000000000E+00  0.54999999763E+01  0.55000000000E+01  0.51109989000E-03 0. -1.
     -623   -1    0    0    0    0  0.00000000000E+00  0.00000000000E+00  0.93234578044E-11  0.17124000000E+03  0.17124000000E+03 0.  1.
       11    1    1    2    0    0  0.44277609906E-01  0.23231029259E-01  0.85297393017E+00  0.85443839698E+00  0.51109989000E-03 0. -1.
     -623    1    1    2    0    0  0.44141642307E-02 -0.96097385616E-03  0.17748602120E-02  0.17124000007E+03  0.17124000000E+03 0.  1.
     -611    1    1    2    0    0 -0.36219850367E-01 -0.18122926527E-01  0.35817741554E+01  0.35820031657E+01  0.51109989000E-03 0.  1.
      611    1    1    2    0    0 -0.12471923778E-01 -0.41471288796E-02  0.10634770313E+01  0.10635583692E+01  0.51109989000E-03 0. -1.
</event>
<event>
 6   3  0.2312675E+03  0.9118800E+02  0.7818608E-02  0.1180000E+00
       11   -1    0    0    0    0  0.00000000000E+00  0.00000000000E+00  0.54999999763E+01  0.55000000000E+01  0.51109989000E-03 0.  1.
     -623   -1    0    0    0    0  0.00000000000E+00  0.00000000000E+00  0.93234578044E-11  0.17124000000E+03  0.17124000000E+03 0. -1.
       11    1    1    2    0    0  0.46920542868E-02  0.20414986121E-02  0.49705651054E+00  0.49708311074E+00  0.51109989000E-03 0.  1.
     -623    1    1    2    0    0 -0.62914409959E-01 -0.35007262724E-01  0.49381275622E-03  0.17124001514E+03  0.17124000000E+03 0. -1.
     -611    1    1    2    0    0  0.40729652741E-01  0.25750092648E-01  0.37310695371E+01  0.37313807262E+01  0.51109989000E-03 0.  1.
      611    1    1    2    0    0  0.17492703006E-01  0.72156715050E-02  0.12713801224E+01  0.12715210330E+01  0.51109989000E-03 0. -1.
</event>
<event>
 6   3  0.2312675E+03  0.9118800E+02  0.7818608E-02  0.1180000E+00
       11   -1    0    0    0    0  0.00000000000E+00  0.00000000000E+00  0.54999999763E+01  0.55000000000E+01  0.51109989000E-03 0. -1.
     -623   -1    0    0    0    0  0.00000000000E+00  0.00000000000E+00  0.93234578044E-11  0.17124000000E+03  0.17124000000E+03 0. -1.
       11    1    1    2    0    0 -0.75458634153E-02  0.38239687840E-02  0.13000888380E+00  0.13028481831E+00  0.51109989000E-03 0. -1.
     -623    1    1    2    0    0 -0.47466482860E-01  0.16305492550E-01  0.60293856434E-03  0.17124000736E+03  0.17124000000E+03 0. -1.
     -611    1    1    2    0    0  0.20152069556E-01 -0.72704608919E-02  0.19866945501E+01  0.19868101223E+01  0.51109989000E-03 0. -1.
      611    1    1    2    0    0  0.34860276699E-01 -0.12859000435E-01  0.33826936018E+01  0.33828977013E+01  0.51109989000E-03 0. -1.
</event>
<event>
 6   3  0.2312675E+03  0.9118800E+02  0.7818608E-02  0.1180000E+00
       11   -1    0    0    0    0  0.00000000000E+00  0.00000000000E+00  0.54999999763E+01  0.55000000000E+01  0.51109989000E-03 0.  1.
     -623   -1    0    0    0    0  0.00000000000E+00  0.00000000000E+00  0.93234578044E-11  0.17124000000E+03  0.17124000000E+03 0.  1.
       11    1    1    2    0    0 -0.57737179982E-02  0.31543150686E-02  0.13492171397E+00  0.13508299540E+00  0.51109989000E-03 0.  1.
     -623    1    1    2    0    0 -0.58603474698E-03 -0.15853809492E-02  0.16103065750E-02  0.17124000002E+03  0.17124000000E+03 0.  1.
     -611    1    1    2    0    0  0.60795926358E-01  0.20267624982E-01  0.32677353242E+01  0.32683637086E+01  0.51109989000E-03 0.  1.
      611    1    1    2    0    0 -0.54436173613E-01 -0.21836559101E-01  0.20957326315E+01  0.20965532801E+01  0.51109989000E-03 0. -1.
</event>
<event>
 6   3  0.2312675E+03  0.9118800E+02  0.7818608E-02  0.1180000E+00
       11   -1    0    0    0    0  0.00000000000E+00  0.00000000000E+00  0.54999999763E+01  0.55000000000E+01  0.51109989000E-03 0.  1.
     -623   -1    0    0    0    0  0.00000000000E+00  0.00000000000E+00  0.93234578044E-11  0.17124000000E+03  0.17124000000E+03 0.  1.
       11    1    1    2    0    0  0.55795322393E-01  0.31184520388E-01  0.77205999039E+00  0.77470154401E+00  0.51109989000E-03 0.  1.
     -623    1    1    2    0    0  0.17057668439E-01 -0.44075013144E-01  0.32438052540E-02  0.17124000655E+03  0.17124000000E+03 0.  1.
     -611    1    1    2    0    0 -0.34265466043E-01  0.90431093451E-02  0.19133080795E+01  0.19136363208E+01  0.51109989000E-03 0. -1.
      611    1    1    2    0    0 -0.38587524789E-01  0.38473834108E-02  0.28113881012E+01  0.28116555828E+01  0.51109989000E-03 0.  1.
</event>
<event>
 6   3  0.2312675E+03  0.9118800E+02  0.7818608E-02  0.1180000E+00
       11   -1    0    0    0    0  0.00000000000E+00  0.00000000000E+00  0.54999999763E+01  0.55000000000E+01  0.51109989000E-03 0.  1.
     -623   -1    0    0    0    0  0.00000000000E+00  0.00000000000E+00  0.93234578044E-11  0.17124000000E+03  0.17124000000E+03 0. -1.
       11    1    1    2    0    0  0.48230899296E-01  0.97768524745E-02  0.70933684529E+00  0.71104207175E+00  0.51109989000E-03 0.  1.
     -623    1    1    2    0    0  0.24907899281E-02  0.50571466266E-02  0.19982633039E-02  0.17124000010E+03  0.17124000000E+03 0. -1.
     -611    1    1    2    0    0 -0.40988214592E-01 -0.11906869038E-01  0.39811293239E+01  0.39813581555E+01  0.51109989000E-03 0.  1.
      611    1    1    2    0    0 -0.97334746393E-02 -0.29271300649E-02  0.80753554441E+00  0.80759966897E+00  0.51109989000E-03 0. -1.
</event>
<event>
 6   3  0.2312675E+03  0.9118800E+02  0.7818608E-02  0.1180000E+00
       11   -1    0    0    0    0  0.00000000000E+00  0.00000000000E+00  0.54999999763E+01  0.55000000000E+01  0.51109989000E-03 0.  1.
     -623   -1    0    0    0    0  0.00000000000E+00  0.00000000000E+00  0.93234578044E-11  0.17124000000E+03  0.17124000000E+03 0. -1.
       11    1    1    2    0    0  0.60464092162E-01 -0.12290875551E-01  0.83546210496E+00  0.83773752578E+00  0.51109989000E-03 0.  1.
     -623    1    1    2    0    0  0.14710356129E-01 -0.17869131028E-02  0.30194137100E-02  0.17124000067E+03  0.17124000000E+03 0. -1.
     -611    1    1    2    0    0 -0.29307650079E-01  0.97466290238E-02  0.10639397384E+01  0.10643880699E+01  0.51109989000E-03 0. -1.
      611    1    1    2    0    0 -0.45866798212E-01  0.43311596300E-02  0.35975787192E+01  0.35978737365E+01  0.51109989000E-03 0.  1.
</event>
<event>
 6   3  0.2312675E+03  0.9118800E+02  0.7818608E-02  0.1180000E+00
       11   -1    0    0    0    0  0.00000000000E+00  0.00000000000E+00  0.54999999763E+01  0.55000000000E+01  0.51109989000E-03 0.  1.
     -623   -1    0    0    0    0  0.00000000000E+00  0.00000000000E+00  0.93234578044E-11  0.17124000000E+03  0.17124000000E+03 0. -1.
       11    1    1    2    0    0  0.76656280607E-01 -0.87875785331E-01  0.67918916073E+00  0.68912735854E+00  0.51109989000E-03 0.  1.
     -623    1    1    2    0    0 -0.12501921484E+00  0.41301257991E-01  0.10475411973E-01  0.17124005094E+03  0.17124000000E+03 0. -1.
     -611    1    1    2    0    0  0.71793515771E-02  0.22550090240E-02  0.70785190080E+00  0.70789208418E+00  0.51109989000E-03 0. -1.
      611    1    1    2    0    0  0.41183582654E-01  0.44319518316E-01  0.41024835026E+01  0.41029296189E+01  0.51109989000E-03 0.  1.
</event>
<event>
 6   3  0.2312675E+03  0.9118800E+02  0.7818608E-02  0.1180000E+00
       11   -1    0    0    0    0  0.00000000000E+00  0.00000000000E+00  0.54999999763E+01  0.55000000000E+01  0.51109989000E-03 0. -1.
     -623   -1    0    0    0    0  0.00000000000E+00  0.00000000000E+00  0.93234578044E-11  0.17124000000E+03  0.17124000000E+03 0. -1.
       11    1    1    2    0    0 -0.77438165647E-02 -0.46432439288E-02  0.72015193414E+00  0.72020871688E+00  0.51109989000E-03 0. -1.
     -623    1    1    2    0    0  0.85922149523E-01  0.30583451208E-01  0.79239784787E-03  0.17124002429E+03  0.17124000000E+03 0. -1.
     -611    1    1    2    0    0 -0.56254940593E-01 -0.19941952142E-01  0.35246831891E+01  0.35251885261E+01  0.51109989000E-03 0. -1.
      611    1    1    2    0    0 -0.21923392527E-01 -0.59982551945E-02  0.12543724656E+01  0.12545784782E+01  0.51109989000E-03 0.  1.
</event>
<event>
 6   3  0.2312675E+03  0.9118800E+02  0.7818608E-02  0.1180000E+00
       11   -1    0    0    0    0  0.00000000000E+00  0.00000000000E+00  0.54999999763E+01  0.55000000000E+01  0.51109989000E-03 0.  1.
     -623   -1    0    0    0    0  0.00000000000E+00  0.00000000000E+00  0.93234578044E-11  0.17124000000E+03  0.17124000000E+03 0.  1.
       11    1    1    2    0    0 -0.60715343112E-01  0.61575633504E-02  0.34528053937E+00  0.35063254350E+00  0.51109989000E-03 0.  1.
     -623    1    1    2    0    0 -0.39555394350E-02  0.11045806535E-01  0.57879838043E-02  0.17124000050E+03  0.17124000000E+03 0.  1.
     -611    1    1    2    0    0  0.56717980764E-01 -0.14875282710E-01  0.45585616783E+01  0.45589388063E+01  0.51109989000E-03 0.  1.
      611    1    1    2    0    0  0.79529018101E-02 -0.23280871833E-02  0.59036977696E+00  0.59042815262E+00  0.51109989000E-03 0. -1.
</event>
<event>
 6   3  0.2312675E+03  0.9118800E+02  0.7818608E-02  0.1180000E+00
       11   -1    0    0    0    0  0.00000000000E+00  0.00000000000E+00  0.54999999763E+01  0.55000000000E+01  0.51109989000E-03 0. -1.
     -623   -1    0    0    0    0  0.00000000000E+00  0.00000000000E+00  0.93234578044E-11  0.17124000000E+03  0.17124000000E+03 0.  1.
       11    1    1    2    0    0 -0.14343387602E-02 -0.46793348236E-02 -0.22045169170E-02  0.53920886496E-02  0.51109989000E-03 0. -1.
     -623    1    1    2    0    0 -0.16448138833E-02  0.13828077149E-01  0.86241346592E-02  0.17124000078E+03  0.17124000000E+03 0.  1.
     -611    1    1    2    0    0  0.46725081267E-01  0.18333903352E-01  0.19263568980E+01  0.19270107745E+01  0.51109989000E-03 0.  1.
      611    1    1    2    0    0 -0.43645928624E-01 -0.27482645677E-01  0.35672234605E+01  0.35675963535E+01  0.51109989000E-03 0. -1.
</event>
<event>
 6   3  0.2312675E+03  0.9118800E+02  0.7818608E-02  0.1180000E+00
       11   -1    0    0    0    0  0.00000000000E+00  0.00000000000E+00  0.54999999763E+01  0.55000000000E+01  0.51109989000E-03 0.  1.
     -623   -1    0    0    0    0  0.00000000000E+00  0.00000000000E+00  0.93234578044E-11  0.17124000000E+03  0.17124000000E+03 0. -1.
       11    1    1    2    0    0  0.39963230330E-01  0.50221515070E-03  0.69453075215E+00  0.69567991124E+00  0.51109989000E-03 0.  1.
     -623    1    1    2    0    0  0.22422333719E-01  0.84741455559E-02  0.15677888062E-02  0.17124000168E+03  0.17124000000E+03 0. -1.
     -611    1    1    2    0    0 -0.23094508359E-01 -0.58359873738E-02  0.17182208954E+01  0.17183860805E+01  0.51109989000E-03 0. -1.
      611    1    1    2    0    0 -0.39291055685E-01 -0.31403733322E-02  0.30856805396E+01  0.30859323231E+01  0.51109989000E-03 0.  1.
</event>
<event>
 6   3  0.2312675E+03  0.9118800E+02  0.7818608E-02  0.1180000E+00
       11   -1    0    0    0    0  0.00000000000E+00  0.00000000000E+00  0.54999999763E+01  0.55000000000E+01  0.51109989000E-03 0.  1.
     -623   -1    0    0    0    0  0.00000000000E+00  0.00000000000E+00  0.93234578044E-11  0.17124000000E+03  0.17124000000E+03 0. -1.
       11    1    1    2    0    0  0.62293329585E-02  0.50789184181E-02  0.51810097415E+00  0.51816356553E+00  0.51109989000E-03 0.  1.
     -623    1    1    2    0    0 -0.77683430797E-01 -0.30422669219E-01  0.66015951866E-03  0.17124002032E+03  0.17124000000E+03 0. -1.
     -611    1    1    2    0    0  0.35072550298E-01  0.11633924732E-01  0.24273519778E+01  0.24276332749E+01  0.51109989000E-03 0. -1.
      611    1    1    2    0    0  0.36381547607E-01  0.13709826092E-01  0.25538868694E+01  0.25541828399E+01  0.51109989000E-03 0.  1.
</event>
<event>
 6   3  0.2312675E+03  0.9118800E+02  0.7818608E-02  0.1180000E+00
       11   -1    0    0    0    0  0.00000000000E+00  0.00000000000E+00  0.54999999763E+01  0.55000000000E+01  0.51109989000E-03 0. -1.
     -623   -1    0    0    0    0  0.00000000000E+00  0.00000000000E+00  0.93234578044E-11  0.17124000000E+03  0.17124000000E+03 0.  1.
       11    1    1    2    0    0 -0.12679083009E-01 -0.11862011026E-01  0.62882451140E+00  0.62906437970E+00  0.51109989000E-03 0. -1.
     -623    1    1    2    0    0  0.74995200918E-01  0.71370840714E-01  0.10505515177E-02  0.17124003130E+03  0.17124000000E+03 0.  1.
     -611    1    1    2    0    0 -0.19867497024E-01 -0.11776206421E-01  0.11698768672E+01  0.11701049279E+01  0.51109989000E-03 0.  1.
      611    1    1    2    0    0 -0.42448620909E-01 -0.47732623291E-01  0.37002480479E+01  0.37007993955E+01  0.51109989000E-03 0. -1.
</event>
<event>
 6   3  0.2312675E+03  0.9118800E+02  0.7818608E-02  0.1180000E+00
       11   -1    0    0    0    0  0.00000000000E+00  0.00000000000E+00  0.54999999763E+01  0.55000000000E+01  0.51109989000E-03 0. -1.
     -623   -1    0    0    0    0  0.00000000000E+00  0.00000000000E+00  0.93234578044E-11  0.17124000000E+03  0.17124000000E+03 0.  1.
       11    1    1    2    0    0  0.97241226455E-01  0.30758500545E-01  0.67450577685E+00  0.68217317868E+00  0.51109989000E-03 0. -1.
     -623    1    1    2    0    0 -0.35942129229E-01  0.23331997401E-01  0.83784205505E-02  0.17124000557E+03  0.17124000000E+03 0.  1.
     -611    1    1    2    0    0 -0.34372363449E-01 -0.37129454338E-01  0.29075649054E+01  0.29080051575E+01  0.51109989000E-03 0. -1.
      611    1    1    2    0    0 -0.26926733775E-01 -0.16961043606E-01  0.19095508734E+01  0.19098160972E+01  0.51109989000E-03 0.  1.
</event>
<event>
 6   3  0.2312675E+03  0.9118800E+02  0.7818608E-02  0.1180000E+00
       11   -1    0    0    0    0  0.00000000000E+00  0.00000000000E+00  0.54999999763E+01  0.55000000000E+01  0.51109989000E-03 0.  1.
     -623   -1    0    0    0    0  0.00000000000E+00  0.00000000000E+00  0.93234578044E-11  0.17124000000E+03  0.17124000000E+03 0.  1.
       11    1    1    2    0    0 -0.35513008195E-02  0.19479596938E-02  0.10770459405E+01  0.10770536780E+01  0.51109989000E-03 0.  1.
     -623    1    1    2    0    0  0.58411543622E-01 -0.97618174310E-02  0.36541816465E-03  0.17124001024E+03  0.17124000000E+03 0.  1.
     -611    1    1    2    0    0 -0.28255665422E-01  0.39095960631E-02  0.23284088981E+01  0.23285836738E+01  0.51109989000E-03 0.  1.
      611    1    1    2    0    0 -0.26604577374E-01  0.39042616730E-02  0.20941797189E+01  0.20943524066E+01  0.51109989000E-03 0.  1.
</event>
<event>
 6   3  0.2312675E+03  0.9118800E+02  0.7818608E-02  0.1180000E+00
       11   -1    0    0    0    0  0.00000000000E+00  0.00000000000E+00  0.54999999763E+01  0.55000000000E+01  0.51109989000E-03 0. -1.
     -623   -1    0    0    0    0  0.00000000000E+00  0.00000000000E+00  0.93234578044E-11  0.17124000000E+03  0.17124000000E+03 0.  1.
       11    1    1    2    0    0 -0.15638150198E-01 -0.12634201516E-01  0.67577394300E-01  0.70506313426E-01  0.51109989000E-03 0. -1.
     -623    1    1    2    0    0 -0.36761182094E-02 -0.36761702995E-02  0.59228727705E-02  0.17124000018E+03  0.17124000000E+03 0.  1.
     -611    1    1    2    0    0 -0.65812615521E-01  0.54208963317E-01  0.29808043679E+01  0.29820236171E+01  0.51109989000E-03 0.  1.
      611    1    1    2    0    0  0.85126883928E-01 -0.37898591501E-01  0.24456953413E+01  0.24474698881E+01  0.51109989000E-03 0. -1.
</event>
<event>
 6   3  0.2312675E+03  0.9118800E+02  0.7818608E-02  0.1180000E+00
       11   -1    0    0    0    0  0.00000000000E+00  0.00000000000E+00  0.54999999763E+01  0.55000000000E+01  0.51109989000E-03 0.  1.
     -623   -1    0    0    0    0  0.00000000000E+00  0.00000000000E+00  0.93234578044E-11  0.17124000000E+03  0.17124000000E+03 0. -1.
       11    1    1    2    0    0 -0.78831838165E-02 -0.80816704593E-01  0.10429195687E+01  0.10460759878E+01  0.51109989000E-03 0.  1.
     -623    1    1    2    0    0 -0.14782913636E-01  0.13359638185E-01  0.49137537973E-02  0.17124000123E+03  0.17124000000E+03 0. -1.
     -611    1    1    2    0    0 -0.40177169791E-01  0.32140141976E-01  0.22044716481E+01  0.22050720402E+01  0.51109989000E-03 0. -1.
      611    1    1    2    0    0  0.62843267244E-01  0.35316924433E-01  0.22476950057E+01  0.22488507423E+01  0.51109989000E-03 0.  1.
</event>
<event>
 6   3  0.2312675E+03  0.9118800E+02  0.7818608E-02  0.1180000E+00
       11   -1    0    0    0    0  0.00000000000E+00  0.00000000000E+00  0.54999999763E+01  0.55000000000E+01  0.51109989000E-03 0. -1.
     -623   -1    0    0    0    0  0.00000000000E+00  0.00000000000E+00  0.93234578044E-11  0.17124000000E+03  0.17124000000E+03 0. -1.
       11    1    1    2    0    0  0.71251597740E-02 -0.10775427589E-02  0.11688545350E-02  0.73182268497E-02  0.51109989000E-03 0. -1.
     -623    1    1    2    0    0  0.10202091261E-02 -0.21275793039E-02  0.74154092855E-02  0.17124000018E+03  0.17124000000E+03 0. -1.
     -611    1    1    2    0    0 -0.61783072764E-01 -0.46836787925E-02  0.24546101090E+01  0.24553920528E+01  0.51109989000E-03 0. -1.
      611    1    1    2    0    0  0.53637703863E-01  0.78888008553E-02  0.30368056035E+01  0.30372895435E+01  0.51109989000E-03 0.  1.
</event>
<event>
 6   3  0.2312675E+03  0.9118800E+02  0.7818608E-02  0.1180000E+00
       11   -1    0    0    0    0  0.00000000000E+00  0.00000000000E+00  0.54999999763E+01  0.55000000000E+01  0.51109989000E-03 0. -1.
     -623   -1    0    0    0    0  0.00000000000E+00  0.00000000000E+00  0.93234578044E-11  0.17124000000E+03  0.17124000000E+03 0.  1.
       11    1    1    2    0    0 -0.22331704679E-01  0.21300580575E-01  0.65298662170E+00  0.65371569441E+00  0.51109989000E-03 0. -1.
     -623    1    1    2    0    0  0.34785680645E-01  0.25820859645E-01  0.18053447237E-02  0.17124000549E+03  0.17124000000E+03 0.  1.
     -611    1    1    2    0    0  0.36361883940E-01 -0.10588444727E-01  0.13191203551E+01  0.13196640005E+01  0.51109989000E-03 0. -1.
      611    1    1    2    0    0 -0.48815859905E-01 -0.36532995493E-01  0.35260876548E+01  0.35266148157E+01  0.51109989000E-03 0.  1.
</event>
<event>
 6   3  0.2312675E+03  0.9118800E+02  0.7818608E-02  0.1180000E+00
       11   -1    0    0    0    0  0.00000000000E+00  0.00000000000E+00  0.54999999763E+01  0.55000000000E+01  0.51109989000E-03 0.  1.
     -623   -1    0    0    0    0  0.00000000000E+00  0.00000000000E+00  0.93234578044E-11  0.17124000000E+03  0.17124000000E+03 0.  1.
       11    1    1    2    0    0 -0.62569420628E-02 -0.49938248458E-02  0.87146717087E-01  0.87515136592E-01  0.51109989000E-03 0.  1.
     -623    1    1    2    0    0 -0.22141019228E-02  0.59786798320E-02  0.14271996768E-02  0.17124000012E+03  0.17124000000E+03 0.  1.
     -611    1    1    2    0    0  0.55904982510E-01 -0.13053137404E-01  0.26128180567E+01  0.26134487196E+01  0.51109989000E-03 0.  1.
      611    1    1    2    0    0 -0.47433938525E-01  0.12068282417E-01  0.27986080027E+01  0.27990360191E+01  0.51109989000E-03 0. -1.
</event>
<event>
 6   3  0.2312675E+03  0.9118800E+02  0.7818608E-02  0.1180000E+00
       11   -1    0    0    0    0  0.00000000000E+00  0.00000000000E+00  0.54999999763E+01  0.55000000000E+01  0.51109989000E-03 0.  1.
     -623   -1    0    0    0    0  0.00000000000E+00  0.00000000000E+00  0.93234578044E-11  0.17124000000E+03  0.17124000000E+03 0. -1.
       11    1    1    2    0    0  0.60626204599E-01 -0.41387847580E-01  0.70501408026E+00  0.70882551111E+00  0.51109989000E-03 0.  1.
     -623    1    1    2    0    0  0.53498504068E-02  0.49411951944E-02  0.44060534109E-02  0.17124000021E+03  0.17124000000E+03 0. -1.
     -611    1    1    2    0    0 -0.25319662921E-01  0.12519463836E-01  0.18724540649E+01  0.18726671644E+01  0.51109989000E-03 0. -1.
      611    1    1    2    0    0 -0.40656392091E-01  0.23927188554E-01  0.29181257782E+01  0.29185071135E+01  0.51109989000E-03 0.  1.
</event>
<event>
 6   3  0.2312675E+03  0.9118800E+02  0.7818608E-02  0.1180000E+00
       11   -1    0    0    0    0  0.00000000000E+00  0.00000000000E+00  0.54999999763E+01  0.55000000000E+01  0.51109989000E-03 0. -1.
     -623   -1    0    0    0    0  0.00000000000E+00  0.00000000000E+00  0.93234578044E-11  0.17124000000E+03  0.17124000000E+03 0.  1.
       11    1    1    2    0    0  0.80914605991E-02 -0.19618852588E-01  0.40165836142E+00  0.40221893495E+00  0.51109989000E-03 0. -1.
     -623    1    1    2    0    0 -0.13162235212E-02  0.48498379515E-03  0.12655034028E-02  0.17124000001E+03  0.17124000000E+03 0.  1.
     -611    1    1    2    0    0  0.37678198943E-01  0.10182966234E-01  0.26040721054E+01  0.26043646310E+01  0.51109989000E-03 0. -1.
      611    1    1    2    0    0 -0.44453436021E-01  0.89509025579E-02  0.24930040060E+01  0.24934164236E+01  0.51109989000E-03 0.  1.
</event>
<event>
 6   3  0.2312675E+03  0.9118800E+02  0.7818608E-02  0.1180000E+00
       11   -1    0    0    0    0  0.00000000000E+00  0.00000000000E+00  0.54999999763E+01  0.55000000000E+01  0.51109989000E-03 0.  1.
     -623   -1    0    0    0    0  0.00000000000E+00  0.00000000000E+00  0.93234578044E-11  0.17124000000E+03  0.17124000000E+03 0.  1.
       11    1    1    2    0    0  0.17728192041E-01 -0.32422954681E-01  0.37279649215E+00  0.37462384143E+00  0.51109989000E-03 0.  1.
     -623    1    1    2    0    0  0.47463047277E-01 -0.79839409312E-02  0.24151558627E-02  0.17124000678E+03  0.17124000000E+03 0.  1.
     -611    1    1    2    0    0 -0.46691353716E-01  0.28358116553E-01  0.38898978316E+01  0.38902814380E+01  0.51109989000E-03 0.  1.
      611    1    1    2    0    0 -0.18499885602E-01  0.12048779059E-01  0.12348904967E+01  0.12350879397E+01  0.51109989000E-03 0. -1.
</event>
<event>
 6   3  0.2312675E+03  0.9118800E+02  0.7818608E-02  0.1180000E+00
       11   -1    0    0    0    0  0.00000000000E+00  0.00000000000E+00  0.54999999763E+01  0.55000000000E+01  0.51109989000E-03 0. -1.
     -623   -1    0    0    0    0  0.00000000000E+00  0.00000000000E+00  0.93234578044E-11  0.17124000000E+03  0.17124000000E+03 0.  1.
       11    1    1    2    0    0  0.27823105375E-01  0.91753488080E-03  0.56919935486E-01  0.63364874669E-01  0.51109989000E-03 0. -1.
     -623    1    1    2    0    0  0.98877617005E-02 -0.31190203349E-02  0.83309546026E-02  0.17124000052E+03  0.17124000000E+03 0.  1.
     -611    1    1    2    0    0 -0.85576696698E-01  0.11555536294E-01  0.42573701175E+01  0.42582458219E+01  0.51109989000E-03 0. -1.
      611    1    1    2    0    0  0.47865829622E-01 -0.93540508395E-02  0.11773789687E+01  0.11783887869E+01  0.51109989000E-03 0.  1.
</event>
<event>
 6   3  0.2312675E+03  0.9118800E+02  0.7818608E-02  0.1180000E+00
       11   -1    0    0    0    0  0.00000000000E+00  0.00000000000E+00  0.54999999763E+01  0.55000000000E+01  0.51109989000E-03 0. -1.
     -623   -1    0    0    0    0  0.00000000000E+00  0.00000000000E+00  0.93234578044E-11  0.17124000000E+03  0.17124000000E+03 0.  1.
       11    1    1    2    0    0 -0.39754943062E-01 -0.78884808202E-01  0.47371252773E+00  0.48187870736E+00  0.51109989000E-03 0. -1.
     -623    1    1    2    0    0  0.12327583093E-01 -0.15404940426E-02  0.10358747203E-01  0.17124000076E+03  0.17124000000E+03 0.  1.
     -611    1    1    2    0    0 -0.41153262058E-01  0.32574517439E-02  0.19979819418E+01  0.19984084425E+01  0.51109989000E-03 0.  1.
      611    1    1    2    0    0  0.68580622028E-01  0.77167850500E-01  0.30179467595E+01  0.30197120862E+01  0.51109989000E-03 0. -1.
</event>
<event>
 6   3  0.2312675E+03  0.9118800E+02  0.7818608E-02  0.1180000E+00
       11   -1    0    0    0    0  0.00000000000E+00  0.00000000000E+00  0.54999999763E+01  0.55000000000E+01  0.51109989000E-03 0.  1.
     -623   -1    0    0    0    0  0.00000000000E+00  0.00000000000E+00  0.93234578044E-11  0.17124000000E+03  0.17124000000E+03 0.  1.
       11    1    1    2    0    0  0.13443590382E-01 -0.11371066245E-01  0.11497724159E+00  0.11631877998E+00  0.51109989000E-03 0.  1.
     -623    1    1    2    0    0  0.64566593382E-02  0.31886797579E-03  0.21951458134E-02  0.17124000014E+03  0.17124000000E+03 0.  1.
     -611    1    1    2    0    0 -0.49893439880E-01 -0.12893187162E-01  0.39619860662E+01  0.39623212187E+01  0.51109989000E-03 0.  1.
      611    1    1    2    0    0  0.29993190160E-01  0.23945385432E-01  0.14208415226E+01  0.14213598652E+01  0.51109989000E-03 0. -1.
</event>
<event>
 6   3  0.2312675E+03  0.9118800E+02  0.7818608E-02  0.1180000E+00
       11   -1    0    0    0    0  0.00000000000E+00  0.00000000000E+00  0.54999999763E+01  0.55000000000E+01  0.51109989000E-03 0.  1.
     -623   -1    0    0    0    0  0.00000000000E+00  0.00000000000E+00  0.93234578044E-11  0.17124000000E+03  0.17124000000E+03 0.  1.
       11    1    1    2    0    0  0.58427853444E-01  0.10210540827E+00  0.71221676212E+00  0.72186723566E+00  0.51109989000E-03 0.  1.
     -623    1    1    2    0    0 -0.16809232956E-01  0.89023805769E-02  0.12614096207E-01  0.17124000152E+03  0.17124000000E+03 0.  1.
     -611    1    1    2    0    0  0.34860218907E-01 -0.29231648778E-02  0.12045895555E+01  0.12050975223E+01  0.51109989000E-03 0. -1.
      611    1    1    2    0    0 -0.76478839395E-01 -0.10808462397E+00  0.35705795624E+01  0.35730337210E+01  0.51109989000E-03 0.  1.
</event>
<event>
 6   3  0.2312675E+03  0.9118800E+02  0.7818608E-02  0.1180000E+00
       11   -1    0    0    0    0  0.00000000000E+00  0.00000000000E+00  0.54999999763E+01  0.55000000000E+01  0.51109989000E-03 0. -1.
     -623   -1    0    0    0    0  0.00000000000E+00  0.00000000000E+00  0.93234578044E-11  0.17124000000E+03  0.17124000000E+03 0.  1.
       11    1    1    2    0    0  0.38698124875E-02 -0.35566074801E-02  0.87296951623E-02  0.10202632316E-01  0.51109989000E-03 0. -1.
     -623    1    1    2    0    0 -0.47985011935E-02  0.45201079175E-02  0.26194008240E-02  0.17124000015E+03  0.17124000000E+03 0.  1.
     -611    1    1    2    0    0 -0.53440848454E-01 -0.15016918492E-01  0.24668342951E+01  0.24674588412E+01  0.51109989000E-03 0.  1.
      611    1    1    2    0    0  0.54369537160E-01  0.14053418054E-01  0.30218165852E+01  0.30223383797E+01  0.51109989000E-03 0. -1.
</event>
<event>
 6   3  0.8124046E+03  0.9118800E+02  0.7818608E-02  0.1180000E+00
       11   -1    0    0    0    0  0.00000000000E+00  0.00000000000E+00  0.54999999763E+01  0.55000000000E+01  0.51109989000E-03 0.  1.
     -623   -1    0    0    0    0  0.00000000000E+00  0.00000000000E+00  0.93234578044E-11  0.17124000000E+03  0.17124000000E+03 0. -1.
       11    1    1    2    0    0 -0.27617519601E-01  0.14902655427E-01  0.53276023690E+00  0.53368393996E+00  0.51109989000E-03 0.  1.
     -623    1    1    2    0    0  0.21677738460E+00 -0.11857084965E+00  0.57902699006E-02  0.17124017836E+03  0.17124000000E+03 0. -1.
     -611    1    1    2    0    0 -0.13392158519E+00  0.74953720057E-01  0.35500902544E+01  0.35534059896E+01  0.51109989000E-03 0.  1.
      611    1    1    2    0    0 -0.55238279703E-01  0.28714474110E-01  0.14113592123E+01  0.14127317070E+01  0.51109989000E-03 0.  1.
</event>
<event>
 6   3  0.2312675E+03  0.9118800E+02  0.7818608E-02  0.1180000E+00
       11   -1    0    0    0    0  0.00000000000E+00  0.00000000000E+00  0.54999999763E+01  0.55000000000E+01  0.51109989000E-03 0.  1.
     -623   -1    0    0    0    0  0.00000000000E+00  0.00000000000E+00  0.93234578044E-11  0.17124000000E+03  0.17124000000E+03 0.  1.
       11    1    1    2    0    0  0.13096032827E-01  0.72929784114E-02  0.10934696992E+01  0.10935725572E+01  0.51109989000E-03 0.  1.
     -623    1    1    2    0    0 -0.87978060481E-01 -0.81527125410E-02  0.77897541557E-03  0.17124002280E+03  0.17124000000E+03 0.  1.
     -611    1    1    2    0    0  0.19236103847E-01 -0.48380507174E-02  0.12538887155E+01  0.12540456956E+01  0.51109989000E-03 0. -1.
      611    1    1    2    0    0  0.55645923838E-01  0.56977848500E-02  0.31518625881E+01  0.31523589530E+01  0.51109989000E-03 0.  1.
</event>
<event>
 6   3  0.2312675E+03  0.9118800E+02  0.7818608E-02  0.1180000E+00
       11   -1    0    0    0    0  0.00000000000E+00  0.00000000000E+00  0.54999999763E+01  0.55000000000E+01  0.51109989000E-03 0.  1.
     -623   -1    0    0    0    0  0.00000000000E+00  0.00000000000E+00  0.93234578044E-11  0.17124000000E+03  0.17124000000E+03 0.  1.
       11    1    1    2    0    0 -0.14522592411E-02 -0.66871832993E-02  0.21831245555E+00  0.21842027596E+00  0.51109989000E-03 0.  1.
     -623    1    1    2    0    0 -0.17363975969E-02 -0.14786701117E-02  0.14542314977E-02  0.17124000002E+03  0.17124000000E+03 0.  1.
     -611    1    1    2    0    0  0.49373136186E-01 -0.29558377222E-01  0.30842216093E+01  0.30847584347E+01  0.51109989000E-03 0. -1.
      611    1    1    2    0    0 -0.46184479348E-01  0.37724230633E-01  0.21960116799E+01  0.21968212679E+01  0.51109989000E-03 0.  1.
</event>
<event>
 6   3  0.2312675E+03  0.9118800E+02  0.7818608E-02  0.1180000E+00
       11   -1    0    0    0    0  0.00000000000E+00  0.00000000000E+00  0.54999999763E+01  0.55000000000E+01  0.51109989000E-03 0. -1.
     -623   -1    0    0    0    0  0.00000000000E+00  0.00000000000E+00  0.93234578044E-11  0.17124000000E+03  0.17124000000E+03 0. -1.
       11    1    1    2    0    0 -0.75651588483E-01 -0.94278598244E-01  0.58491348183E+00  0.59727352141E+00  0.51109989000E-03 0. -1.
     -623    1    1    2    0    0 -0.64118351047E-02  0.38704867215E-01  0.13367527546E-01  0.17124000502E+03  0.17124000000E+03 0. -1.
     -611    1    1    2    0    0  0.62244533878E-01  0.43250307260E-01  0.37445682562E+01  0.37453353198E+01  0.51109989000E-03 0. -1.
      611    1    1    2    0    0  0.19818889735E-01  0.12323423787E-01  0.11571507122E+01  0.11573861444E+01  0.51109989000E-03 0. -1.
</event>
<event>
 6   3  0.2312675E+03  0.9118800E+02  0.7818608E-02  0.1180000E+00
       11   -1    0    0    0    0  0.00000000000E+00  0.00000000000E+00  0.54999999763E+01  0.55000000000E+01  0.51109989000E-03 0.  1.
     -623   -1    0    0    0    0  0.00000000000E+00  0.00000000000E+00  0.93234578044E-11  0.17124000000E+03  0.17124000000E+03 0. -1.
       11    1    1    2    0    0  0.22014301963E-02 -0.10736912003E-02  0.11112961609E+00  0.11115777932E+00  0.51109989000E-03 0.  1.
     -623    1    1    2    0    0 -0.73033889151E-01 -0.46530239587E-01  0.72608435513E-03  0.17124002190E+03  0.17124000000E+03 0. -1.
     -611    1    1    2    0    0  0.10134339160E-01  0.66619852891E-02  0.75941896182E+00  0.75951596934E+00  0.51109989000E-03 0.  1.
      611    1    1    2    0    0  0.60698119812E-01  0.40941945509E-01  0.46287253153E+01  0.46293043549E+01  0.51109989000E-03 0.  1.
</event>
<event>
 6   3  0.2312675E+03  0.9118800E+02  0.7818608E-02  0.1180000E+00
       11   -1    0    0    0    0  0.00000000000E+00  0.00000000000E+00  0.54999999763E+01  0.55000000000E+01  0.51109989000E-03 0.  1.
     -623   -1    0    0    0    0  0.00000000000E+00  0.00000000000E+00  0.93234578044E-11  0.17124000000E+03  0.17124000000E+03 0.  1.
       11    1    1    2    0    0 -0.65762568709E-03  0.33149154764E-02  0.17979269993E-01  0.18301270687E-01  0.51109989000E-03 0.  1.
     -623    1    1    2    0    0  0.49797847202E-03  0.13674361922E-03  0.80255762969E-03  0.17124000000E+03  0.17124000000E+03 0.  1.
     -611    1    1    2    0    0  0.34558809927E-01  0.78670205941E-02  0.22766753275E+01  0.22769512532E+01  0.51109989000E-03 0. -1.
      611    1    1    2    0    0 -0.34399162711E-01 -0.11318679690E-01  0.32045428209E+01  0.32047474733E+01  0.51109989000E-03 0.  1.
</event>
<event>
 6   3  0.2312675E+03  0.9118800E+02  0.7818608E-02  0.1180000E+00
       11   -1    0    0    0    0  0.00000000000E+00  0.00000000000E+00  0.54999999763E+01  0.55000000000E+01  0.51109989000E-03 0.  1.
     -623   -1    0    0    0    0  0.00000000000E+00  0.00000000000E+00  0.93234578044E-11  0.17124000000E+03  0.17124000000E+03 0.  1.
       11    1    1    2    0    0 -0.12462176441E+00 -0.10434498758E-01  0.43524388699E+00  0.45285424290E+00  0.51109989000E-03 0.  1.
     -623    1    1    2    0    0  0.10331409332E-01  0.29941825935E-01  0.18979881482E-01  0.17124000398E+03  0.17124000000E+03 0.  1.
     -611    1    1    2    0    0  0.79412701120E-01 -0.92079909075E-02  0.31331974463E+01  0.31342172329E+01  0.51109989000E-03 0. -1.
      611    1    1    2    0    0  0.34877653957E-01 -0.10299336270E-01  0.19125787615E+01  0.19129245430E+01  0.51109989000E-03 0.  1.
</event>
<event>
 6   3  0.2312675E+03  0.9118800E+02  0.7818608E-02  0.1180000E+00
       11   -1    0    0    0    0  0.00000000000E+00  0.00000000000E+00  0.54999999763E+01  0.55000000000E+01  0.51109989000E-03 0. -1.
     -623   -1    0    0    0    0  0.00000000000E+00  0.00000000000E+00  0.93234578044E-11  0.17124000000E+03  0.17124000000E+03 0.  1.
       11    1    1    2    0    0  0.27951048716E-01  0.28483796977E-01  0.14890931528E+00  0.15416495456E+00  0.51109989000E-03 0. -1.
     -623    1    1    2    0    0 -0.16473287047E-02  0.36778846214E-01  0.18965867307E-01  0.17124000501E+03  0.17124000000E+03 0.  1.
     -611    1    1    2    0    0  0.53798353455E-01  0.11344934182E+00  0.36794798656E+01  0.36816215665E+01  0.51109989000E-03 0. -1.
      611    1    1    2    0    0 -0.80102073467E-01 -0.17871198501E+00  0.16526449281E+01  0.16642084711E+01  0.51109989000E-03 0.  1.
</event>
<event>
 6   3  0.2312675E+03  0.9118800E+02  0.7818608E-02  0.1180000E+00
       11   -1    0    0    0    0  0.00000000000E+00  0.00000000000E+00  0.54999999763E+01  0.55000000000E+01  0.51109989000E-03 0.  1.
     -623   -1    0    0    0    0  0.00000000000E+00  0.00000000000E+00  0.93234578044E-11  0.17124000000E+03  0.17124000000E+03 0. -1.
       11    1    1    2    0    0 -0.87235556124E-01 -0.15852244996E-02  0.96181769977E+00  0.96576710651E+00  0.51109989000E-03 0.  1.
     -623    1    1    2    0    0  0.34991495960E-01 -0.39461947890E-02  0.42575981095E-02  0.17124000367E+03  0.17124000000E+03 0. -1.
     -611    1    1    2    0    0  0.21454610273E-01  0.22249264409E-02  0.18918333751E+01  0.18919564030E+01  0.51109989000E-03 0. -1.
      611    1    1    2    0    0  0.30789449828E-01  0.33064928409E-02  0.26420912978E+01  0.26422728115E+01  0.51109989000E-03 0.  1.
</event>
<event>
 6   3  0.2312675E+03  0.9118800E+02  0.7818608E-02  0.1180000E+00
       11   -1    0    0    0    0  0.00000000000E+00  0.00000000000E+00  0.54999999763E+01  0.55000000000E+01  0.51109989000E-03 0. -1.
     -623   -1    0    0    0    0  0.00000000000E+00  0.00000000000E+00  0.93234578044E-11  0.17124000000E+03  0.17124000000E+03 0. -1.
       11    1    1    2    0    0  0.40025432111E-01  0.12228733036E-01  0.63799127200E+00  0.63936273077E+00  0.51109989000E-03 0. -1.
     -623    1    1    2    0    0  0.11116060661E-01 -0.21769955809E-02  0.16524422954E-02  0.17124000038E+03  0.17124000000E+03 0. -1.
     -611    1    1    2    0    0 -0.30982630806E-01 -0.45453581888E-02  0.29556502994E+01  0.29558162218E+01  0.51109989000E-03 0. -1.
      611    1    1    2    0    0 -0.20158861967E-01 -0.55063792673E-02  0.19047059628E+01  0.19048206650E+01  0.51109989000E-03 0. -1.
</event>
<event>
 6   3  0.2312675E+03  0.9118800E+02  0.7818608E-02  0.1180000E+00
       11   -1    0    0    0    0  0.00000000000E+00  0.00000000000E+00  0.54999999763E+01  0.55000000000E+01  0.51109989000E-03 0. -1.
     -623   -1    0    0    0    0  0.00000000000E+00  0.00000000000E+00  0.93234578044E-11  0.17124000000E+03  0.17124000000E+03 0. -1.
       11    1    1    2    0    0  0.11037528129E-01  0.18522870678E-01  0.51502199494E+00  0.51547341373E+00  0.51109989000E-03 0. -1.
     -623    1    1    2    0    0 -0.76279970273E-01  0.93199531909E-02  0.10050521346E-02  0.17124001725E+03  0.17124000000E+03 0. -1.
     -611    1    1    2    0    0  0.29056405497E-01 -0.59029106814E-02  0.25006122117E+01  0.25007880385E+01  0.51109989000E-03 0.  1.
      611    1    1    2    0    0  0.36186036648E-01 -0.21939913187E-01  0.24833607177E+01  0.24837213017E+01  0.51109989000E-03 0. -1.
</event>
<event>
 6   3  0.2312675E+03  0.9118800E+02  0.7818608E-02  0.1180000E+00
       11   -1    0    0    0    0  0.00000000000E+00  0.00000000000E+00  0.54999999763E+01  0.55000000000E+01  0.51109989000E-03 0. -1.
     -623   -1    0    0    0    0  0.00000000000E+00  0.00000000000E+00  0.93234578044E-11  0.17124000000E+03  0.17124000000E+03 0.  1.
       11    1    1    2    0    0  0.21722117899E-01 -0.17008746302E-01  0.43357010314E+00  0.43444728497E+00  0.51109989000E-03 0. -1.
     -623    1    1    2    0    0  0.37243725521E-01 -0.37764400017E-01  0.15285199509E-02  0.17124000822E+03  0.17124000000E+03 0.  1.
     -611    1    1    2    0    0 -0.11593458316E-01  0.11116995362E-01  0.86850180172E+00  0.86865046865E+00  0.51109989000E-03 0.  1.
      611    1    1    2    0    0 -0.47372385102E-01  0.43656150955E-01  0.41963995513E+01  0.41968940250E+01  0.51109989000E-03 0. -1.
</event>
<event>
 6   3  0.2312675E+03  0.9118800E+02  0.7818608E-02  0.1180000E+00
       11   -1    0    0    0    0  0.00000000000E+00  0.00000000000E+00  0.54999999763E+01  0.55000000000E+01  0.51109989000E-03 0. -1.
     -623   -1    0    0    0    0  0.00000000000E+00  0.00000000000E+00  0.93234578044E-11  0.17124000000E+03  0.17124000000E+03 0.  1.
       11    1    1    2    0    0  0.63532606973E-01 -0.19899956053E-02  0.82467673725E+00  0.82712292582E+00  0.51109989000E-03 0. -1.
     -623    1    1    2    0    0 -0.81674316724E-02 -0.93139855504E-03  0.27756697880E-02  0.17124000022E+03  0.17124000000E+03 0.  1.
     -611    1    1    2    0    0 -0.13172243751E-01  0.11071503432E-03  0.11243329573E+01  0.11244102366E+01  0.51109989000E-03 0.  1.
      611    1    1    2    0    0 -0.42192931516E-01  0.28106791243E-02  0.35482146091E+01  0.35484666149E+01  0.51109989000E-03 0. -1.
</event>
<event>
 6   3  0.2312675E+03  0.9118800E+02  0.7818608E-02  0.1180000E+00
       11   -1    0    0    0    0  0.00000000000E+00  0.00000000000E+00  0.54999999763E+01  0.55000000000E+01  0.51109989000E-03 0.  1.
     -623   -1    0    0    0    0  0.00000000000E+00  0.00000000000E+00  0.93234578044E-11  0.17124000000E+03  0.17124000000E+03 0.  1.
       11    1    1    2    0    0 -0.16337187983E-02 -0.35907090942E-02  0.23529333880E+00  0.23532696135E+00  0.51109989000E-03 0.  1.
     -623    1    1    2    0    0  0.26433607236E-01 -0.13345706259E-01  0.21349957115E-02  0.17124000257E+03  0.17124000000E+03 0.  1.
     -611    1    1    2    0    0  0.35360528553E-01 -0.27818360716E-01  0.68076920466E+00  0.68225449754E+00  0.51109989000E-03 0.  1.
      611    1    1    2    0    0 -0.60160416991E-01  0.44754776069E-01  0.45818024371E+01  0.45824159676E+01  0.51109989000E-03 0. -1.
</event>
<event>
 6   3  0.2312675E+03  0.9118800E+02  0.7818608E-02  0.1180000E+00
       11   -1    0    0    0    0  0.00000000000E+00  0.00000000000E+00  0.54999999763E+01  0.55000000000E+01  0.51109989000E-03 0. -1.
     -623   -1    0    0    0    0  0.00000000000E+00  0.00000000000E+00  0.93234578044E-11  0.17124000000E+03  0.17124000000E+03 0. -1.
       11    1    1    2    0    0 -0.48683535488E-01  0.13054463275E-01  0.23584186900E+00  0.24116831060E+00  0.51109989000E-03 0. -1.
     -623    1    1    2    0    0 -0.65690968809E-02  0.37698418039E-02  0.56440570838E-02  0.17124000026E+03  0.17124000000E+03 0. -1.
     -611    1    1    2    0    0  0.17496431832E-01 -0.48777485013E-02  0.16539786507E+01  0.16540784611E+01  0.51109989000E-03 0. -1.
      611    1    1    2    0    0  0.37756200500E-01 -0.11946556566E-01  0.36045353960E+01  0.36047529642E+01  0.51109989000E-03 0. -1.
</event>
<event>
 6   3  0.2312675E+03  0.9118800E+02  0.7818608E-02  0.1180000E+00
       11   -1    0    0    0    0  0.00000000000E+00  0.00000000000E+00  0.54999999763E+01  0.55000000000E+01  0.51109989000E-03 0.  1.
     -623   -1    0    0    0    0  0.00000000000E+00  0.00000000000E+00  0.93234578044E-11  0.17124000000E+03  0.17124000000E+03 0. -1.
       11    1    1    2    0    0 -0.86306652944E-02  0.44731599217E-03  0.45805641693E-01  0.46616590491E-01  0.51109989000E-03 0.  1.
     -623    1    1    2    0    0  0.23675464952E-03 -0.48126095556E-02  0.17865855139E-02  0.17124000008E+03  0.17124000000E+03 0. -1.
     -611    1    1    2    0    0 -0.40549294208E-01 -0.82881298842E-02  0.37412122193E+01  0.37414411754E+01  0.51109989000E-03 0.  1.
      611    1    1    2    0    0  0.48943204853E-01  0.12653423448E-01  0.17111955297E+01  0.17119421569E+01  0.51109989000E-03 0. -1.
</event>
<event>
 6   3  0.2312675E+03  0.9118800E+02  0.7818608E-02  0.1180000E+00
       11   -1    0    0    0    0  0.00000000000E+00  0.00000000000E+00  0.54999999763E+01  0.55000000000E+01  0.51109989000E-03 0.  1.
     -623   -1    0    0    0    0  0.00000000000E+00  0.00000000000E+00  0.93234578044E-11  0.17124000000E+03  0.17124000000E+03 0.  1.
       11    1    1    2    0    0 -0.16822201387E-01 -0.16146002849E-01  0.91202526521E+00  0.91232342153E+00  0.51109989000E-03 0.  1.
     -623    1    1    2    0    0  0.79546746049E-01  0.25394742433E-01  0.75738109310E-03  0.17124002036E+03  0.17124000000E+03 0.  1.
     -611    1    1    2    0    0 -0.41531057734E-01 -0.71017358593E-02  0.30876270078E+01  0.30879145169E+01  0.51109989000E-03 0.  1.
      611    1    1    2    0    0 -0.21193486933E-01 -0.21470037255E-02  0.14995903226E+01  0.14997417012E+01  0.51109989000E-03 0.  1.
</event>
<event>
 6   3  0.2312675E+03  0.9118800E+02  0.7818608E-02  0.1180000E+00
       11   -1    0    0    0    0  0.00000000000E+00  0.00000000000E+00  0.54999999763E+01  0.55000000000E+01  0.51109989000E-03 0. -1.
     -623   -1    0    0    0    0  0.00000000000E+00  0.00000000000E+00  0.93234578044E-11  0.17124000000E+03  0.17124000000E+03 0. -1.
       11    1    1    2    0    0  0.15685258284E-01  0.21622708811E-01  0.14544579211E+00  0.14787937155E+00  0.51109989000E-03 0. -1.
     -623    1    1    2    0    0  0.50913920538E-04 -0.16930193437E-01  0.46844900744E-02  0.17124000090E+03  0.17124000000E+03 0. -1.
     -611    1    1    2    0    0  0.51238285265E-01  0.22111813154E-01  0.93706894121E+00  0.93872933051E+00  0.51109989000E-03 0.  1.
      611    1    1    2    0    0 -0.66974457470E-01 -0.26804328528E-01  0.44128007529E+01  0.44133903970E+01  0.51109989000E-03 0. -1.
</event>
<event>
 6   3  0.2312675E+03  0.9118800E+02  0.7818608E-02  0.1180000E+00
       11   -1    0    0    0    0  0.00000000000E+00  0.00000000000E+00  0.54999999763E+01  0.55000000000E+01  0.51109989000E-03 0. -1.
     -623   -1    0    0    0    0  0.00000000000E+00  0.00000000000E+00  0.93234578044E-11  0.17124000000E+03  0.17124000000E+03 0. -1.
       11    1    1    2    0    0 -0.48494531495E-02  0.21874396872E-02  0.18212402841E-01  0.18980382730E-01  0.51109989000E-03 0. -1.
     -623    1    1    2    0    0  0.66058414543E-02 -0.79146580839E-03  0.30342378975E-02  0.17124000016E+03  0.17124000000E+03 0. -1.
     -611    1    1    2    0    0 -0.78222297412E-01  0.76723709671E-02  0.32011339902E+01  0.32020987926E+01  0.51109989000E-03 0. -1.
      611    1    1    2    0    0  0.76465909107E-01 -0.90683448459E-02  0.22776193453E+01  0.22789206686E+01  0.51109989000E-03 0.  1.
</event>
<event>
 6   3  0.2312675E+03  0.9118800E+02  0.7818608E-02  0.1180000E+00
       11   -1    0    0    0    0  0.00000000000E+00  0.00000000000E+00  0.54999999763E+01  0.55000000000E+01  0.51109989000E-03 0. -1.
     -623   -1    0    0    0    0  0.00000000000E+00  0.00000000000E+00  0.93234578044E-11  0.17124000000E+03  0.17124000000E+03 0.  1.
       11    1    1    2    0    0  0.12804338124E-02  0.10485849076E-01  0.38565417777E+00  0.38579916873E+00  0.51109989000E-03 0. -1.
     -623    1    1    2    0    0 -0.78034515302E-01 -0.72757353337E-01  0.11399257093E-02  0.17124003324E+03  0.17124000000E+03 0.  1.
     -611    1    1    2    0    0  0.34479181556E-01  0.28078432389E-01  0.20939476880E+01  0.20944198226E+01  0.51109989000E-03 0.  1.
      611    1    1    2    0    0  0.42274899932E-01  0.34193071872E-01  0.30192581848E+01  0.30197477678E+01  0.51109989000E-03 0. -1.
</event>
<event>
 6   3  0.2312675E+03  0.9118800E+02  0.7818608E-02  0.1180000E+00
       11   -1    0    0    0    0  0.00000000000E+00  0.00000000000E+00  0.54999999763E+01  0.55000000000E+01  0.51109989000E-03 0. -1.
     -623   -1    0    0    0    0  0.00000000000E+00  0.00000000000E+00  0.93234578044E-11  0.17124000000E+03  0.17124000000E+03 0.  1.
       11    1    1    2    0    0  0.96745488554E-01  0.42084208410E-01  0.95514887678E+00  0.96095806786E+00  0.51109989000E-03 0. -1.
     -623    1    1    2    0    0 -0.11047099386E-01 -0.68070623121E-02  0.67574797302E-02  0.17124000062E+03  0.17124000000E+03 0.  1.
     -611    1    1    2    0    0 -0.56165703579E-01 -0.24405611043E-01  0.29396444175E+01  0.29402822624E+01  0.51109989000E-03 0. -1.
      611    1    1    2    0    0 -0.29532685591E-01 -0.10871535056E-01  0.15984492023E+01  0.15987590448E+01  0.51109989000E-03 0.  1.
</event>
<event>
 6   3  0.2312675E+03  0.9118800E+02  0.7818608E-02  0.1180000E+00
       11   -1    0    0    0    0  0.00000000000E+00  0.00000000000E+00  0.54999999763E+01  0.55000000000E+01  0.51109989000E-03 0. -1.
     -623   -1    0    0    0    0  0.00000000000E+00  0.00000000000E+00  0.93234578044E-11  0.17124000000E+03  0.17124000000E+03 0.  1.
       11    1    1    2    0    0  0.72812638042E-02  0.17811495985E-02  0.32397429956E+00  0.32406140976E+00  0.51109989000E-03 0. -1.
     -623    1    1    2    0    0 -0.90614253498E-01 -0.16339627013E-01  0.80411672148E-03  0.17124002476E+03  0.17124000000E+03 0.  1.
     -611    1    1    2    0    0  0.13607281692E-01  0.19805180936E-02  0.78589133376E+00  0.78601178761E+00  0.51109989000E-03 0.  1.
      611    1    1    2    0    0  0.69725707632E-01  0.12577959254E-01  0.43893302037E+01  0.43899020237E+01  0.51109989000E-03 0. -1.
</event>
<event>
 6   3  0.2312675E+03  0.9118800E+02  0.7818608E-02  0.1180000E+00
       11   -1    0    0    0    0  0.00000000000E+00  0.00000000000E+00  0.54999999763E+01  0.55000000000E+01  0.51109989000E-03 0.  1.
     -623   -1    0    0    0    0  0.00000000000E+00  0.00000000000E+00  0.93234578044E-11  0.17124000000E+03  0.17124000000E+03 0. -1.
       11    1    1    2    0    0 -0.73108418636E-01  0.10286318385E-01  0.64109161335E+00  0.64532888294E+00  0.51109989000E-03 0.  1.
     -623    1    1    2    0    0  0.79922067367E-02 -0.13473268637E-01  0.47418440690E-02  0.17124000078E+03  0.17124000000E+03 0. -1.
     -611    1    1    2    0    0  0.52891726247E-01  0.12571727977E-01  0.39083637865E+01  0.39087419116E+01  0.51109989000E-03 0.  1.
      611    1    1    2    0    0  0.12224485652E-01 -0.93847777257E-02  0.94580273239E+00  0.94592842325E+00  0.51109989000E-03 0. -1.
</event>
<event>
 6   3  0.2312675E+03  0.9118800E+02  0.7818608E-02  0.1180000E+00
       11   -1    0    0    0    0  0.00000000000E+00  0.00000000000E+00  0.54999999763E+01  0.55000000000E+01  0.51109989000E-03 0. -1.
     -623   -1    0    0    0    0  0.00000000000E+00  0.00000000000E+00  0.93234578044E-11  0.17124000000E+03  0.17124000000E+03 0. -1.
       11    1    1    2    0    0 -0.58840623747E-01  0.72780794738E-01  0.99933265444E+00  0.10037057729E+01  0.51109989000E-03 0. -1.
     -623    1    1    2    0    0 -0.16107870087E-01  0.70983098618E-03  0.63874909193E-02  0.17124000088E+03  0.17124000000E+03 0. -1.
     -611    1    1    2    0    0  0.58163877126E-01 -0.86918450116E-01  0.29304025808E+01  0.29322683030E+01  0.51109989000E-03 0. -1.
      611    1    1    2    0    0  0.16784616708E-01  0.13427824391E-01  0.15638772501E+01  0.15640250459E+01  0.51109989000E-03 0.  1.
</event>
<event>
 6   3  0.2312675E+03  0.9118800E+02  0.7818608E-02  0.1180000E+00
       11   -1    0    0    0    0  0.00000000000E+00  0.00000000000E+00  0.54999999763E+01  0.55000000000E+01  0.51109989000E-03 0. -1.
     -623   -1    0    0    0    0  0.00000000000E+00  0.00000000000E+00  0.93234578044E-11  0.17124000000E+03  0.17124000000E+03 0. -1.
       11    1    1    2    0    0 -0.24662193681E-02  0.12058504775E-02  0.79832390232E-02  0.84575198341E-02  0.51109989000E-03 0. -1.
     -623    1    1    2    0    0 -0.87480556116E-03 -0.24665511742E-02  0.10920957483E-02  0.17124000002E+03  0.17124000000E+03 0. -1.
     -611    1    1    2    0    0  0.41703264646E-01  0.17700393620E-02  0.22167741451E+01  0.22171671491E+01  0.51109989000E-03 0. -1.
      611    1    1    2    0    0 -0.38362239717E-01 -0.50933866526E-03  0.32741504964E+01  0.32743753076E+01  0.51109989000E-03 0.  1.
</event>
<event>
 6   3  0.2312675E+03  0.9118800E+02  0.7818608E-02  0.1180000E+00
       11   -1    0    0    0    0  0.00000000000E+00  0.00000000000E+00  0.54999999763E+01  0.55000000000E+01  0.51109989000E-03 0. -1.
     -623   -1    0    0    0    0  0.00000000000E+00  0.00000000000E+00  0.93234578044E-11  0.17124000000E+03  0.17124000000E+03 0.  1.
       11    1    1    2    0    0  0.12276149034E-01  0.92410497793E-02  0.45276927965E+00  0.45303022267E+00  0.51109989000E-03 0. -1.
     -623    1    1    2    0    0  0.13693208984E-01 -0.12379055464E-01  0.12803457143E-02  0.17124000100E+03  0.17124000000E+03 0.  1.
     -611    1    1    2    0    0 -0.48606473160E-01 -0.32749917828E-01  0.31276477449E+01  0.31281968966E+01  0.51109989000E-03 0. -1.
      611    1    1    2    0    0  0.22637115143E-01  0.35887923512E-01  0.19183026060E+01  0.19187718810E+01  0.51109989000E-03 0.  1.
</event>
<event>
 6   3  0.2312675E+03  0.9118800E+02  0.7818608E-02  0.1180000E+00
       11   -1    0    0    0    0  0.00000000000E+00  0.00000000000E+00  0.54999999763E+01  0.55000000000E+01  0.51109989000E-03 0.  1.
     -623   -1    0    0    0    0  0.00000000000E+00  0.00000000000E+00  0.93234578044E-11  0.17124000000E+03  0.17124000000E+03 0.  1.
       11    1    1    2    0    0 -0.40695201339E-02 -0.13421505641E-02  0.14497575331E+00  0.14503996909E+00  0.51109989000E-03 0.  1.
     -623    1    1    2    0    0  0.83299695815E-01  0.46750156922E-01  0.86972886040E-03  0.17124002664E+03  0.17124000000E+03 0.  1.
     -611    1    1    2    0    0 -0.29637410372E-01 -0.17487280442E-01  0.20168949544E+01  0.20171885632E+01  0.51109989000E-03 0.  1.
      611    1    1    2    0    0 -0.49592765239E-01 -0.27920725876E-01  0.33372595350E+01  0.33377448186E+01  0.51109989000E-03 0.  1.
</event>
<event>
 6   3  0.2312675E+03  0.9118800E+02  0.7818608E-02  0.1180000E+00
       11   -1    0    0    0    0  0.00000000000E+00  0.00000000000E+00  0.54999999763E+01  0.55000000000E+01  0.51109989000E-03 0.  1.
     -623   -1    0    0    0    0  0.00000000000E+00  0.00000000000E+00  0.93234578044E-11  0.17124000000E+03  0.17124000000E+03 0.  1.
       11    1    1    2    0    0  0.52312972936E-01  0.32292940191E-02  0.17426742595E+00  0.18197931873E+00  0.51109989000E-03 0.  1.
     -623    1    1    2    0    0  0.10633295569E-01  0.85525622777E-02  0.80989000731E-02  0.17124000074E+03  0.17124000000E+03 0.  1.
     -611    1    1    2    0    0 -0.39401365978E-01 -0.63300154882E-02  0.33662937949E+01  0.33665303670E+01  0.51109989000E-03 0.  1.
      611    1    1    2    0    0 -0.23544902500E-01 -0.54518408034E-02  0.19513398530E+01  0.19514895767E+01  0.51109989000E-03 0. -1.
</event>
<event>
 6   3  0.2312675E+03  0.9118800E+02  0.7818608E-02  0.1180000E+00
       11   -1    0    0    0    0  0.00000000000E+00  0.00000000000E+00  0.54999999763E+01  0.55000000000E+01  0.51109989000E-03 0. -1.
     -623   -1    0    0    0    0  0.00000000000E+00  0.00000000000E+00  0.93234578044E-11  0.17124000000E+03  0.17124000000E+03 0. -1.
       11    1    1    2    0    0  0.15450620657E-01  0.68917044680E-01  0.24410162361E+00  0.25411443209E+00  0.51109989000E-03 0. -1.
     -623    1    1    2    0    0 -0.20859161800E-01 -0.16013495868E-01  0.19429531593E-01  0.17124000312E+03  0.17124000000E+03 0. -1.
     -611    1    1    2    0    0  0.97349948920E-01  0.11930550465E-01  0.44818829641E+01  0.44829560020E+01  0.51109989000E-03 0. -1.
      611    1    1    2    0    0 -0.91941407776E-01 -0.64834099277E-01  0.75458585693E+00  0.76292644442E+00  0.51109989000E-03 0.  1.
</event>
<event>
 6   3  0.2312675E+03  0.9118800E+02  0.7818608E-02  0.1180000E+00
       11   -1    0    0    0    0  0.00000000000E+00  0.00000000000E+00  0.54999999763E+01  0.55000000000E+01  0.51109989000E-03 0. -1.
     -623   -1    0    0    0    0  0.00000000000E+00  0.00000000000E+00  0.93234578044E-11  0.17124000000E+03  0.17124000000E+03 0.  1.
       11    1    1    2    0    0 -0.51521858692E-01 -0.17776413370E-01  0.10645945878E+01  0.10659889307E+01  0.51109989000E-03 0. -1.
     -623    1    1    2    0    0 -0.15089338646E-01 -0.22137893491E-01  0.24785365076E-02  0.17124000211E+03  0.17124000000E+03 0.  1.
     -611    1    1    2    0    0  0.75916107320E-01  0.43106680858E-01  0.37814843756E+01  0.37824920073E+01  0.51109989000E-03 0. -1.
      611    1    1    2    0    0 -0.93049099818E-02 -0.31923739974E-02  0.65144247632E+00  0.65151694819E+00  0.51109989000E-03 0.  1.
</event>
<event>
 6   3  0.2312675E+03  0.9118800E+02  0.7818608E-02  0.1180000E+00
       11   -1    0    0    0    0  0.00000000000E+00  0.00000000000E+00  0.54999999763E+01  0.55000000000E+01  0.51109989000E-03 0.  1.
     -623   -1    0    0    0    0  0.00000000000E+00  0.00000000000E+00  0.93234578044E-11  0.17124000000E+03  0.17124000000E+03 0. -1.
       11    1    1    2    0    0 -0.63940176661E-01  0.23962556498E-01  0.86272535423E+00  0.86542350809E+00  0.51109989000E-03 0.  1.
     -623    1    1    2    0    0 -0.15662550655E-02  0.55310715273E-02  0.44276701978E-02  0.17124000015E+03  0.17124000000E+03 0. -1.
     -611    1    1    2    0    0  0.74257112333E-01  0.27543967739E-02  0.41050296104E+01  0.41057021408E+01  0.51109989000E-03 0.  1.
      611    1    1    2    0    0 -0.87506806060E-02 -0.32248024799E-01  0.52781734148E+00  0.52887419743E+00  0.51109989000E-03 0. -1.
</event>
<event>
 6   3  0.2312675E+03  0.9118800E+02  0.7818608E-02  0.1180000E+00
       11   -1    0    0    0    0  0.00000000000E+00  0.00000000000E+00  0.54999999763E+01  0.55000000000E+01  0.51109989000E-03 0. -1.
     -623   -1    0    0    0    0  0.00000000000E+00  0.00000000000E+00  0.93234578044E-11  0.17124000000E+03  0.17124000000E+03 0.  1.
       11    1    1    2    0    0  0.46346508229E-01  0.10479873828E+00  0.37164909870E+00  0.38891398556E+00  0.51109989000E-03 0. -1.
     -623    1    1    2    0    0  0.10112906099E-01 -0.31215094880E-01  0.18137136755E-01  0.17124000410E+03  0.17124000000E+03 0.  1.
     -611    1    1    2    0    0 -0.34819106851E-01 -0.37910903410E-01  0.31856909267E+01  0.31861068012E+01  0.51109989000E-03 0. -1.
      611    1    1    2    0    0 -0.21640307477E-01 -0.35672739994E-01  0.19245228141E+01  0.19249751090E+01  0.51109989000E-03 0.  1.
</event>
<event>
 6   3  0.2312675E+03  0.9118800E+02  0.7818608E-02  0.1180000E+00
       11   -1    0    0    0    0  0.00000000000E+00  0.00000000000E+00  0.54999999763E+01  0.55000000000E+01  0.51109989000E-03 0.  1.
     -623   -1    0    0    0    0  0.00000000000E+00  0.00000000000E+00  0.93234578044E-11  0.17124000000E+03  0.17124000000E+03 0. -1.
       11    1    1    2    0    0 -0.18907603594E-02 -0.34155701529E-02  0.36558693477E-02  0.53728668317E-02  0.51109989000E-03 0.  1.
     -623    1    1    2    0    0  0.98219797408E-02  0.73442292059E-02  0.29681265909E-02  0.17124000046E+03  0.17124000000E+03 0. -1.
     -611    1    1    2    0    0  0.34819410616E-01 -0.45175501275E-01  0.30084211314E+01  0.30089618114E+01  0.51109989000E-03 0. -1.
      611    1    1    2    0    0 -0.42750629997E-01  0.41246842222E-01  0.24849548489E+01  0.24856648569E+01  0.51109989000E-03 0.  1.
</event>
<event>
 6   3  0.2312675E+03  0.9118800E+02  0.7818608E-02  0.1180000E+00
       11   -1    0    0    0    0  0.00000000000E+00  0.00000000000E+00  0.54999999763E+01  0.55000000000E+01  0.51109989000E-03 0.  1.
     -623   -1    0    0    0    0  0.00000000000E+00  0.00000000000E+00  0.93234578044E-11  0.17124000000E+03  0.17124000000E+03 0.  1.
       11    1    1    2    0    0 -0.14774557439E-01 -0.25671528548E-02  0.25161121324E+00  0.25205821088E+00  0.51109989000E-03 0.  1.
     -623    1    1    2    0    0  0.42099674990E-01  0.23072502270E-01  0.10980976927E-02  0.17124000673E+03  0.17124000000E+03 0.  1.
     -611    1    1    2    0    0  0.18563673882E-01  0.14410540312E-01  0.11647195663E+01  0.11649567387E+01  0.51109989000E-03 0. -1.
      611    1    1    2    0    0 -0.45888791432E-01 -0.34915889727E-01  0.40825710989E+01  0.40829783173E+01  0.51109989000E-03 0.  1.
</event>
<event>
 6   3  0.2312675E+03  0.9118800E+02  0.7818608E-02  0.1180000E+00
       11   -1    0    0    0    0  0.00000000000E+00  0.00000000000E+00  0.54999999763E+01  0.55000000000E+01  0.51109989000E-03 0. -1.
     -623   -1    0    0    0    0  0.00000000000E+00  0.00000000000E+00  0.93234578044E-11  0.17124000000E+03  0.17124000000E+03 0.  1.
       11    1    1    2    0    0 -0.62892374375E-01  0.19099459865E-02  0.53332065725E+00  0.53701981651E+00  0.51109989000E-03 0. -1.
     -623    1    1    2    0    0  0.37185072653E-01 -0.62617637107E-01  0.91214128986E-02  0.17124001573E+03  0.17124000000E+03 0.  1.
     -611    1    1    2    0    0  0.89295243021E-01  0.11158567731E+00  0.25227592113E+01  0.25268041680E+01  0.51109989000E-03 0. -1.
      611    1    1    2    0    0 -0.63587941299E-01 -0.50877986194E-01  0.24347986948E+01  0.24361602864E+01  0.51109989000E-03 0.  1.
</event>
<event>
 6   3  0.2312675E+03  0.9118800E+02  0.7818608E-02  0.1180000E+00
       11   -1    0    0    0    0  0.00000000000E+00  0.00000000000E+00  0.54999999763E+01  0.55000000000E+01  0.51109989000E-03 0. -1.
     -623   -1    0    0    0    0  0.00000000000E+00  0.00000000000E+00  0.93234578044E-11  0.17124000000E+03  0.17124000000E+03 0.  1.
       11    1    1    2    0    0 -0.87140403885E-02  0.23822486813E-03  0.13764680315E+00  0.13792351101E+00  0.51109989000E-03 0. -1.
     -623    1    1    2    0    0  0.10191367505E+00  0.13982555501E-01  0.11378420433E-02  0.17124003090E+03  0.17124000000E+03 0.  1.
     -611    1    1    2    0    0 -0.26042165851E-01 -0.54207170062E-02  0.14662743301E+01  0.14665156838E+01  0.51109989000E-03 0. -1.
      611    1    1    2    0    0 -0.67157468814E-01 -0.88000633643E-02  0.38949410013E+01  0.38955299039E+01  0.51109989000E-03 0. -1.
</event>
<event>
 6   3  0.2312675E+03  0.9118800E+02  0.7818608E-02  0.1180000E+00
       11   -1    0    0    0    0  0.00000000000E+00  0.00000000000E+00  0.54999999763E+01  0.55000000000E+01  0.51109989000E-03 0. -1.
     -623   -1    0    0    0    0  0.00000000000E+00  0.00000000000E+00  0.93234578044E-11  0.17124000000E+03  0.17124000000E+03 0. -1.
       11    1    1    2    0    0  0.68965618295E-01 -0.15922227819E-02  0.47359831335E+00  0.47859629680E+00  0.51109989000E-03 0. -1.
     -623    1    1    2    0    0 -0.10132844728E-01 -0.26675525950E-01  0.54251855435E-02  0.17124000246E+03  0.17124000000E+03 0. -1.
     -611    1    1    2    0    0 -0.12518083624E-01  0.68514172753E-02  0.11180971293E+01  0.11181883098E+01  0.51109989000E-03 0.  1.
      611    1    1    2    0    0 -0.46314689922E-01  0.21416331446E-01  0.39028793463E+01  0.39032129282E+01  0.51109989000E-03 0. -1.
</event>
<event>
 6   3  0.2312675E+03  0.9118800E+02  0.7818608E-02  0.1180000E+00
       11   -1    0    0    0    0  0.00000000000E+00  0.00000000000E+00  0.54999999763E+01  0.55000000000E+01  0.51109989000E-03 0. -1.
     -623   -1    0    0    0    0  0.00000000000E+00  0.00000000000E+00  0.93234578044E-11  0.17124000000E+03  0.17124000000E+03 0. -1.
       11    1    1    2    0    0  0.94797320719E-01 -0.64188365573E-02  0.54969339427E+00  0.55784480136E+00  0.51109989000E-03 0. -1.
     -623    1    1    2    0    0 -0.18647637817E-01 -0.73901950214E-02  0.87607456516E-02  0.17124000140E+03  0.17124000000E+03 0. -1.
     -611    1    1    2    0    0 -0.97222093947E-02  0.40607767834E-03  0.60262550062E+00  0.60270427364E+00  0.51109989000E-03 0.  1.
      611    1    1    2    0    0 -0.66427473504E-01  0.13402953900E-01  0.43389203355E+01  0.43394495258E+01  0.51109989000E-03 0. -1.
</event>
<event>
 6   3  0.2312675E+03  0.9118800E+02  0.7818608E-02  0.1180000E+00
       11   -1    0    0    0    0  0.00000000000E+00  0.00000000000E+00  0.54999999763E+01  0.55000000000E+01  0.51109989000E-03 0.  1.
     -623   -1    0    0    0    0  0.00000000000E+00  0.00000000000E+00  0.93234578044E-11  0.17124000000E+03  0.17124000000E+03 0. -1.
       11    1    1    2    0    0 -0.99666144020E-02  0.44704682296E-02  0.96905353124E+00  0.96911522851E+00  0.51109989000E-03 0.  1.
     -623    1    1    2    0    0  0.63445138397E-01 -0.16572061577E-01  0.40622979993E-03  0.17124001256E+03  0.17124000000E+03 0. -1.
     -611    1    1    2    0    0 -0.32344247900E-01  0.77933979945E-02  0.27469089519E+01  0.27471104708E+01  0.51109989000E-03 0.  1.
      611    1    1    2    0    0 -0.21134275449E-01  0.43081951815E-02  0.17836312071E+01  0.17837616888E+01  0.51109989000E-03 0.  1.
</event>
<event>
 6   3  0.2312675E+03  0.9118800E+02  0.7818608E-02  0.1180000E+00
       11   -1    0    0    0    0  0.00000000000E+00  0.00000000000E+00  0.54999999763E+01  0.55000000000E+01  0.51109989000E-03 0.  1.
     -623   -1    0    0    0    0  0.00000000000E+00  0.00000000000E+00  0.93234578044E-11  0.17124000000E+03  0.17124000000E+03 0. -1.
       11    1    1    2    0    0 -0.57784450354E-01  0.39892311200E-01  0.50071939271E+00  0.50561903708E+00  0.51109989000E-03 0.  1.
     -623    1    1    2    0    0 -0.15529231960E-01  0.35343470539E-02  0.56295873510E-02  0.17124000083E+03  0.17124000000E+03 0. -1.
     -611    1    1    2    0    0  0.28675539606E-01 -0.15524417331E-01  0.18047284914E+01  0.18050231253E+01  0.51109989000E-03 0. -1.
      611    1    1    2    0    0  0.44638142709E-01 -0.27902240924E-01  0.31889225049E+01  0.31893570045E+01  0.51109989000E-03 0.  1.
</event>
<event>
 6   3  0.2312675E+03  0.9118800E+02  0.7818608E-02  0.1180000E+00
       11   -1    0    0    0    0  0.00000000000E+00  0.00000000000E+00  0.54999999763E+01  0.55000000000E+01  0.51109989000E-03 0. -1.
     -623   -1    0    0    0    0  0.00000000000E+00  0.00000000000E+00  0.93234578044E-11  0.17124000000E+03  0.17124000000E+03 0. -1.
       11    1    1    2    0    0 -0.86169035163E-01 -0.24242956709E-01  0.87675142151E+00  0.88130933271E+00  0.51109989000E-03 0. -1.
     -623    1    1    2    0    0 -0.50737508291E-02  0.12925251939E-01  0.57989165571E-02  0.17124000066E+03  0.17124000000E+03 0. -1.
     -611    1    1    2    0    0  0.61882007365E-01  0.12081949626E-01  0.18306012417E+01  0.18316867974E+01  0.51109989000E-03 0. -1.
      611    1    1    2    0    0  0.29360778627E-01 -0.76424485526E-03  0.27868483965E+01  0.27870032087E+01  0.51109989000E-03 0.  1.
</event>
<event>
 6   3  0.2312675E+03  0.9118800E+02  0.7818608E-02  0.1180000E+00
       11   -1    0    0    0    0  0.00000000000E+00  0.00000000000E+00  0.54999999763E+01  0.55000000000E+01  0.51109989000E-03 0. -1.
     -623   -1    0    0    0    0  0.00000000000E+00  0.00000000000E+00  0.93234578044E-11  0.17124000000E+03  0.17124000000E+03 0. -1.
       11    1    1    2    0    0  0.78255509701E-01 -0.45068994384E-02  0.61908703041E+00  0.62402984655E+00  0.51109989000E-03 0. -1.
     -623    1    1    2    0    0 -0.31679441818E-02  0.17622682351E-01  0.55431041766E-02  0.17124000103E+03  0.17124000000E+03 0. -1.
     -611    1    1    2    0    0 -0.25489178339E-01 -0.66164060099E-02  0.17899376667E+01  0.17901314441E+01  0.51109989000E-03 0.  1.
      611    1    1    2    0    0 -0.49598387175E-01 -0.64993769021E-02  0.30854321746E+01  0.30858376832E+01  0.51109989000E-03 0. -1.
</event>
<event>
 6   3  0.2312675E+03  0.9118800E+02  0.7818608E-02  0.1180000E+00
       11   -1    0    0    0    0  0.00000000000E+00  0.00000000000E+00  0.54999999763E+01  0.55000000000E+01  0.51109989000E-03 0.  1.
     -623   -1    0    0    0    0  0.00000000000E+00  0.00000000000E+00  0.93234578044E-11  0.17124000000E+03  0.17124000000E+03 0.  1.
       11    1    1    2    0    0 -0.29417699104E-01 -0.21259314250E-01  0.21784229458E+00  0.22084584215E+00  0.51109989000E-03 0.  1.
     -623    1    1    2    0    0 -0.32433026313E-01  0.34480423685E-01  0.33892773122E-02  0.17124000658E+03  0.17124000000E+03 0.  1.
     -611    1    1    2    0    0  0.48515897489E-01 -0.10733931576E-01  0.41170183528E+01  0.41173182277E+01  0.51109989000E-03 0.  1.
      611    1    1    2    0    0  0.13334827938E-01 -0.24871778612E-02  0.11617500524E+01  0.11618293545E+01  0.51109989000E-03 0.  1.
</event>
<event>
 6   3  0.2312675E+03  0.9118800E+02  0.7818608E-02  0.1180000E+00
       11   -1    0    0    0    0  0.00000000000E+00  0.00000000000E+00  0.54999999763E+01  0.55000000000E+01  0.51109989000E-03 0. -1.
     -623   -1    0    0    0    0  0.00000000000E+00  0.00000000000E+00  0.93234578044E-11  0.17124000000E+03  0.17124000000E+03 0.  1.
       11    1    1    2    0    0  0.91768560371E-02 -0.85798751031E-02  0.74480278219E-01  0.75534111567E-01  0.51109989000E-03 0. -1.
     -623    1    1    2    0    0 -0.11233726921E-01 -0.63935551813E-03  0.26873635838E-02  0.17124000039E+03  0.17124000000E+03 0.  1.
     -611    1    1    2    0    0  0.63861021353E-01 -0.16462141104E-01  0.25359439669E+01  0.25368013908E+01  0.51109989000E-03 0. -1.
      611    1    1    2    0    0 -0.61804150470E-01  0.25681371726E-01  0.28868883676E+01  0.28876641069E+01  0.51109989000E-03 0.  1.
</event>
<event>
 6   3  0.2312675E+03  0.9118800E+02  0.7818608E-02  0.1180000E+00
       11   -1    0    0    0    0  0.00000000000E+00  0.00000000000E+00  0.54999999763E+01  0.55000000000E+01  0.51109989000E-03 0.  1.
     -623   -1    0    0    0    0  0.00000000000E+00  0.00000000000E+00  0.93234578044E-11  0.17124000000E+03  0.17124000000E+03 0. -1.
       11    1    1    2    0    0 -0.14369673019E+00 -0.10475325737E+00  0.54363973074E+00  0.57198462677E+00  0.51109989000E-03 0.  1.
     -623    1    1    2    0    0 -0.68219068155E-01 -0.37392528197E-01  0.34977431585E-01  0.17124002124E+03  0.17124000000E+03 0. -1.
     -611    1    1    2    0    0  0.18795016708E+00  0.12598384940E+00  0.43577890987E+01  0.43636593916E+01  0.51109989000E-03 0.  1.
      611    1    1    2    0    0  0.23965631427E-01  0.16161936276E-01  0.56359371903E+00  0.56433474200E+00  0.51109989000E-03 0. -1.
</event>
<event>
 6   3  0.2312675E+03  0.9118800E+02  0.7818608E-02  0.1180000E+00
       11   -1    0    0    0    0  0.00000000000E+00  0.00000000000E+00  0.54999999763E+01  0.55000000000E+01  0.51109989000E-03 0. -1.
     -623   -1    0    0    0    0  0.00000000000E+00  0.00000000000E+00  0.93234578044E-11  0.17124000000E+03  0.17124000000E+03 0. -1.
       11    1    1    2    0    0  0.10315615016E-02  0.86987878727E-03 -0.24947558406E-02  0.28819850863E-02  0.51109989000E-03 0. -1.
     -623    1    1    2    0    0  0.10975763398E-02 -0.10175350549E-01  0.62138313337E-02  0.17124000042E+03  0.17124000000E+03 0. -1.
     -611    1    1    2    0    0  0.44830700427E-01  0.48298465558E-02  0.19410267728E+01  0.19415504921E+01  0.51109989000E-03 0.  1.
      611    1    1    2    0    0 -0.46959838268E-01  0.44756252063E-02  0.35552541279E+01  0.35555671043E+01  0.51109989000E-03 0. -1.
</event>
<event>
 6   3  0.2312675E+03  0.9118800E+02  0.7818608E-02  0.1180000E+00
       11   -1    0    0    0    0  0.00000000000E+00  0.00000000000E+00  0.54999999763E+01  0.55000000000E+01  0.51109989000E-03 0.  1.
     -623   -1    0    0    0    0  0.00000000000E+00  0.00000000000E+00  0.93234578044E-11  0.17124000000E+03  0.17124000000E+03 0.  1.
       11    1    1    2    0    0 -0.22453758282E-01  0.17764376309E-01  0.32345052872E+00  0.32471564496E+00  0.51109989000E-03 0.  1.
     -623    1    1    2    0    0 -0.35550175608E-01  0.21388203631E-01  0.17481987653E-02  0.17124000503E+03  0.17124000000E+03 0.  1.
     -611    1    1    2    0    0  0.45703477209E-01 -0.29381986970E-01  0.41981614966E+01  0.41985131084E+01  0.51109989000E-03 0.  1.
      611    1    1    2    0    0  0.12300456682E-01 -0.97705929712E-02  0.97663975231E+00  0.97676621191E+00  0.51109989000E-03 0. -1.
</event>
<event>
 6   3  0.2312675E+03  0.9118800E+02  0.7818608E-02  0.1180000E+00
       11   -1    0    0    0    0  0.00000000000E+00  0.00000000000E+00  0.54999999763E+01  0.55000000000E+01  0.51109989000E-03 0.  1.
     -623   -1    0    0    0    0  0.00000000000E+00  0.00000000000E+00  0.93234578044E-11  0.17124000000E+03  0.17124000000E+03 0. -1.
       11    1    1    2    0    0  0.93071099356E-01  0.34521292163E-01  0.76565671907E+00  0.77206503731E+00  0.51109989000E-03 0.  1.
     -623    1    1    2    0    0 -0.93558606410E-02 -0.10855433998E-02  0.72702623354E-02  0.17124000041E+03  0.17124000000E+03 0. -1.
     -611    1    1    2    0    0 -0.52140645340E-01 -0.22819878577E-01  0.29312191597E+01  0.29317717199E+01  0.51109989000E-03 0.  1.
      611    1    1    2    0    0 -0.31574593369E-01 -0.10615870184E-01  0.17958538348E+01  0.17961628291E+01  0.51109989000E-03 0. -1.
</event>
<event>
 6   3  0.2312675E+03  0.9118800E+02  0.7818608E-02  0.1180000E+00
       11   -1    0    0    0    0  0.00000000000E+00  0.00000000000E+00  0.54999999763E+01  0.55000000000E+01  0.51109989000E-03 0.  1.
     -623   -1    0    0    0    0  0.00000000000E+00  0.00000000000E+00  0.93234578044E-11  0.17124000000E+03  0.17124000000E+03 0. -1.
       11    1    1    2    0    0  0.10376368129E-01 -0.25997658362E-01  0.44848610697E-01  0.52869711181E-01  0.51109989000E-03 0.  1.
     -623    1    1    2    0    0 -0.20966913608E-01  0.43247941083E-02  0.95226876415E-02  0.17124000160E+03  0.17124000000E+03 0. -1.
     -611    1    1    2    0    0 -0.45193056237E-01  0.48097628375E-01  0.29195585570E+01  0.29203044743E+01  0.51109989000E-03 0. -1.
      611    1    1    2    0    0  0.55783601716E-01 -0.26424764121E-01  0.25260701210E+01  0.25268242115E+01  0.51109989000E-03 0.  1.
</event>
<event>
 6   3  0.2312675E+03  0.9118800E+02  0.7818608E-02  0.1180000E+00
       11   -1    0    0    0    0  0.00000000000E+00  0.00000000000E+00  0.54999999763E+01  0.55000000000E+01  0.51109989000E-03 0. -1.
     -623   -1    0    0    0    0  0.00000000000E+00  0.00000000000E+00  0.93234578044E-11  0.17124000000E+03  0.17124000000E+03 0.  1.
       11    1    1    2    0    0 -0.43049955850E-01  0.64779484138E-01  0.72413687431E+00  0.72830224099E+00  0.51109989000E-03 0. -1.
     -623    1    1    2    0    0 -0.10492435080E-01 -0.22536983646E-02  0.59480767417E-02  0.17124000044E+03  0.17124000000E+03 0.  1.
     -611    1    1    2    0    0 -0.22197631138E-01  0.10963257057E-01  0.83204709726E+00  0.83241549788E+00  0.51109989000E-03 0.  1.
      611    1    1    2    0    0  0.75740022068E-01 -0.73489042831E-01  0.39378679279E+01  0.39392818215E+01  0.51109989000E-03 0. -1.
</event>
<event>
 6   3  0.2312675E+03  0.9118800E+02  0.7818608E-02  0.1180000E+00
       11   -1    0    0    0    0  0.00000000000E+00  0.00000000000E+00  0.54999999763E+01  0.55000000000E+01  0.51109989000E-03 0. -1.
     -623   -1    0    0    0    0  0.00000000000E+00  0.00000000000E+00  0.93234578044E-11  0.17124000000E+03  0.17124000000E+03 0. -1.
       11    1    1    2    0    0 -0.33404728220E-01 -0.35169161238E-01  0.29800698940E+00  0.30192908559E+00  0.51109989000E-03 0. -1.
     -623    1    1    2    0    0  0.18673510613E-01 -0.16676198819E-02  0.54556650113E-02  0.17124000111E+03  0.17124000000E+03 0. -1.
     -611    1    1    2    0    0  0.50395990610E-01  0.46258308403E-01  0.45270156942E+01  0.45275325448E+01  0.51109989000E-03 0. -1.
      611    1    1    2    0    0 -0.35664773003E-01 -0.94215272829E-02  0.66952162760E+00  0.67053725642E+00  0.51109989000E-03 0.  1.
</event>
<event>
 6   3  0.2474123E+03  0.9118800E+02  0.7818608E-02  0.1180000E+00
       11   -1    0    0    0    0  0.00000000000E+00  0.00000000000E+00  0.54999999763E+01  0.55000000000E+01  0.51109989000E-03 0. -1.
     -623   -1    0    0    0    0  0.00000000000E+00  0.00000000000E+00  0.93234578044E-11  0.17124000000E+03  0.17124000000E+03 0. -1.
       11    1    1    2    0    0  0.25124341261E-02  0.24897702540E-03 -0.84281170817E-03  0.27103264509E-02  0.51109989000E-03 0. -1.
     -623    1    1    2    0    0  0.43128212520E-03  0.32065782956E-03  0.49551002671E-02  0.17124000007E+03  0.17124000000E+03 0. -1.
     -611    1    1    2    0    0  0.41586631644E-01  0.32776430458E-01  0.13641365174E+01  0.13651638883E+01  0.51109989000E-03 0.  1.
      611    1    1    2    0    0 -0.44530347895E-01 -0.33346065313E-01  0.41317511703E+01  0.41321257128E+01  0.51109989000E-03 0. -1.
</event>
<event>
 6   3  0.2312675E+03  0.9118800E+02  0.7818608E-02  0.1180000E+00
       11   -1    0    0    0    0  0.00000000000E+00  0.00000000000E+00  0.54999999763E+01  0.55000000000E+01  0.51109989000E-03 0. -1.
     -623   -1    0    0    0    0  0.00000000000E+00  0.00000000000E+00  0.93234578044E-11  0.17124000000E+03  0.17124000000E+03 0.  1.
       11    1    1    2    0    0  0.73607473190E-01 -0.20845206225E-01  0.98509970984E+00  0.98806593013E+00  0.51109989000E-03 0. -1.
     -623    1    1    2    0    0  0.20565472743E-01 -0.76862677290E-02  0.40421000487E-02  0.17124000146E+03  0.17124000000E+03 0.  1.
     -611    1    1    2    0    0 -0.25868624659E-01  0.87034864436E-02  0.13069109164E+01  0.13071959841E+01  0.51109989000E-03 0.  1.
      611    1    1    2    0    0 -0.68304321285E-01  0.19827987514E-01  0.32039472506E+01  0.32047366312E+01  0.51109989000E-03 0. -1.
</event>
<event>
 6   3  0.2312675E+03  0.9118800E+02  0.7818608E-02  0.1180000E+00
       11   -1    0    0    0    0  0.00000000000E+00  0.00000000000E+00  0.54999999763E+01  0.55000000000E+01  0.51109989000E-03 0. -1.
     -623   -1    0    0    0    0  0.00000000000E+00  0.00000000000E+00  0.93234578044E-11  0.17124000000E+03  0.17124000000E+03 0.  1.
       11    1    1    2    0    0 -0.91609701825E-02 -0.80195243756E-02  0.61103319638E+00  0.61115469764E+00  0.51109989000E-03 0. -1.
     -623    1    1    2    0    0  0.84297506424E-01  0.92890285494E-02  0.73044483269E-03  0.17124002100E+03  0.17124000000E+03 0.  1.
     -611    1    1    2    0    0 -0.41211637772E-01 -0.12690396895E-02  0.23581648947E+01  0.23585253744E+01  0.51109989000E-03 0.  1.
      611    1    1    2    0    0 -0.33924898423E-01 -0.46447906691E-06  0.25300714373E+01  0.25302989226E+01  0.51109989000E-03 0. -1.
</event>
<event>
 6   3  0.2312675E+03  0.9118800E+02  0.7818608E-02  0.1180000E+00
       11   -1    0    0    0    0  0.00000000000E+00  0.00000000000E+00  0.54999999763E+01  0.55000000000E+01  0.51109989000E-03 0. -1.
     -623   -1    0    0    0    0  0.00000000000E+00  0.00000000000E+00  0.93234578044E-11  0.17124000000E+03  0.17124000000E+03 0. -1.
       11    1    1    2    0    0 -0.64678749940E-01  0.40263669318E-01  0.10543720452E+01  0.10571211731E+01  0.51109989000E-03 0. -1.
     -623    1    1    2    0    0 -0.37527059627E-02 -0.52816495856E-01  0.33030985095E-02  0.17124000822E+03  0.17124000000E+03 0. -1.
     -611    1    1    2    0    0  0.27434499955E-01  0.46530970929E-02  0.16934029615E+01  0.16936316466E+01  0.51109989000E-03 0.  1.
      611    1    1    2    0    0  0.40996955947E-01  0.78997294451E-02  0.27489218709E+01  0.27492389620E+01  0.51109989000E-03 0.  1.
</event>
<event>
 6   3  0.2312675E+03  0.9118800E+02  0.7818608E-02  0.1180000E+00
       11   -1    0    0    0    0  0.00000000000E+00  0.00000000000E+00  0.54999999763E+01  0.55000000000E+01  0.51109989000E-03 0.  1.
     -623   -1    0    0    0    0  0.00000000000E+00  0.00000000000E+00  0.93234578044E-11  0.17124000000E+03  0.17124000000E+03 0.  1.
       11    1    1    2    0    0 -0.38854508922E-01 -0.14730964756E-01  0.10771386257E+01  0.10779399587E+01  0.51109989000E-03 0.  1.
     -623    1    1    2    0    0 -0.16917546330E-01  0.16971391274E-01  0.11557824141E-02  0.17124000168E+03  0.17124000000E+03 0.  1.
     -611    1    1    2    0    0  0.18954083410E-01 -0.27265705422E-03  0.14459993635E+01  0.14461236988E+01  0.51109989000E-03 0.  1.
      611    1    1    2    0    0  0.36817971851E-01 -0.19677694636E-02  0.29757062051E+01  0.29759346625E+01  0.51109989000E-03 0.  1.
</event>
<event>
 6   3  0.2312675E+03  0.9118800E+02  0.7818608E-02  0.1180000E+00
       11   -1    0    0    0    0  0.00000000000E+00  0.00000000000E+00  0.54999999763E+01  0.55000000000E+01  0.51109989000E-03 0.  1.
     -623   -1    0    0    0    0  0.00000000000E+00  0.00000000000E+00  0.93234578044E-11  0.17124000000E+03  0.17124000000E+03 0.  1.
       11    1    1    2    0    0 -0.28199855521E-01 -0.30659216911E-02  0.29814561185E+00  0.29949240193E+00  0.51109989000E-03 0.  1.
     -623    1    1    2    0    0 -0.24198846769E-02  0.40457627915E-02  0.18331644434E-02  0.17124000007E+03  0.17124000000E+03 0.  1.
     -611    1    1    2    0    0  0.49688169893E-01  0.68946780250E-02  0.38975919164E+01  0.38979147577E+01  0.51109989000E-03 0.  1.
      611    1    1    2    0    0 -0.19068429695E-01 -0.78745191253E-02  0.13024292836E+01  0.13025927656E+01  0.51109989000E-03 0. -1.
</event>
<event>
 6   3  0.2312675E+03  0.9118800E+02  0.7818608E-02  0.1180000E+00
       11   -1    0    0    0    0  0.00000000000E+00  0.00000000000E+00  0.54999999763E+01  0.55000000000E+01  0.51109989000E-03 0.  1.
     -623   -1    0    0    0    0  0.00000000000E+00  0.00000000000E+00  0.93234578044E-11  0.17124000000E+03  0.17124000000E+03 0.  1.
       11    1    1    2    0    0  0.16627709148E-02 -0.51476884781E-02  0.13714853639E+00  0.13725613196E+00  0.51109989000E-03 0.  1.
     -623    1    1    2    0    0 -0.24166525530E-03  0.75662616003E-02  0.96299852614E-03  0.17124000017E+03  0.17124000000E+03 0.  1.
     -611    1    1    2    0    0 -0.34812749890E-01 -0.34372878378E-01  0.30621987828E+01  0.30625896018E+01  0.51109989000E-03 0.  1.
      611    1    1    2    0    0  0.33391644231E-01  0.31954305256E-01  0.22996896585E+01  0.23001540961E+01  0.51109989000E-03 0. -1.
</event>
<event>
 6   3  0.2312675E+03  0.9118800E+02  0.7818608E-02  0.1180000E+00
       11   -1    0    0    0    0  0.00000000000E+00  0.00000000000E+00  0.54999999763E+01  0.55000000000E+01  0.51109989000E-03 0.  1.
     -623   -1    0    0    0    0  0.00000000000E+00  0.00000000000E+00  0.93234578044E-11  0.17124000000E+03  0.17124000000E+03 0. -1.
       11    1    1    2    0    0 -0.28192380741E-01 -0.51315862873E-02  0.99692090328E+00  0.99733278905E+00  0.51109989000E-03 0.  1.
     -623    1    1    2    0    0 -0.55865823920E-01 -0.23398946897E-01  0.13633375001E-02  0.17124001072E+03  0.17124000000E+03 0. -1.
     -611    1    1    2    0    0  0.47611089883E-01  0.17313125465E-01  0.31326657794E+01  0.31330754391E+01  0.51109989000E-03 0.  1.
      611    1    1    2    0    0  0.36447114777E-01  0.11217407719E-01  0.13690499560E+01  0.13695810548E+01  0.51109989000E-03 0. -1.
</event>
<event>
 6   3  0.2312675E+03  0.9118800E+02  0.7818608E-02  0.1180000E+00
       11   -1    0    0    0    0  0.00000000000E+00  0.00000000000E+00  0.54999999763E+01  0.55000000000E+01  0.51109989000E-03 0. -1.
     -623   -1    0    0    0    0  0.00000000000E+00  0.00000000000E+00  0.93234578044E-11  0.17124000000E+03  0.17124000000E+03 0. -1.
       11    1    1    2    0    0  0.83706077159E-01 -0.36851940185E-02  0.72066332979E+00  0.72551787306E+00  0.51109989000E-03 0. -1.
     -623    1    1    2    0    0 -0.85959922243E-02  0.20420188355E-01  0.55055691739E-02  0.17124000152E+03  0.17124000000E+03 0. -1.
     -611    1    1    2    0    0 -0.39673422860E-01 -0.12136753067E-01  0.30239478180E+01  0.30242324561E+01  0.51109989000E-03 0. -1.
      611    1    1    2    0    0 -0.35436662074E-01 -0.45982412697E-02  0.17498832593E+01  0.17502481490E+01  0.51109989000E-03 0.  1.
</event>
<event>
 6   3  0.2312675E+03  0.9118800E+02  0.7818608E-02  0.1180000E+00
       11   -1    0    0    0    0  0.00000000000E+00  0.00000000000E+00  0.54999999763E+01  0.55000000000E+01  0.51109989000E-03 0. -1.
     -623   -1    0    0    0    0  0.00000000000E+00  0.00000000000E+00  0.93234578044E-11  0.17124000000E+03  0.17124000000E+03 0. -1.
       11    1    1    2    0    0  0.62404870636E-02  0.34647154918E-02  0.72297214351E-02  0.10172415021E-01  0.51109989000E-03 0. -1.
     -623    1    1    2    0    0 -0.15835542068E-01  0.20993051201E-02  0.35858575030E-02  0.17124000078E+03  0.17124000000E+03 0. -1.
     -611    1    1    2    0    0  0.34025094298E-01  0.26124370582E-01  0.32733751000E+01  0.32736562123E+01  0.51109989000E-03 0.  1.
      611    1    1    2    0    0 -0.24430039293E-01 -0.31688391194E-01  0.22158092973E+01  0.22161705900E+01  0.51109989000E-03 0. -1.
</event>
<event>
 6   3  0.2312675E+03  0.9118800E+02  0.7818608E-02  0.1180000E+00
       11   -1    0    0    0    0  0.00000000000E+00  0.00000000000E+00  0.54999999763E+01  0.55000000000E+01  0.51109989000E-03 0. -1.
     -623   -1    0    0    0    0  0.00000000000E+00  0.00000000000E+00  0.93234578044E-11  0.17124000000E+03  0.17124000000E+03 0.  1.
       11    1    1    2    0    0  0.36359502876E-01  0.19520556690E-01  0.76756201263E+00  0.76867078131E+00  0.51109989000E-03 0. -1.
     -623    1    1    2    0    0  0.95143263763E-02 -0.65186742542E-02  0.31189853134E-02  0.17124000042E+03  0.17124000000E+03 0.  1.
     -611    1    1    2    0    0 -0.65135477179E-01  0.43143300574E-01  0.28646412532E+01  0.28657065002E+01  0.51109989000E-03 0.  1.
      611    1    1    2    0    0  0.19261647927E-01 -0.56145183009E-01  0.18646777251E+01  0.18656223017E+01  0.51109989000E-03 0. -1.
</event>
<event>
 6   3  0.2312675E+03  0.9118800E+02  0.7818608E-02  0.1180000E+00
       11   -1    0    0    0    0  0.00000000000E+00  0.00000000000E+00  0.54999999763E+01  0.55000000000E+01  0.51109989000E-03 0.  1.
     -623   -1    0    0    0    0  0.00000000000E+00  0.00000000000E+00  0.93234578044E-11  0.17124000000E+03  0.17124000000E+03 0.  1.
       11    1    1    2    0    0  0.22188409388E-02 -0.13186952502E-02  0.76283615643E-01  0.76328981723E-01  0.51109989000E-03 0.  1.
     -623    1    1    2    0    0 -0.64649077819E-03  0.31714041555E-02  0.11144789581E-02  0.17124000003E+03  0.17124000000E+03 0.  1.
     -611    1    1    2    0    0 -0.48345508809E-01  0.15744129677E-01  0.36842476137E+01  0.36845984729E+01  0.51109989000E-03 0.  1.
      611    1    1    2    0    0  0.46773158649E-01 -0.17596838582E-01  0.17383542680E+01  0.17390725112E+01  0.51109989000E-03 0. -1.
</event>
<event>
 6   3  0.2312675E+03  0.9118800E+02  0.7818608E-02  0.1180000E+00
       11   -1    0    0    0    0  0.00000000000E+00  0.00000000000E+00  0.54999999763E+01  0.55000000000E+01  0.51109989000E-03 0.  1.
     -623   -1    0    0    0    0  0.00000000000E+00  0.00000000000E+00  0.93234578044E-11  0.17124000000E+03  0.17124000000E+03 0.  1.
       11    1    1    2    0    0  0.15192803719E-02 -0.18152211884E-02 -0.34504712194E-03  0.24461237551E-02  0.51109989000E-03 0.  1.
     -623    1    1    2    0    0 -0.17689743767E-02  0.61349732524E-02  0.31801783117E-02  0.17124000015E+03  0.17124000000E+03 0.  1.
     -611    1    1    2    0    0  0.32661477601E-01  0.14910848928E-03  0.27382754630E+01  0.27384702969E+01  0.51109989000E-03 0.  1.
      611    1    1    2    0    0 -0.32411783597E-01 -0.44688605533E-02  0.27588893821E+01  0.27590834308E+01  0.51109989000E-03 0. -1.
</event>
<event>
 6   3  0.3557818E+03  0.9118800E+02  0.7818608E-02  0.1180000E+00
       11   -1    0    0    0    0  0.00000000000E+00  0.00000000000E+00  0.54999999763E+01  0.55000000000E+01  0.51109989000E-03 0. -1.
     -623   -1    0    0    0    0  0.00000000000E+00  0.00000000000E+00  0.93234578044E-11  0.17124000000E+03  0.17124000000E+03 0. -1.
       11    1    1    2    0    0 -0.75683799371E-03  0.24523301032E-03  0.12036875700E-02  0.15306958685E-02  0.51109989000E-03 0. -1.
     -623    1    1    2    0    0  0.23528939377E-02 -0.65521803694E-03  0.70914096805E-03  0.17124000002E+03  0.17124000000E+03 0. -1.
     -611    1    1    2    0    0 -0.32632772236E-01 -0.32908723033E-02  0.32336381916E+01  0.32338045617E+01  0.51109989000E-03 0. -1.
      611    1    1    2    0    0  0.31036716292E-01  0.37008573299E-02  0.22644489562E+01  0.22646647236E+01  0.51109989000E-03 0.  1.
</event>
<event>
 6   3  0.2312675E+03  0.9118800E+02  0.7818608E-02  0.1180000E+00
       11   -1    0    0    0    0  0.00000000000E+00  0.00000000000E+00  0.54999999763E+01  0.55000000000E+01  0.51109989000E-03 0. -1.
     -623   -1    0    0    0    0  0.00000000000E+00  0.00000000000E+00  0.93234578044E-11  0.17124000000E+03  0.17124000000E+03 0. -1.
       11    1    1    2    0    0 -0.12333760009E-01 -0.75856159036E-02  0.47054196271E+00  0.47076497650E+00  0.51109989000E-03 0. -1.
     -623    1    1    2    0    0  0.69453105912E-01  0.18833531324E-01  0.57540961100E-03  0.17124001512E+03  0.17124000000E+03 0. -1.
     -611    1    1    2    0    0 -0.20568162669E-01 -0.47877848263E-02  0.18330291214E+01  0.18331508376E+01  0.51109989000E-03 0. -1.
      611    1    1    2    0    0 -0.36551183263E-01 -0.64601305985E-02  0.31958534853E+01  0.31960690673E+01  0.51109989000E-03 0. -1.
</event>
<event>
 6   3  0.2312675E+03  0.9118800E+02  0.7818608E-02  0.1180000E+00
       11   -1    0    0    0    0  0.00000000000E+00  0.00000000000E+00  0.54999999763E+01  0.55000000000E+01  0.51109989000E-03 0.  1.
     -623   -1    0    0    0    0  0.00000000000E+00  0.00000000000E+00  0.93234578044E-11  0.17124000000E+03  0.17124000000E+03 0.  1.
       11    1    1    2    0    0 -0.60641076438E-02 -0.41260239806E-02  0.43051842921E+00  0.43058120789E+00  0.51109989000E-03 0.  1.
     -623    1    1    2    0    0  0.78823001973E-01 -0.12262317468E-01  0.71488451776E-03  0.17124001858E+03  0.17124000000E+03 0.  1.
     -611    1    1    2    0    0 -0.40946089397E-01 -0.28024200673E-02  0.21003932350E+01  0.21007942400E+01  0.51109989000E-03 0. -1.
      611    1    1    2    0    0 -0.31812804927E-01  0.19190761516E-01  0.29683734272E+01  0.29686059699E+01  0.51109989000E-03 0.  1.
</event>
<event>
 6   3  0.2312675E+03  0.9118800E+02  0.7818608E-02  0.1180000E+00
       11   -1    0    0    0    0  0.00000000000E+00  0.00000000000E+00  0.54999999763E+01  0.55000000000E+01  0.51109989000E-03 0. -1.
     -623   -1    0    0    0    0  0.00000000000E+00  0.00000000000E+00  0.93234578044E-11  0.17124000000E+03  0.17124000000E+03 0. -1.
       11    1    1    2    0    0  0.32269065161E-01 -0.21899259649E-01  0.87872772801E+00  0.87959283270E+00  0.51109989000E-03 0. -1.
     -623    1    1    2    0    0  0.44683544727E-03  0.21414205154E-02  0.15755395381E-02  0.17124000002E+03  0.17124000000E+03 0. -1.
     -611    1    1    2    0    0  0.20069182042E-01  0.68915800407E-02  0.66848769764E+00  0.66882458766E+00  0.51109989000E-03 0.  1.
      611    1    1    2    0    0 -0.52785082649E-01  0.12866259093E-01  0.39512090111E+01  0.39515825585E+01  0.51109989000E-03 0. -1.
</event>
<event>
 6   3  0.2312675E+03  0.9118800E+02  0.7818608E-02  0.1180000E+00
       11   -1    0    0    0    0  0.00000000000E+00  0.00000000000E+00  0.54999999763E+01  0.55000000000E+01  0.51109989000E-03 0. -1.
     -623   -1    0    0    0    0  0.00000000000E+00  0.00000000000E+00  0.93234578044E-11  0.17124000000E+03  0.17124000000E+03 0.  1.
       11    1    1    2    0    0  0.33765338944E-01 -0.15823425815E-01  0.93525616906E+00  0.93599938136E+00  0.51109989000E-03 0. -1.
     -623    1    1    2    0    0  0.24942228741E-01 -0.31983894343E-02  0.11975001879E-02  0.17124000185E+03  0.17124000000E+03 0.  1.
     -611    1    1    2    0    0 -0.35213519208E-01  0.18155053195E-01  0.32555106659E+01  0.32557517649E+01  0.51109989000E-03 0.  1.
      611    1    1    2    0    0 -0.23494048476E-01  0.86676205378E-03  0.13080356410E+01  0.13082470030E+01  0.51109989000E-03 0. -1.
</event>
<event>
 6   3  0.2312675E+03  0.9118800E+02  0.7818608E-02  0.1180000E+00
       11   -1    0    0    0    0  0.00000000000E+00  0.00000000000E+00  0.54999999763E+01  0.55000000000E+01  0.51109989000E-03 0. -1.
     -623   -1    0    0    0    0  0.00000000000E+00  0.00000000000E+00  0.93234578044E-11  0.17124000000E+03  0.17124000000E+03 0. -1.
       11    1    1    2    0    0  0.10236234202E-01  0.50036355632E-02  0.34848064339E-01  0.36666956115E-01  0.51109989000E-03 0. -1.
     -623    1    1    2    0    0 -0.22723387162E-01  0.52776182617E-02  0.34251039952E-02  0.17124000162E+03  0.17124000000E+03 0. -1.
     -611    1    1    2    0    0 -0.32064200308E-01  0.48496339252E-01  0.21728475454E+01  0.21736252494E+01  0.51109989000E-03 0. -1.
      611    1    1    2    0    0  0.44551353268E-01 -0.58777593077E-01  0.32888792625E+01  0.32897061713E+01  0.51109989000E-03 0.  1.
</event>
<event>
 6   3  0.2312675E+03  0.9118800E+02  0.7818608E-02  0.1180000E+00
       11   -1    0    0    0    0  0.00000000000E+00  0.00000000000E+00  0.54999999763E+01  0.55000000000E+01  0.51109989000E-03 0.  1.
     -623   -1    0    0    0    0  0.00000000000E+00  0.00000000000E+00  0.93234578044E-11  0.17124000000E+03  0.17124000000E+03 0.  1.
       11    1    1    2    0    0  0.68267755136E-02  0.12007483858E-02  0.17747111169E+00  0.17760716024E+00  0.51109989000E-03 0.  1.
     -623    1    1    2    0    0 -0.22983672030E-01 -0.40571164719E-02  0.51351645880E-03  0.17124000159E+03  0.17124000000E+03 0.  1.
     -611    1    1    2    0    0 -0.23329885303E-01  0.15888125875E-03  0.17160080420E+01  0.17161667082E+01  0.51109989000E-03 0. -1.
      611    1    1    2    0    0  0.39486781820E-01  0.26974868273E-02  0.36060073061E+01  0.36062245403E+01  0.51109989000E-03 0.  1.
</event>
<event>
 6   3  0.2312675E+03  0.9118800E+02  0.7818608E-02  0.1180000E+00
       11   -1    0    0    0    0  0.00000000000E+00  0.00000000000E+00  0.54999999763E+01  0.55000000000E+01  0.51109989000E-03 0. -1.
     -623   -1    0    0    0    0  0.00000000000E+00  0.00000000000E+00  0.93234578044E-11  0.17124000000E+03  0.17124000000E+03 0.  1.
       11    1    1    2    0    0 -0.30741738900E-01 -0.80944488555E-01  0.10296240171E+01  0.10332584103E+01  0.51109989000E-03 0. -1.
     -623    1    1    2    0    0 -0.16695537515E-01 -0.17066491186E-01  0.49660064026E-02  0.17124000174E+03  0.17124000000E+03 0.  1.
     -611    1    1    2    0    0  0.87327571760E-02  0.17094724439E-01  0.72084681724E+00  0.72110254874E+00  0.51109989000E-03 0.  1.
      611    1    1    2    0    0  0.38704519239E-01  0.80916255302E-01  0.37445631356E+01  0.37456373046E+01  0.51109989000E-03 0. -1.
</event>
<event>
 6   3  0.2312675E+03  0.9118800E+02  0.7818608E-02  0.1180000E+00
       11   -1    0    0    0    0  0.00000000000E+00  0.00000000000E+00  0.54999999763E+01  0.55000000000E+01  0.51109989000E-03 0. -1.
     -623   -1    0    0    0    0  0.00000000000E+00  0.00000000000E+00  0.93234578044E-11  0.17124000000E+03  0.17124000000E+03 0. -1.
       11    1    1    2    0    0  0.56439348952E-01 -0.50296825785E-02  0.76430797358E+00  0.76640566120E+00  0.51109989000E-03 0. -1.
     -623    1    1    2    0    0 -0.24471716835E-03 -0.91166304905E-02  0.24529108436E-02  0.17124000026E+03  0.17124000000E+03 0. -1.
     -611    1    1    2    0    0 -0.12681753860E-01  0.33757748865E-02  0.10391426989E+01  0.10392256890E+01  0.51109989000E-03 0.  1.
      611    1    1    2    0    0 -0.43512877890E-01  0.10770538174E-01  0.36940963901E+01  0.36943683866E+01  0.51109989000E-03 0. -1.
</event>
<event>
 6   3  0.2312675E+03  0.9118800E+02  0.7818608E-02  0.1180000E+00
       11   -1    0    0    0    0  0.00000000000E+00  0.00000000000E+00  0.54999999763E+01  0.55000000000E+01  0.51109989000E-03 0. -1.
     -623   -1    0    0    0    0  0.00000000000E+00  0.00000000000E+00  0.93234578044E-11  0.17124000000E+03  0.17124000000E+03 0.  1.
       11    1    1    2    0    0  0.13783111972E-01  0.85012498548E-02  0.71080798516E+00  0.71099261488E+00  0.51109989000E-03 0. -1.
     -623    1    1    2    0    0  0.34326567259E-03  0.58386063928E-03  0.64958063517E-03  0.17124000000E+03  0.17124000000E+03 0.  1.
     -611    1    1    2    0    0 -0.39627502319E-01 -0.95315936215E-02  0.26638437664E+01  0.26641556005E+01  0.51109989000E-03 0. -1.
      611    1    1    2    0    0  0.25501124674E-01  0.44648312742E-03  0.21246986439E+01  0.21248517820E+01  0.51109989000E-03 0.  1.
</event>
<event>
 6   3  0.2312675E+03  0.9118800E+02  0.7818608E-02  0.1180000E+00
       11   -1    0    0    0    0  0.00000000000E+00  0.00000000000E+00  0.54999999763E+01  0.55000000000E+01  0.51109989000E-03 0.  1.
     -623   -1    0    0    0    0  0.00000000000E+00  0.00000000000E+00  0.93234578044E-11  0.17124000000E+03  0.17124000000E+03 0. -1.
       11    1    1    2    0    0 -0.42287463321E-01  0.39297825073E-01  0.10942430114E+01  0.10957648370E+01  0.51109989000E-03 0.  1.
     -623    1    1    2    0    0  0.21365610042E-01  0.33837000710E-01  0.29975362346E-02  0.17124000470E+03  0.17124000000E+03 0. -1.
     -611    1    1    2    0    0  0.51097477917E-01 -0.49169109053E-01  0.33828423388E+01  0.33835855397E+01  0.51109989000E-03 0.  1.
      611    1    1    2    0    0 -0.30175624639E-01 -0.23965716730E-01  0.10199170897E+01  0.10206449211E+01  0.51109989000E-03 0. -1.
</event>
<event>
 6   3  0.2312675E+03  0.9118800E+02  0.7818608E-02  0.1180000E+00
       11   -1    0    0    0    0  0.00000000000E+00  0.00000000000E+00  0.54999999763E+01  0.55000000000E+01  0.51109989000E-03 0. -1.
     -623   -1    0    0    0    0  0.00000000000E+00  0.00000000000E+00  0.93234578044E-11  0.17124000000E+03  0.17124000000E+03 0. -1.
       11    1    1    2    0    0 -0.21241844934E-01 -0.68270424283E-02  0.68651288852E+00  0.68687555774E+00  0.51109989000E-03 0. -1.
     -623    1    1    2    0    0  0.31812644772E-03  0.88656498711E-03  0.88300104725E-03  0.17124000000E+03  0.17124000000E+03 0. -1.
     -611    1    1    2    0    0  0.43757653728E-01  0.31940256257E-02  0.38289619275E+01  0.38292133184E+01  0.51109989000E-03 0. -1.
      611    1    1    2    0    0 -0.22833935242E-01  0.27464518155E-02  0.98364215939E+00  0.98391111923E+00  0.51109989000E-03 0.  1.
</event>
<event>
 6   3  0.2312675E+03  0.9118800E+02  0.7818608E-02  0.1180000E+00
       11   -1    0    0    0    0  0.00000000000E+00  0.00000000000E+00  0.54999999763E+01  0.55000000000E+01  0.51109989000E-03 0. -1.
     -623   -1    0    0    0    0  0.00000000000E+00  0.00000000000E+00  0.93234578044E-11  0.17124000000E+03  0.17124000000E+03 0.  1.
       11    1    1    2    0    0  0.58269424501E-01 -0.51824059405E-02  0.85288223888E+00  0.85488628354E+00  0.51109989000E-03 0. -1.
     -623    1    1    2    0    0  0.70152561965E-04 -0.17938887703E-02  0.23977191655E-02  0.17124000003E+03  0.17124000000E+03 0.  1.
     -611    1    1    2    0    0 -0.51951031041E-01  0.18031696612E-02  0.41419744004E+01  0.41423006115E+01  0.51109989000E-03 0. -1.
      611    1    1    2    0    0 -0.63885460215E-02  0.51731250496E-02  0.50274561781E+00  0.50281307878E+00  0.51109989000E-03 0.  1.
</event>
<event>
 6   3  0.2312675E+03  0.9118800E+02  0.7818608E-02  0.1180000E+00
       11   -1    0    0    0    0  0.00000000000E+00  0.00000000000E+00  0.54999999763E+01  0.55000000000E+01  0.51109989000E-03 0.  1.
     -623   -1    0    0    0    0  0.00000000000E+00  0.00000000000E+00  0.93234578044E-11  0.17124000000E+03  0.17124000000E+03 0. -1.
       11    1    1    2    0    0 -0.11965360471E+00  0.40599383249E-01  0.65934733832E+00  0.67134526796E+00  0.51109989000E-03 0.  1.
     -623    1    1    2    0    0  0.38054831577E-01 -0.13780355515E-01  0.12780711064E-01  0.17124000526E+03  0.17124000000E+03 0. -1.
     -611    1    1    2    0    0  0.64744692737E-01 -0.25981169624E-01  0.39037105615E+01  0.39043339132E+01  0.51109989000E-03 0.  1.
      611    1    1    2    0    0  0.16854080396E-01 -0.83785811067E-03  0.92416136537E+00  0.92431555893E+00  0.51109989000E-03 0. -1.
</event>
<event>
 6   3  0.2312675E+03  0.9118800E+02  0.7818608E-02  0.1180000E+00
       11   -1    0    0    0    0  0.00000000000E+00  0.00000000000E+00  0.54999999763E+01  0.55000000000E+01  0.51109989000E-03 0. -1.
     -623   -1    0    0    0    0  0.00000000000E+00  0.00000000000E+00  0.93234578044E-11  0.17124000000E+03  0.17124000000E+03 0.  1.
       11    1    1    2    0    0 -0.87656623338E-02  0.16234006763E-01  0.98766815652E+00  0.98784058858E+00  0.51109989000E-03 0. -1.
     -623    1    1    2    0    0  0.60170695127E-01 -0.10665731603E-01  0.48021036296E-03  0.17124001090E+03  0.17124000000E+03 0.  1.
     -611    1    1    2    0    0 -0.11873518011E-01 -0.49648906290E-03  0.10053412835E+01  0.10054116492E+01  0.51109989000E-03 0. -1.
      611    1    1    2    0    0 -0.39531514811E-01 -0.50717860957E-02  0.35065103285E+01  0.35067368605E+01  0.51109989000E-03 0. -1.
</event>
<event>
 6   3  0.2312675E+03  0.9118800E+02  0.7818608E-02  0.1180000E+00
       11   -1    0    0    0    0  0.00000000000E+00  0.00000000000E+00  0.54999999763E+01  0.55000000000E+01  0.51109989000E-03 0. -1.
     -623   -1    0    0    0    0  0.00000000000E+00  0.00000000000E+00  0.93234578044E-11  0.17124000000E+03  0.17124000000E+03 0.  1.
       11    1    1    2    0    0 -0.26075450891E-03 -0.46566345422E-03  0.28158043882E-03  0.79078821918E-03  0.51109989000E-03 0.  1.
     -623    1    1    2    0    0  0.36720019356E-03 -0.18239622495E-02  0.13931172263E-02  0.17124000002E+03  0.17124000000E+03 0.  1.
     -611    1    1    2    0    0  0.40637944508E-01 -0.26660985929E-01  0.27353624316E+01  0.27357942437E+01  0.51109989000E-03 0.  1.
      611    1    1    2    0    0 -0.40744390193E-01  0.28950611632E-01  0.27629628469E+01  0.27634149521E+01  0.51109989000E-03 0. -1.
</event>
<event>
 6   3  0.2312675E+03  0.9118800E+02  0.7818608E-02  0.1180000E+00
       11   -1    0    0    0    0  0.00000000000E+00  0.00000000000E+00  0.54999999763E+01  0.55000000000E+01  0.51109989000E-03 0. -1.
     -623   -1    0    0    0    0  0.00000000000E+00  0.00000000000E+00  0.93234578044E-11  0.17124000000E+03  0.17124000000E+03 0.  1.
       11    1    1    2    0    0 -0.60313317352E-01  0.10559226442E-01  0.85314296990E+00  0.85533758355E+00  0.51109989000E-03 0. -1.
     -623    1    1    2    0    0  0.45913937265E-02 -0.44882816290E-02  0.25740779781E-02  0.17124000014E+03  0.17124000000E+03 0.  1.
     -611    1    1    2    0    0  0.15105075630E-01  0.69541046326E-02  0.14045934775E+01  0.14046920022E+01  0.51109989000E-03 0. -1.
      611    1    1    2    0    0  0.40616847995E-01 -0.13025049446E-01  0.32396894509E+01  0.32399702746E+01  0.51109989000E-03 0.  1.
</event>
<event>
 6   3  0.2312675E+03  0.9118800E+02  0.7818608E-02  0.1180000E+00
       11   -1    0    0    0    0  0.00000000000E+00  0.00000000000E+00  0.54999999763E+01  0.55000000000E+01  0.51109989000E-03 0.  1.
     -623   -1    0    0    0    0  0.00000000000E+00  0.00000000000E+00  0.93234578044E-11  0.17124000000E+03  0.17124000000E+03 0. -1.
       11    1    1    2    0    0 -0.13263772777E-02 -0.52348209442E-02  0.24174262602E-01  0.24775367252E-01  0.51109989000E-03 0.  1.
     -623    1    1    2    0    0  0.62640225147E-02 -0.41484815825E-03  0.13920578877E-02  0.17124000012E+03  0.17124000000E+03 0. -1.
     -611    1    1    2    0    0 -0.34203861250E-01  0.36376057554E-01  0.26252949907E+01  0.26257698245E+01  0.51109989000E-03 0. -1.
      611    1    1    2    0    0  0.29266216013E-01 -0.30726388452E-01  0.28491386650E+01  0.28494546875E+01  0.51109989000E-03 0.  1.
</event>
<event>
 6   3  0.2312675E+03  0.9118800E+02  0.7818608E-02  0.1180000E+00
       11   -1    0    0    0    0  0.00000000000E+00  0.00000000000E+00  0.54999999763E+01  0.55000000000E+01  0.51109989000E-03 0. -1.
     -623   -1    0    0    0    0  0.00000000000E+00  0.00000000000E+00  0.93234578044E-11  0.17124000000E+03  0.17124000000E+03 0. -1.
       11    1    1    2    0    0  0.40298458424E-01  0.10963873479E-01  0.30405349289E+00  0.30690871613E+00  0.51109989000E-03 0. -1.
     -623    1    1    2    0    0 -0.33149450379E-01  0.17878354729E-01  0.40536065379E-02  0.17124000419E+03  0.17124000000E+03 0. -1.
     -611    1    1    2    0    0  0.44393756678E-01 -0.27778178698E-01  0.35465922221E+01  0.35469788672E+01  0.51109989000E-03 0. -1.
      611    1    1    2    0    0 -0.51542764722E-01 -0.10640495094E-02  0.16453006547E+01  0.16461082268E+01  0.51109989000E-03 0.  1.
</event>
<event>
 6   3  0.2312675E+03  0.9118800E+02  0.7818608E-02  0.1180000E+00
       11   -1    0    0    0    0  0.00000000000E+00  0.00000000000E+00  0.54999999763E+01  0.55000000000E+01  0.51109989000E-03 0. -1.
     -623   -1    0    0    0    0  0.00000000000E+00  0.00000000000E+00  0.93234578044E-11  0.17124000000E+03  0.17124000000E+03 0. -1.
       11    1    1    2    0    0 -0.93514311264E-02 -0.81127571901E-02  0.16832022221E+00  0.16877566330E+00  0.51109989000E-03 0. -1.
     -623    1    1    2    0    0  0.71892466089E-02 -0.22248410688E-02  0.16491409940E-02  0.17124000017E+03  0.17124000000E+03 0. -1.
     -611    1    1    2    0    0 -0.49141692308E-01  0.13973071558E-01  0.15460455072E+01  0.15468894997E+01  0.51109989000E-03 0.  1.
      611    1    1    2    0    0  0.51303876825E-01 -0.36354732996E-02  0.37839851060E+01  0.37843346638E+01  0.51109989000E-03 0. -1.
</event>
<event>
 6   3  0.2312675E+03  0.9118800E+02  0.7818608E-02  0.1180000E+00
       11   -1    0    0    0    0  0.00000000000E+00  0.00000000000E+00  0.54999999763E+01  0.55000000000E+01  0.51109989000E-03 0. -1.
     -623   -1    0    0    0    0  0.00000000000E+00  0.00000000000E+00  0.93234578044E-11  0.17124000000E+03  0.17124000000E+03 0.  1.
       11    1    1    2    0    0  0.29010082720E-02  0.15038905367E-02  0.17493167859E+00  0.17496294160E+00  0.51109989000E-03 0. -1.
     -623    1    1    2    0    0 -0.28433128043E-02  0.40679972263E-02  0.43179305909E-03  0.17124000007E+03  0.17124000000E+03 0.  1.
     -611    1    1    2    0    0 -0.31471772966E-01  0.54497947230E-02  0.24864673484E+01  0.24866725375E+01  0.51109989000E-03 0.  1.
      611    1    1    2    0    0  0.31414077499E-01 -0.11021682486E-01  0.28381691560E+01  0.28383644482E+01  0.51109989000E-03 0. -1.
</event>
<event>
 6   3  0.2312675E+03  0.9118800E+02  0.7818608E-02  0.1180000E+00
       11   -1    0    0    0    0  0.00000000000E+00  0.00000000000E+00  0.54999999763E+01  0.55000000000E+01  0.51109989000E-03 0.  1.
     -623   -1    0    0    0    0  0.00000000000E+00  0.00000000000E+00  0.93234578044E-11  0.17124000000E+03  0.17124000000E+03 0. -1.
       11    1    1    2    0    0  0.18087935774E-01  0.11980140926E-01  0.68036596036E+00  0.68071197906E+00  0.51109989000E-03 0.  1.
     -623    1    1    2    0    0  0.42259086132E-01 -0.26079883272E-01  0.76681621187E-03  0.17124000720E+03  0.17124000000E+03 0. -1.
     -611    1    1    2    0    0 -0.35767744063E-01  0.12792493053E-01  0.26110139941E+01  0.26112903549E+01  0.51109989000E-03 0.  1.
      611    1    1    2    0    0 -0.24579277844E-01  0.13072492931E-02  0.22078532056E+01  0.22079904639E+01  0.51109989000E-03 0. -1.
</event>
<event>
 6   3  0.2312675E+03  0.9118800E+02  0.7818608E-02  0.1180000E+00
       11   -1    0    0    0    0  0.00000000000E+00  0.00000000000E+00  0.54999999763E+01  0.55000000000E+01  0.51109989000E-03 0. -1.
     -623   -1    0    0    0    0  0.00000000000E+00  0.00000000000E+00  0.93234578044E-11  0.17124000000E+03  0.17124000000E+03 0. -1.
       11    1    1    2    0    0  0.12174433425E-02 -0.92086536310E-03 -0.31292643522E-02  0.35190452956E-02  0.51109989000E-03 0. -1.
     -623    1    1    2    0    0 -0.17216146351E-01  0.45856568738E-02  0.92879711991E-02  0.17124000118E+03  0.17124000000E+03 0. -1.
     -611    1    1    2    0    0 -0.56730067957E-01  0.32177652160E-01  0.11269410526E+01  0.11288268685E+01  0.51109989000E-03 0.  1.
      611    1    1    2    0    0  0.72728770966E-01 -0.35842443671E-01  0.43669002168E+01  0.43676529074E+01  0.51109989000E-03 0. -1.
</event>
<event>
 6   3  0.2312675E+03  0.9118800E+02  0.7818608E-02  0.1180000E+00
       11   -1    0    0    0    0  0.00000000000E+00  0.00000000000E+00  0.54999999763E+01  0.55000000000E+01  0.51109989000E-03 0.  1.
     -623   -1    0    0    0    0  0.00000000000E+00  0.00000000000E+00  0.93234578044E-11  0.17124000000E+03  0.17124000000E+03 0.  1.
       11    1    1    2    0    0 -0.88401767424E-01 -0.30487660858E-01  0.77327976174E+00  0.77891348755E+00  0.51109989000E-03 0.  1.
     -623    1    1    2    0    0 -0.25483115899E-02  0.34917090095E-01  0.65167765470E-02  0.17124000370E+03  0.17124000000E+03 0.  1.
     -611    1    1    2    0    0  0.48395919261E-01 -0.18984085068E-02  0.25877733611E+01  0.25882266126E+01  0.51109989000E-03 0.  1.
      611    1    1    2    0    0  0.42554159741E-01 -0.25310207296E-02  0.21324300763E+01  0.21328561963E+01  0.51109989000E-03 0. -1.
</event>
<event>
 6   3  0.2312675E+03  0.9118800E+02  0.7818608E-02  0.1180000E+00
       11   -1    0    0    0    0  0.00000000000E+00  0.00000000000E+00  0.54999999763E+01  0.55000000000E+01  0.51109989000E-03 0. -1.
     -623   -1    0    0    0    0  0.00000000000E+00  0.00000000000E+00  0.93234578044E-11  0.17124000000E+03  0.17124000000E+03 0. -1.
       11    1    1    2    0    0  0.65483319294E-01  0.16051421461E-01  0.56535189788E+00  0.56935818506E+00  0.51109989000E-03 0. -1.
     -623    1    1    2    0    0  0.13740919818E-01  0.81124037799E-02  0.59021891823E-02  0.17124000085E+03  0.17124000000E+03 0. -1.
     -611    1    1    2    0    0 -0.51769833679E-01 -0.67175867814E-01  0.33355334506E+01  0.33366115108E+01  0.51109989000E-03 0.  1.
      611    1    1    2    0    0 -0.27454405432E-01  0.43012042573E-01  0.15932124386E+01  0.15940294589E+01  0.51109989000E-03 0. -1.
</event>
<event>
 6   3  0.2312675E+03  0.9118800E+02  0.7818608E-02  0.1180000E+00
       11   -1    0    0    0    0  0.00000000000E+00  0.00000000000E+00  0.54999999763E+01  0.55000000000E+01  0.51109989000E-03 0.  1.
     -623   -1    0    0    0    0  0.00000000000E+00  0.00000000000E+00  0.93234578044E-11  0.17124000000E+03  0.17124000000E+03 0. -1.
       11    1    1    2    0    0  0.54596693880E-02 -0.33124566777E-02  0.61285060504E+00  0.61288408829E+00  0.51109989000E-03 0.  1.
     -623    1    1    2    0    0 -0.71988790624E-02  0.38003110486E-02  0.62512137153E-03  0.17124000019E+03  0.17124000000E+03 0. -1.
     -611    1    1    2    0    0  0.37467857031E-01 -0.82291992302E-02  0.29154989677E+01  0.29157513700E+01  0.51109989000E-03 0.  1.
      611    1    1    2    0    0 -0.35728647356E-01  0.77413448591E-02  0.19710252823E+01  0.19713643472E+01  0.51109989000E-03 0. -1.
</event>
<event>
 6   3  0.2312675E+03  0.9118800E+02  0.7818608E-02  0.1180000E+00
       11   -1    0    0    0    0  0.00000000000E+00  0.00000000000E+00  0.54999999763E+01  0.55000000000E+01  0.51109989000E-03 0.  1.
     -623   -1    0    0    0    0  0.00000000000E+00  0.00000000000E+00  0.93234578044E-11  0.17124000000E+03  0.17124000000E+03 0. -1.
       11    1    1    2    0    0 -0.21675914128E-02  0.46519344545E-02  0.71960471937E+00  0.71962320162E+00  0.51109989000E-03 0.  1.
     -623    1    1    2    0    0 -0.17138391736E-04 -0.70432904799E-03  0.92869889699E-03  0.17124000000E+03  0.17124000000E+03 0. -1.
     -611    1    1    2    0    0  0.45948312681E-01  0.32062776903E-02  0.30208330679E+01  0.30211842401E+01  0.51109989000E-03 0.  1.
      611    1    1    2    0    0 -0.43763582877E-01 -0.71538830967E-02  0.17586334903E+01  0.17591925545E+01  0.51109989000E-03 0. -1.
</event>
<event>
 6   3  0.2312675E+03  0.9118800E+02  0.7818608E-02  0.1180000E+00
       11   -1    0    0    0    0  0.00000000000E+00  0.00000000000E+00  0.54999999763E+01  0.55000000000E+01  0.51109989000E-03 0. -1.
     -623   -1    0    0    0    0  0.00000000000E+00  0.00000000000E+00  0.93234578044E-11  0.17124000000E+03  0.17124000000E+03 0. -1.
       11    1    1    2    0    0  0.37670454417E-01  0.20115237809E-01  0.17871672163E+00  0.18374877888E+00  0.51109989000E-03 0. -1.
     -623    1    1    2    0    0  0.28513985783E-01 -0.44198431973E-01  0.55472199791E-02  0.17124000817E+03  0.17124000000E+03 0. -1.
     -611    1    1    2    0    0 -0.44623621158E-01  0.24859066203E-01  0.40634206266E+01  0.40637417106E+01  0.51109989000E-03 0. -1.
      611    1    1    2    0    0 -0.21560819042E-01 -0.77587203971E-03  0.12523154081E+01  0.12525013427E+01  0.51109989000E-03 0.  1.
</event>
<event>
 6   3  0.2312675E+03  0.9118800E+02  0.7818608E-02  0.1180000E+00
       11   -1    0    0    0    0  0.00000000000E+00  0.00000000000E+00  0.54999999763E+01  0.55000000000E+01  0.51109989000E-03 0.  1.
     -623   -1    0    0    0    0  0.00000000000E+00  0.00000000000E+00  0.93234578044E-11  0.17124000000E+03  0.17124000000E+03 0.  1.
       11    1    1    2    0    0  0.58885486306E-01  0.17164586388E-01  0.87503456362E+00  0.87718177836E+00  0.51109989000E-03 0.  1.
     -623    1    1    2    0    0 -0.26472644974E-02  0.27221889785E-02  0.25445775487E-02  0.17124000006E+03  0.17124000000E+03 0.  1.
     -611    1    1    2    0    0 -0.89485137119E-02 -0.58025274798E-02  0.60405659204E+00  0.60415095202E+00  0.51109989000E-03 0. -1.
      611    1    1    2    0    0 -0.47289708096E-01 -0.14084247886E-01  0.40183642430E+01  0.40186672086E+01  0.51109989000E-03 0.  1.
</event>
<event>
 6   3  0.2312675E+03  0.9118800E+02  0.7818608E-02  0.1180000E+00
       11   -1    0    0    0    0  0.00000000000E+00  0.00000000000E+00  0.54999999763E+01  0.55000000000E+01  0.51109989000E-03 0. -1.
     -623   -1    0    0    0    0  0.00000000000E+00  0.00000000000E+00  0.93234578044E-11  0.17124000000E+03  0.17124000000E+03 0. -1.
       11    1    1    2    0    0 -0.10058916827E-01  0.67417041575E-01  0.63696794861E+00  0.64060492356E+00  0.51109989000E-03 0. -1.
     -623    1    1    2    0    0 -0.22684515872E-01 -0.83516617202E-01  0.41921225461E-02  0.17124002192E+03  0.17124000000E+03 0. -1.
     -611    1    1    2    0    0 -0.17754311691E-01  0.79075384555E-02  0.95381443212E+00  0.95401256642E+00  0.51109989000E-03 0.  1.
      611    1    1    2    0    0  0.50497744391E-01  0.81920371708E-02  0.39050254730E+01  0.39053605900E+01  0.51109989000E-03 0. -1.
</event>
<event>
 6   3  0.2312675E+03  0.9118800E+02  0.7818608E-02  0.1180000E+00
       11   -1    0    0    0    0  0.00000000000E+00  0.00000000000E+00  0.54999999763E+01  0.55000000000E+01  0.51109989000E-03 0.  1.
     -623   -1    0    0    0    0  0.00000000000E+00  0.00000000000E+00  0.93234578044E-11  0.17124000000E+03  0.17124000000E+03 0. -1.
       11    1    1    2    0    0 -0.85850962253E-02 -0.61339579708E-02  0.15219204908E-01  0.18526055671E-01  0.51109989000E-03 0.  1.
     -623    1    1    2    0    0  0.14051553878E-01  0.11447786607E-01  0.37829425635E-02  0.17124000100E+03  0.17124000000E+03 0. -1.
     -611    1    1    2    0    0  0.32577835358E-01 -0.70035421031E-02  0.21663127109E+01  0.21665690360E+01  0.51109989000E-03 0. -1.
      611    1    1    2    0    0 -0.38044293011E-01  0.16897134673E-02  0.33146851179E+01  0.33149039074E+01  0.51109989000E-03 0.  1.
</event>
<event>
 6   3  0.2312675E+03  0.9118800E+02  0.7818608E-02  0.1180000E+00
       11   -1    0    0    0    0  0.00000000000E+00  0.00000000000E+00  0.54999999763E+01  0.55000000000E+01  0.51109989000E-03 0. -1.
     -623   -1    0    0    0    0  0.00000000000E+00  0.00000000000E+00  0.93234578044E-11  0.17124000000E+03  0.17124000000E+03 0.  1.
       11    1    1    2    0    0  0.55303951838E-01  0.55775698182E-02  0.77461462936E+00  0.77660654235E+00  0.51109989000E-03 0. -1.
     -623    1    1    2    0    0  0.34331739307E-02  0.19032321326E-02  0.23970674071E-02  0.17124000006E+03  0.17124000000E+03 0.  1.
     -611    1    1    2    0    0 -0.29069624643E-01 -0.12712004852E-01  0.24332843384E+01  0.24334912309E+01  0.51109989000E-03 0. -1.
      611    1    1    2    0    0 -0.29667501125E-01  0.52312029009E-02  0.22897039411E+01  0.22899021650E+01  0.51109989000E-03 0.  1.
</event>
<event>
 6   3  0.2312675E+03  0.9118800E+02  0.7818608E-02  0.1180000E+00
       11   -1    0    0    0    0  0.00000000000E+00  0.00000000000E+00  0.54999999763E+01  0.55000000000E+01  0.51109989000E-03 0. -1.
     -623   -1    0    0    0    0  0.00000000000E+00  0.00000000000E+00  0.93234578044E-11  0.17124000000E+03  0.17124000000E+03 0.  1.
       11    1    1    2    0    0 -0.69059377256E-02  0.12369464798E-02  0.33892356122E+00  0.33899655394E+00  0.51109989000E-03 0. -1.
     -623    1    1    2    0    0  0.10643249754E+00  0.79177808918E-02  0.10744369720E-02  0.17124003326E+03  0.17124000000E+03 0.  1.
     -611    1    1    2    0    0 -0.13762033297E-01 -0.15823308361E-02  0.72771936066E+00  0.72785137661E+00  0.51109989000E-03 0.  1.
      611    1    1    2    0    0 -0.85764526294E-01 -0.75723965174E-02  0.44322826059E+01  0.44331187955E+01  0.51109989000E-03 0. -1.
</event>
<event>
 6   3  0.2312675E+03  0.9118800E+02  0.7818608E-02  0.1180000E+00
       11   -1    0    0    0    0  0.00000000000E+00  0.00000000000E+00  0.54999999763E+01  0.55000000000E+01  0.51109989000E-03 0. -1.
     -623   -1    0    0    0    0  0.00000000000E+00  0.00000000000E+00  0.93234578044E-11  0.17124000000E+03  0.17124000000E+03 0. -1.
       11    1    1    2    0    0  0.78944553324E-01 -0.43045184145E-01  0.93324478937E+00  0.93756665282E+00  0.51109989000E-03 0. -1.
     -623    1    1    2    0    0 -0.18250894869E-01 -0.11671209372E-01  0.50898584147E-02  0.17124000145E+03  0.17124000000E+03 0. -1.
     -611    1    1    2    0    0 -0.51238663993E-01  0.41773376871E-01  0.39649026241E+01  0.39654537566E+01  0.51109989000E-03 0. -1.
      611    1    1    2    0    0 -0.94549944615E-02  0.12943016646E-01  0.59676270441E+00  0.59697814465E+00  0.51109989000E-03 0.  1.
</event>
<event>
 6   3  0.2312675E+03  0.9118800E+02  0.7818608E-02  0.1180000E+00
       11   -1    0    0    0    0  0.00000000000E+00  0.00000000000E+00  0.54999999763E+01  0.55000000000E+01  0.51109989000E-03 0. -1.
     -623   -1    0    0    0    0  0.00000000000E+00  0.00000000000E+00  0.93234578044E-11  0.17124000000E+03  0.17124000000E+03 0. -1.
       11    1    1    2    0    0 -0.37592485354E-01  0.13347102584E+00  0.45606205406E+00  0.47667658645E+00  0.51109989000E-03 0. -1.
     -623    1    1    2    0    0  0.22559660196E-01  0.29964546651E-01  0.24347761981E-01  0.17124000584E+03  0.17124000000E+03 0. -1.
     -611    1    1    2    0    0 -0.38332345180E-01 -0.28158384183E-01  0.10896059906E+01  0.10906437271E+01  0.51109989000E-03 0.  1.
      611    1    1    2    0    0  0.53365170338E-01 -0.13527718831E+00  0.39299841696E+01  0.39326738478E+01  0.51109989000E-03 0. -1.
</event>
<event>
 6   3  0.2312675E+03  0.9118800E+02  0.7818608E-02  0.1180000E+00
       11   -1    0    0    0    0  0.00000000000E+00  0.00000000000E+00  0.54999999763E+01  0.55000000000E+01  0.51109989000E-03 0. -1.
     -623   -1    0    0    0    0  0.00000000000E+00  0.00000000000E+00  0.93234578044E-11  0.17124000000E+03  0.17124000000E+03 0.  1.
       11    1    1    2    0    0 -0.43688809883E-02  0.94657888181E-02  0.19665298153E-01  0.22263725061E-01  0.51109989000E-03 0. -1.
     -623    1    1    2    0    0  0.27322308113E-01 -0.28032014864E-01  0.42929436852E-02  0.17124000453E+03  0.17124000000E+03 0.  1.
     -611    1    1    2    0    0 -0.72872984350E-01  0.37864372981E-01  0.35200737040E+01  0.35210315712E+01  0.51109989000E-03 0. -1.
      611    1    1    2    0    0  0.49919557225E-01 -0.19298146935E-01  0.19559680304E+01  0.19567001758E+01  0.51109989000E-03 0.  1.
</event>
<event>
 6   3  0.2369107E+03  0.9118800E+02  0.7818608E-02  0.1180000E+00
       11   -1    0    0    0    0  0.00000000000E+00  0.00000000000E+00  0.54999999763E+01  0.55000000000E+01  0.51109989000E-03 0. -1.
     -623   -1    0    0    0    0  0.00000000000E+00  0.00000000000E+00  0.93234578044E-11  0.17124000000E+03  0.17124000000E+03 0. -1.
       11    1    1    2    0    0  0.28296798897E-02 -0.14326487215E-01  0.23446469462E-01  0.27627042505E-01  0.51109989000E-03 0. -1.
     -623    1    1    2    0    0 -0.10883609698E-01  0.13601943753E-01  0.57346797580E-02  0.17124000098E+03  0.17124000000E+03 0. -1.
     -611    1    1    2    0    0 -0.42967133504E-01  0.35748464677E-01  0.14501292011E+01  0.14512060807E+01  0.51109989000E-03 0.  1.
      611    1    1    2    0    0  0.51021063312E-01 -0.35023921215E-01  0.40206896259E+01  0.40211658947E+01  0.51109989000E-03 0. -1.
</event>
<event>
 6   3  0.2312675E+03  0.9118800E+02  0.7818608E-02  0.1180000E+00
       11   -1    0    0    0    0  0.00000000000E+00  0.00000000000E+00  0.54999999763E+01  0.55000000000E+01  0.51109989000E-03 0.  1.
     -623   -1    0    0    0    0  0.00000000000E+00  0.00000000000E+00  0.93234578044E-11  0.17124000000E+03  0.17124000000E+03 0. -1.
       11    1    1    2    0    0 -0.10895762452E-01 -0.17227602830E-01  0.87487569436E+00  0.87511327824E+00  0.51109989000E-03 0.  1.
     -623    1    1    2    0    0  0.28206373438E-02  0.44837088606E-02  0.19770749102E-02  0.17124000009E+03  0.17124000000E+03 0. -1.
     -611    1    1    2    0    0 -0.50702497416E-01  0.35721704337E-01  0.26688672338E+01  0.26695878626E+01  0.51109989000E-03 0.  1.
      611    1    1    2    0    0  0.58777622524E-01 -0.22977810368E-01  0.19542799733E+01  0.19552987659E+01  0.51109989000E-03 0. -1.
</event>
<event>
 6   3  0.2312675E+03  0.9118800E+02  0.7818608E-02  0.1180000E+00
       11   -1    0    0    0    0  0.00000000000E+00  0.00000000000E+00  0.54999999763E+01  0.55000000000E+01  0.51109989000E-03 0. -1.
     -623   -1    0    0    0    0  0.00000000000E+00  0.00000000000E+00  0.93234578044E-11  0.17124000000E+03  0.17124000000E+03 0. -1.
       11    1    1    2    0    0 -0.53990250505E-02 -0.38702490015E-03  0.72999288840E-02  0.91021670265E-02  0.51109989000E-03 0. -1.
     -623    1    1    2    0    0  0.71907823625E-02  0.34238228123E-02  0.24224269351E-02  0.17124000020E+03  0.17124000000E+03 0. -1.
     -611    1    1    2    0    0  0.35274033925E-01  0.15998247835E-01  0.20339754577E+01  0.20343442740E+01  0.51109989000E-03 0.  1.
      611    1    1    2    0    0 -0.37065791237E-01 -0.19035045747E-01  0.34563021628E+01  0.34565533567E+01  0.51109989000E-03 0. -1.
</event>
<event>
 6   3  0.2312675E+03  0.9118800E+02  0.7818608E-02  0.1180000E+00
       11   -1    0    0    0    0  0.00000000000E+00  0.00000000000E+00  0.54999999763E+01  0.55000000000E+01  0.51109989000E-03 0.  1.
     -623   -1    0    0    0    0  0.00000000000E+00  0.00000000000E+00  0.93234578044E-11  0.17124000000E+03  0.17124000000E+03 0. -1.
       11    1    1    2    0    0  0.59762175070E-01 -0.18169049086E-01  0.52473923481E+00  0.52844409135E+00  0.51109989000E-03 0.  1.
     -623    1    1    2    0    0  0.21776841187E-01  0.25043477584E-02  0.44058351677E-02  0.17124000146E+03  0.17124000000E+03 0. -1.
     -611    1    1    2    0    0 -0.19167352296E-01  0.43377070593E-03  0.11791524542E+01  0.11793084189E+01  0.51109989000E-03 0. -1.
      611    1    1    2    0    0 -0.62371663959E-01  0.15230930621E-01  0.37917024520E+01  0.37922460299E+01  0.51109989000E-03 0.  1.
</event>
<event>
 6   3  0.2312675E+03  0.9118800E+02  0.7818608E-02  0.1180000E+00
       11   -1    0    0    0    0  0.00000000000E+00  0.00000000000E+00  0.54999999763E+01  0.55000000000E+01  0.51109989000E-03 0.  1.
     -623   -1    0    0    0    0  0.00000000000E+00  0.00000000000E+00  0.93234578044E-11  0.17124000000E+03  0.17124000000E+03 0.  1.
       11    1    1    2    0    0  0.82707906038E-03  0.93718079839E-03  0.36087262588E-01  0.36112520154E-01  0.51109989000E-03 0.  1.
     -623    1    1    2    0    0 -0.42179909843E-03 -0.15781798022E-02  0.11649450038E-02  0.17124000001E+03  0.17124000000E+03 0.  1.
     -611    1    1    2    0    0  0.39869444098E-01 -0.38502515746E-01  0.27157034230E+01  0.27162690145E+01  0.51109989000E-03 0. -1.
      611    1    1    2    0    0 -0.40274724060E-01  0.39143514750E-01  0.27470443458E+01  0.27476184537E+01  0.51109989000E-03 0.  1.
</event>
<event>
 6   3  0.2312675E+03  0.9118800E+02  0.7818608E-02  0.1180000E+00
       11   -1    0    0    0    0  0.00000000000E+00  0.00000000000E+00  0.54999999763E+01  0.55000000000E+01  0.51109989000E-03 0. -1.
     -623   -1    0    0    0    0  0.00000000000E+00  0.00000000000E+00  0.93234578044E-11  0.17124000000E+03  0.17124000000E+03 0.  1.
       11    1    1    2    0    0  0.78382850520E-02  0.97427926508E-03  0.15476253054E-01  0.17382852595E-01  0.51109989000E-03 0. -1.
     -623    1    1    2    0    0  0.56526959496E-02  0.26592281746E-02  0.25826183186E-02  0.17124000013E+03  0.17124000000E+03 0.  1.
     -611    1    1    2    0    0 -0.43021947442E-01  0.13640898049E-01  0.41158383720E+01  0.41160858503E+01  0.51109989000E-03 0. -1.
      611    1    1    2    0    0  0.29530966441E-01 -0.17274405489E-01  0.13661027329E+01  0.13665311636E+01  0.51109989000E-03 0.  1.
</event>
<event>
 6   3  0.2312675E+03  0.9118800E+02  0.7818608E-02  0.1180000E+00
       11   -1    0    0    0    0  0.00000000000E+00  0.00000000000E+00  0.54999999763E+01  0.55000000000E+01  0.51109989000E-03 0. -1.
     -623   -1    0    0    0    0  0.00000000000E+00  0.00000000000E+00  0.93234578044E-11  0.17124000000E+03  0.17124000000E+03 0. -1.
       11    1    1    2    0    0  0.82661470300E-02  0.10285400190E-01  0.72275330352E-01  0.73471785363E-01  0.51109989000E-03 0. -1.
     -623    1    1    2    0    0 -0.37533350385E-01 -0.15326510846E-01  0.27879087680E-02  0.17124000482E+03  0.17124000000E+03 0. -1.
     -611    1    1    2    0    0  0.68318388987E-01  0.37917566762E-01  0.27987604279E+01  0.27998509493E+01  0.51109989000E-03 0.  1.
      611    1    1    2    0    0 -0.39051185632E-01 -0.32876456106E-01  0.26261763091E+01  0.26266724433E+01  0.51109989000E-03 0. -1.
</event>
<event>
 6   3  0.2312675E+03  0.9118800E+02  0.7818608E-02  0.1180000E+00
       11   -1    0    0    0    0  0.00000000000E+00  0.00000000000E+00  0.54999999763E+01  0.55000000000E+01  0.51109989000E-03 0.  1.
     -623   -1    0    0    0    0  0.00000000000E+00  0.00000000000E+00  0.93234578044E-11  0.17124000000E+03  0.17124000000E+03 0.  1.
       11    1    1    2    0    0 -0.12919349693E-01 -0.53108437716E-03  0.21936747462E-01  0.25469074570E-01  0.51109989000E-03 0.  1.
     -623    1    1    2    0    0  0.12948614746E-01 -0.10781445800E-01  0.11422154652E-01  0.17124000121E+03  0.17124000000E+03 0.  1.
     -611    1    1    2    0    0 -0.55809252263E-01 -0.11124181748E+00  0.13603248348E+01  0.13660063440E+01  0.51109989000E-03 0. -1.
      611    1    1    2    0    0  0.55779987210E-01  0.12255434766E+00  0.41063162394E+01  0.41085233715E+01  0.51109989000E-03 0.  1.
</event>
<event>
 6   3  0.2312675E+03  0.9118800E+02  0.7818608E-02  0.1180000E+00
       11   -1    0    0    0    0  0.00000000000E+00  0.00000000000E+00  0.54999999763E+01  0.55000000000E+01  0.51109989000E-03 0.  1.
     -623   -1    0    0    0    0  0.00000000000E+00  0.00000000000E+00  0.93234578044E-11  0.17124000000E+03  0.17124000000E+03 0.  1.
       11    1    1    2    0    0  0.21254022349E-01 -0.18078193047E-01  0.44162445283E+00  0.44250533680E+00  0.51109989000E-03 0.  1.
     -623    1    1    2    0    0  0.19476884627E-02  0.20285807671E-02  0.12128958258E-02  0.17124000003E+03  0.17124000000E+03 0.  1.
     -611    1    1    2    0    0 -0.39360752032E-01  0.97835403441E-02  0.34458430212E+01  0.34460817423E+01  0.51109989000E-03 0. -1.
      611    1    1    2    0    0  0.16159041220E-01  0.62660719355E-02  0.16113196063E+01  0.16114128935E+01  0.51109989000E-03 0.  1.
</event>
<event>
 6   3  0.2312675E+03  0.9118800E+02  0.7818608E-02  0.1180000E+00
       11   -1    0    0    0    0  0.00000000000E+00  0.00000000000E+00  0.54999999763E+01  0.55000000000E+01  0.51109989000E-03 0.  1.
     -623   -1    0    0    0    0  0.00000000000E+00  0.00000000000E+00  0.93234578044E-11  0.17124000000E+03  0.17124000000E+03 0. -1.
       11    1    1    2    0    0  0.49119499778E-01 -0.11569835912E-01  0.70453929428E+00  0.70634443777E+00  0.51109989000E-03 0.  1.
     -623    1    1    2    0    0  0.24878962450E-01  0.59370275876E-02  0.23816695984E-02  0.17124000193E+03  0.17124000000E+03 0. -1.
     -611    1    1    2    0    0 -0.29865729425E-01  0.24638733467E-02  0.19402105168E+01  0.19404419969E+01  0.51109989000E-03 0.  1.
      611    1    1    2    0    0 -0.44132732731E-01  0.31689349725E-02  0.28528684909E+01  0.28532116339E+01  0.51109989000E-03 0.  1.
</event>
<event>
 6   3  0.2312675E+03  0.9118800E+02  0.7818608E-02  0.1180000E+00
       11   -1    0    0    0    0  0.00000000000E+00  0.00000000000E+00  0.54999999763E+01  0.55000000000E+01  0.51109989000E-03 0.  1.
     -623   -1    0    0    0    0  0.00000000000E+00  0.00000000000E+00  0.93234578044E-11  0.17124000000E+03  0.17124000000E+03 0.  1.
       11    1    1    2    0    0 -0.16693019120E-01  0.17964740906E-01  0.74631038725E+00  0.74671336143E+00  0.51109989000E-03 0.  1.
     -623    1    1    2    0    0 -0.51454555640E-01  0.96522622770E-02  0.97986482901E-03  0.17124000801E+03  0.17124000000E+03 0.  1.
     -611    1    1    2    0    0  0.22472904125E-01 -0.92163008538E-02  0.15748455397E+01  0.15750329224E+01  0.51109989000E-03 0.  1.
      611    1    1    2    0    0  0.45674670571E-01 -0.18400702304E-01  0.31778641800E+01  0.31782457063E+01  0.51109989000E-03 0.  1.
</event>
<event>
 6   3  0.2312675E+03  0.9118800E+02  0.7818608E-02  0.1180000E+00
       11   -1    0    0    0    0  0.00000000000E+00  0.00000000000E+00  0.54999999763E+01  0.55000000000E+01  0.51109989000E-03 0. -1.
     -623   -1    0    0    0    0  0.00000000000E+00  0.00000000000E+00  0.93234578044E-11  0.17124000000E+03  0.17124000000E+03 0.  1.
       11    1    1    2    0    0  0.31560934445E-01  0.15501405543E-01  0.84786670260E+00  0.84859565916E+00  0.51109989000E-03 0. -1.
     -623    1    1    2    0    0  0.18154081785E-01  0.13011051895E-01  0.10836567957E-02  0.17124000146E+03  0.17124000000E+03 0.  1.
     -611    1    1    2    0    0 -0.23735473787E-01 -0.13397202624E-01  0.21835351019E+01  0.21837052595E+01  0.51109989000E-03 0. -1.
      611    1    1    2    0    0 -0.25979542468E-01 -0.15115254829E-01  0.24675145173E+01  0.24676976237E+01  0.51109989000E-03 0. -1.
</event>
<event>
 6   3  0.2312675E+03  0.9118800E+02  0.7818608E-02  0.1180000E+00
       11   -1    0    0    0    0  0.00000000000E+00  0.00000000000E+00  0.54999999763E+01  0.55000000000E+01  0.51109989000E-03 0. -1.
     -623   -1    0    0    0    0  0.00000000000E+00  0.00000000000E+00  0.93234578044E-11  0.17124000000E+03  0.17124000000E+03 0.  1.
       11    1    1    2    0    0  0.77065291533E-01 -0.35277772024E-01  0.77360308053E+00  0.77823233535E+00  0.51109989000E-03 0. -1.
     -623    1    1    2    0    0 -0.53268215034E-02 -0.20688169257E-02  0.53222416245E-02  0.17124000018E+03  0.17124000000E+03 0.  1.
     -611    1    1    2    0    0 -0.44150537393E-01  0.22958713289E-01  0.29001381347E+01  0.29005650887E+01  0.51109989000E-03 0. -1.
      611    1    1    2    0    0 -0.27587932487E-01  0.14387875583E-01  0.18209365096E+01  0.18212023881E+01  0.51109989000E-03 0. -1.
</event>
<event>
 6   3  0.2312675E+03  0.9118800E+02  0.7818608E-02  0.1180000E+00
       11   -1    0    0    0    0  0.00000000000E+00  0.00000000000E+00  0.54999999763E+01  0.55000000000E+01  0.51109989000E-03 0.  1.
     -623   -1    0    0    0    0  0.00000000000E+00  0.00000000000E+00  0.93234578044E-11  0.17124000000E+03  0.17124000000E+03 0. -1.
       11    1    1    2    0    0  0.98514127841E-01 -0.54694836743E-01  0.49132167050E+00  0.50407718028E+00  0.51109989000E-03 0.  1.
     -623    1    1    2    0    0 -0.50271146904E-02  0.47248671015E-02  0.13884108295E-01  0.17124000070E+03  0.17124000000E+03 0. -1.
     -611    1    1    2    0    0 -0.19624177012E-01  0.12354889116E-01  0.11680618644E+01  0.11682921432E+01  0.51109989000E-03 0.  1.
      611    1    1    2    0    0 -0.73862836147E-01  0.37615080530E-01  0.38267323335E+01  0.38276299751E+01  0.51109989000E-03 0. -1.
</event>
<event>
 6   3  0.2312675E+03  0.9118800E+02  0.7818608E-02  0.1180000E+00
       11   -1    0    0    0    0  0.00000000000E+00  0.00000000000E+00  0.54999999763E+01  0.55000000000E+01  0.51109989000E-03 0. -1.
     -623   -1    0    0    0    0  0.00000000000E+00  0.00000000000E+00  0.93234578044E-11  0.17124000000E+03  0.17124000000E+03 0.  1.
       11    1    1    2    0    0 -0.72597029993E-02 -0.90016553672E-03  0.48400015442E+00  0.48405570370E+00  0.51109989000E-03 0.  1.
     -623    1    1    2    0    0  0.82111740692E-01  0.98317821807E-02  0.64232968165E-03  0.17124001997E+03  0.17124000000E+03 0.  1.
     -611    1    1    2    0    0 -0.60696733450E-01 -0.77511642895E-02  0.40620366489E+01  0.40624975289E+01  0.51109989000E-03 0. -1.
      611    1    1    2    0    0 -0.14155302682E-01 -0.11804521676E-02  0.95332073874E+00  0.95342669262E+00  0.51109989000E-03 0.  1.
</event>
<event>
 6   3  0.2312675E+03  0.9118800E+02  0.7818608E-02  0.1180000E+00
       11   -1    0    0    0    0  0.00000000000E+00  0.00000000000E+00  0.54999999763E+01  0.55000000000E+01  0.51109989000E-03 0.  1.
     -623   -1    0    0    0    0  0.00000000000E+00  0.00000000000E+00  0.93234578044E-11  0.17124000000E+03  0.17124000000E+03 0. -1.
       11    1    1    2    0    0 -0.68826141265E-01 -0.32048027449E-01  0.99597969523E+00  0.99886932494E+00  0.51109989000E-03 0.  1.
     -623    1    1    2    0    0  0.21313167499E-02  0.88418227649E-02  0.34442478245E-02  0.17124000028E+03  0.17124000000E+03 0. -1.
     -611    1    1    2    0    0  0.20131518363E-01  0.62889637536E-02  0.13358553050E+01  0.13360218884E+01  0.51109989000E-03 0.  1.
      611    1    1    2    0    0  0.46563306149E-01  0.16917240929E-01  0.31647207280E+01  0.31651085103E+01  0.51109989000E-03 0.  1.
</event>
<event>
 6   3  0.2312675E+03  0.9118800E+02  0.7818608E-02  0.1180000E+00
       11   -1    0    0    0    0  0.00000000000E+00  0.00000000000E+00  0.54999999763E+01  0.55000000000E+01  0.51109989000E-03 0. -1.
     -623   -1    0    0    0    0  0.00000000000E+00  0.00000000000E+00  0.93234578044E-11  0.17124000000E+03  0.17124000000E+03 0.  1.
       11    1    1    2    0    0  0.18946802840E-02 -0.83199491377E-03  0.36862288215E-02  0.42581140118E-02  0.51109989000E-03 0. -1.
     -623    1    1    2    0    0  0.23052557688E-03 -0.11831237600E-02  0.17010053064E-02  0.17124000001E+03  0.17124000000E+03 0.  1.
     -611    1    1    2    0    0 -0.52129493866E-01  0.15652585869E-01  0.36327859678E+01  0.36331937241E+01  0.51109989000E-03 0. -1.
      611    1    1    2    0    0  0.50004288006E-01 -0.13637467195E-01  0.18618267744E+01  0.18625481493E+01  0.51109989000E-03 0.  1.
</event>
<event>
 6   3  0.2312675E+03  0.9118800E+02  0.7818608E-02  0.1180000E+00
       11   -1    0    0    0    0  0.00000000000E+00  0.00000000000E+00  0.54999999763E+01  0.55000000000E+01  0.51109989000E-03 0. -1.
     -623   -1    0    0    0    0  0.00000000000E+00  0.00000000000E+00  0.93234578044E-11  0.17124000000E+03  0.17124000000E+03 0.  1.
       11    1    1    2    0    0  0.22053507517E-01 -0.10556951960E-01  0.27346409054E+00  0.27455541602E+00  0.51109989000E-03 0. -1.
     -623    1    1    2    0    0  0.49166204749E-02  0.34222773109E-03  0.17976790785E-02  0.17124000008E+03  0.17124000000E+03 0.  1.
     -611    1    1    2    0    0 -0.41487246793E-01  0.35266391476E-01  0.39626121786E+01  0.39629863045E+01  0.51109989000E-03 0. -1.
      611    1    1    2    0    0  0.14517118801E-01 -0.25051667247E-01  0.12621260280E+01  0.12624581991E+01  0.51109989000E-03 0.  1.
</event>
<event>
 6   3  0.2312675E+03  0.9118800E+02  0.7818608E-02  0.1180000E+00
       11   -1    0    0    0    0  0.00000000000E+00  0.00000000000E+00  0.54999999763E+01  0.55000000000E+01  0.51109989000E-03 0.  1.
     -623   -1    0    0    0    0  0.00000000000E+00  0.00000000000E+00  0.93234578044E-11  0.17124000000E+03  0.17124000000E+03 0.  1.
       11    1    1    2    0    0 -0.45811962436E-02 -0.47045457522E-02  0.87891380510E-02  0.10983181713E-01  0.51109989000E-03 0.  1.
     -623    1    1    2    0    0 -0.13363514089E-01  0.76645697393E-02  0.37237344048E-02  0.17124000073E+03  0.17124000000E+03 0.  1.
     -611    1    1    2    0    0 -0.50974552356E-01 -0.56692846593E-02  0.13854222074E+01  0.13863713427E+01  0.51109989000E-03 0. -1.
      611    1    1    2    0    0  0.68919262689E-01  0.27092606722E-02  0.41020648964E+01  0.41026447422E+01  0.51109989000E-03 0.  1.
</event>
<event>
 6   3  0.2312675E+03  0.9118800E+02  0.7818608E-02  0.1180000E+00
       11   -1    0    0    0    0  0.00000000000E+00  0.00000000000E+00  0.54999999763E+01  0.55000000000E+01  0.51109989000E-03 0. -1.
     -623   -1    0    0    0    0  0.00000000000E+00  0.00000000000E+00  0.93234578044E-11  0.17124000000E+03  0.17124000000E+03 0.  1.
       11    1    1    2    0    0 -0.22550538587E-01  0.16256590380E-01  0.10565904865E+01  0.10569562531E+01  0.51109989000E-03 0. -1.
     -623    1    1    2    0    0  0.85121687768E-01 -0.45585234674E-01  0.10154570289E-02  0.17124002723E+03  0.17124000000E+03 0.  1.
     -611    1    1    2    0    0 -0.30206960125E-01  0.23796719771E-01  0.17516645585E+01  0.17520866791E+01  0.51109989000E-03 0.  1.
      611    1    1    2    0    0 -0.32364189052E-01  0.55319245208E-02  0.26907294739E+01  0.26909298404E+01  0.51109989000E-03 0. -1.
</event>
<event>
 6   3  0.2312675E+03  0.9118800E+02  0.7818608E-02  0.1180000E+00
       11   -1    0    0    0    0  0.00000000000E+00  0.00000000000E+00  0.54999999763E+01  0.55000000000E+01  0.51109989000E-03 0. -1.
     -623   -1    0    0    0    0  0.00000000000E+00  0.00000000000E+00  0.93234578044E-11  0.17124000000E+03  0.17124000000E+03 0.  1.
       11    1    1    2    0    0 -0.92580918612E-02 -0.10386876520E-01  0.66383660174E+00  0.66398260105E+00  0.51109989000E-03 0. -1.
     -623    1    1    2    0    0 -0.41600978646E-01  0.18630707942E-02  0.42695305212E-03  0.17124000506E+03  0.17124000000E+03 0.  1.
     -611    1    1    2    0    0  0.35389274163E-01  0.46063001727E-02  0.33321208995E+01  0.33323120456E+01  0.51109989000E-03 0. -1.
      611    1    1    2    0    0  0.15469796347E-01  0.39175055542E-02  0.15036155221E+01  0.15037002896E+01  0.51109989000E-03 0.  1.
</event>
<event>
 6   3  0.2312675E+03  0.9118800E+02  0.7818608E-02  0.1180000E+00
       11   -1    0    0    0    0  0.00000000000E+00  0.00000000000E+00  0.54999999763E+01  0.55000000000E+01  0.51109989000E-03 0.  1.
     -623   -1    0    0    0    0  0.00000000000E+00  0.00000000000E+00  0.93234578044E-11  0.17124000000E+03  0.17124000000E+03 0.  1.
       11    1    1    2    0    0  0.77755359481E-02 -0.43330516881E-03  0.41593596657E+00  0.41600917805E+00  0.51109989000E-03 0.  1.
     -623    1    1    2    0    0 -0.85329831687E-01  0.49840187804E-01  0.93591577910E-03  0.17124002852E+03  0.17124000000E+03 0.  1.
     -611    1    1    2    0    0  0.21748338778E-01 -0.13097813092E-01  0.15234053135E+01  0.15236169313E+01  0.51109989000E-03 0. -1.
      611    1    1    2    0    0  0.55805956975E-01 -0.36309069551E-01  0.35597227813E+01  0.35603453757E+01  0.51109989000E-03 0.  1.
</event>
<event>
 6   3  0.2312675E+03  0.9118800E+02  0.7818608E-02  0.1180000E+00
       11   -1    0    0    0    0  0.00000000000E+00  0.00000000000E+00  0.54999999763E+01  0.55000000000E+01  0.51109989000E-03 0. -1.
     -623   -1    0    0    0    0  0.00000000000E+00  0.00000000000E+00  0.93234578044E-11  0.17124000000E+03  0.17124000000E+03 0. -1.
       11    1    1    2    0    0  0.10176567568E-01 -0.20372377992E-02  0.48804285583E+00  0.48815346277E+00  0.51109989000E-03 0. -1.
     -623    1    1    2    0    0 -0.82190256056E-01  0.19521483908E-01  0.67943856676E-03  0.17124002084E+03  0.17124000000E+03 0. -1.
     -611    1    1    2    0    0  0.27719585363E-01 -0.66169781699E-02  0.19251247647E+01  0.19253357579E+01  0.51109989000E-03 0. -1.
      611    1    1    2    0    0  0.44294103277E-01 -0.10867267975E-01  0.30861529274E+01  0.30864899510E+01  0.51109989000E-03 0. -1.
</event>
<event>
 6   3  0.2312675E+03  0.9118800E+02  0.7818608E-02  0.1180000E+00
       11   -1    0    0    0    0  0.00000000000E+00  0.00000000000E+00  0.54999999763E+01  0.55000000000E+01  0.51109989000E-03 0.  1.
     -623   -1    0    0    0    0  0.00000000000E+00  0.00000000000E+00  0.93234578044E-11  0.17124000000E+03  0.17124000000E+03 0. -1.
       11    1    1    2    0    0  0.46990142195E-01  0.43317787162E-01  0.50992654222E+00  0.51391618366E+00  0.51109989000E-03 0.  1.
     -623    1    1    2    0    0  0.78676944798E-02 -0.38566222257E-02  0.44658537222E-02  0.17124000028E+03  0.17124000000E+03 0. -1.
     -611    1    1    2    0    0 -0.90952791239E-02 -0.94311161478E-02  0.66529886893E+00  0.66542806995E+00  0.51109989000E-03 0. -1.
      611    1    1    2    0    0 -0.45762557552E-01 -0.30030048789E-01  0.43203087114E+01  0.43206554640E+01  0.51109989000E-03 0.  1.
</event>
<event>
 6   3  0.2851464E+03  0.9118800E+02  0.7818608E-02  0.1180000E+00
       11   -1    0    0    0    0  0.00000000000E+00  0.00000000000E+00  0.54999999763E+01  0.55000000000E+01  0.51109989000E-03 0. -1.
     -623   -1    0    0    0    0  0.00000000000E+00  0.00000000000E+00  0.93234578044E-11  0.17124000000E+03  0.17124000000E+03 0.  1.
       11    1    1    2    0    0  0.23179207931E-02  0.12136704613E-02 -0.10477190820E-02  0.28643832083E-02  0.51109989000E-03 0. -1.
     -623    1    1    2    0    0 -0.18678640634E-02  0.33456481725E-03  0.54740389126E-02  0.17124000010E+03  0.17124000000E+03 0.  1.
     -611    1    1    2    0    0  0.47487209345E-01  0.32732186244E-01  0.14709420807E+01  0.14720724496E+01  0.51109989000E-03 0.  1.
      611    1    1    2    0    0 -0.47937266075E-01 -0.34280421523E-01  0.40246315758E+01  0.40250630692E+01  0.51109989000E-03 0. -1.
</event>
<event>
 6   3  0.2312675E+03  0.9118800E+02  0.7818608E-02  0.1180000E+00
       11   -1    0    0    0    0  0.00000000000E+00  0.00000000000E+00  0.54999999763E+01  0.55000000000E+01  0.51109989000E-03 0. -1.
     -623   -1    0    0    0    0  0.00000000000E+00  0.00000000000E+00  0.93234578044E-11  0.17124000000E+03  0.17124000000E+03 0.  1.
       11    1    1    2    0    0 -0.30669842490E-02  0.67021436434E-02  0.95643944985E+00  0.95646798565E+00  0.51109989000E-03 0. -1.
     -623    1    1    2    0    0  0.51889577145E-01 -0.53322326503E-01  0.55998935531E-03  0.17124001616E+03  0.17124000000E+03 0.  1.
     -611    1    1    2    0    0 -0.12260372558E-01  0.73299423128E-02  0.11885282153E+01  0.11886141614E+01  0.51109989000E-03 0.  1.
      611    1    1    2    0    0 -0.36562220341E-01  0.39290240550E-01  0.33544723221E+01  0.33549016885E+01  0.51109989000E-03 0. -1.
</event>
<event>
 6   3  0.2312675E+03  0.9118800E+02  0.7818608E-02  0.1180000E+00
       11   -1    0    0    0    0  0.00000000000E+00  0.00000000000E+00  0.54999999763E+01  0.55000000000E+01  0.51109989000E-03 0.  1.
     -623   -1    0    0    0    0  0.00000000000E+00  0.00000000000E+00  0.93234578044E-11  0.17124000000E+03  0.17124000000E+03 0.  1.
       11    1    1    2    0    0 -0.74598881016E-01  0.70712216221E-01  0.78667634978E+00  0.79336318991E+00  0.51109989000E-03 0.  1.
     -623    1    1    2    0    0  0.21016825831E-01 -0.11029403007E-01  0.73740435385E-02  0.17124000180E+03  0.17124000000E+03 0.  1.
     -611    1    1    2    0    0  0.30126003698E-01 -0.30499649568E-01  0.24870319664E+01  0.24874014689E+01  0.51109989000E-03 0.  1.
      611    1    1    2    0    0  0.23456051490E-01 -0.29183163650E-01  0.22189176169E+01  0.22192335378E+01  0.51109989000E-03 0. -1.
</event>
<event>
 6   3  0.2312675E+03  0.9118800E+02  0.7818608E-02  0.1180000E+00
       11   -1    0    0    0    0  0.00000000000E+00  0.00000000000E+00  0.54999999763E+01  0.55000000000E+01  0.51109989000E-03 0. -1.
     -623   -1    0    0    0    0  0.00000000000E+00  0.00000000000E+00  0.93234578044E-11  0.17124000000E+03  0.17124000000E+03 0.  1.
       11    1    1    2    0    0 -0.11536823107E-01  0.10372844446E-01  0.15970636931E+00  0.16045896612E+00  0.51109989000E-03 0. -1.
     -623    1    1    2    0    0  0.87321087292E-01 -0.96153647449E-02  0.13309337589E-02  0.17124002254E+03  0.17124000000E+03 0.  1.
     -611    1    1    2    0    0 -0.35801053293E-01 -0.12455102065E-02  0.30010835871E+01  0.30012974235E+01  0.51109989000E-03 0.  1.
      611    1    1    2    0    0 -0.39983210894E-01  0.48803050549E-03  0.23378790863E+01  0.23382210714E+01  0.51109989000E-03 0. -1.
</event>
<event>
 6   3  0.2312675E+03  0.9118800E+02  0.7818608E-02  0.1180000E+00
       11   -1    0    0    0    0  0.00000000000E+00  0.00000000000E+00  0.54999999763E+01  0.55000000000E+01  0.51109989000E-03 0. -1.
     -623   -1    0    0    0    0  0.00000000000E+00  0.00000000000E+00  0.93234578044E-11  0.17124000000E+03  0.17124000000E+03 0.  1.
       11    1    1    2    0    0 -0.30082556212E-01  0.32012716272E-01  0.66805598583E-01  0.79956384464E-01  0.51109989000E-03 0. -1.
     -623    1    1    2    0    0 -0.42891536639E-01 -0.28075192926E-01  0.13651827668E-01  0.17124000822E+03  0.17124000000E+03 0.  1.
     -611    1    1    2    0    0  0.20831231314E-01 -0.12924422542E-02  0.15362244047E+01  0.15363662628E+01  0.51109989000E-03 0. -1.
      611    1    1    2    0    0  0.52142861403E-01 -0.26450810846E-02  0.38833181353E+01  0.38836691254E+01  0.51109989000E-03 0. -1.
</event>
<event>
 6   3  0.2312675E+03  0.9118800E+02  0.7818608E-02  0.1180000E+00
       11   -1    0    0    0    0  0.00000000000E+00  0.00000000000E+00  0.54999999763E+01  0.55000000000E+01  0.51109989000E-03 0. -1.
     -623   -1    0    0    0    0  0.00000000000E+00  0.00000000000E+00  0.93234578044E-11  0.17124000000E+03  0.17124000000E+03 0. -1.
       11    1    1    2    0    0  0.24720007270E-02 -0.10036344701E-01  0.37002902658E+00  0.37017371697E+00  0.51109989000E-03 0. -1.
     -623    1    1    2    0    0 -0.10681996245E+00  0.11400298537E+00  0.23350798815E-02  0.17124007128E+03  0.17124000000E+03 0. -1.
     -611    1    1    2    0    0  0.71585037625E-01 -0.75199081957E-01  0.36319622624E+01  0.36334459479E+01  0.51109989000E-03 0. -1.
      611    1    1    2    0    0  0.32762924133E-01 -0.28767558755E-01  0.14956736095E+01  0.14963090553E+01  0.51109989000E-03 0.  1.
</event>
<event>
 6   3  0.2312675E+03  0.9118800E+02  0.7818608E-02  0.1180000E+00
       11   -1    0    0    0    0  0.00000000000E+00  0.00000000000E+00  0.54999999763E+01  0.55000000000E+01  0.51109989000E-03 0.  1.
     -623   -1    0    0    0    0  0.00000000000E+00  0.00000000000E+00  0.93234578044E-11  0.17124000000E+03  0.17124000000E+03 0.  1.
       11    1    1    2    0    0 -0.42882972503E-01 -0.30563165108E-01  0.34528670058E+00  0.34927957743E+00  0.51109989000E-03 0.  1.
     -623    1    1    2    0    0 -0.39290006519E-01 -0.25257895348E-02  0.47595706527E-02  0.17124000459E+03  0.17124000000E+03 0.  1.
     -611    1    1    2    0    0  0.44601822445E-01  0.17350020586E-01  0.27563233345E+01  0.27567388217E+01  0.51109989000E-03 0.  1.
      611    1    1    2    0    0  0.37571156555E-01  0.15738934048E-01  0.23936303692E+01  0.23939770073E+01  0.51109989000E-03 0.  1.
</event>
<event>
 6   3  0.2312675E+03  0.9118800E+02  0.7818608E-02  0.1180000E+00
       11   -1    0    0    0    0  0.00000000000E+00  0.00000000000E+00  0.54999999763E+01  0.55000000000E+01  0.51109989000E-03 0. -1.
     -623   -1    0    0    0    0  0.00000000000E+00  0.00000000000E+00  0.93234578044E-11  0.17124000000E+03  0.17124000000E+03 0. -1.
       11    1    1    2    0    0  0.96375167194E-01 -0.38383735613E-01  0.47549931110E+00  0.48668402490E+00  0.51109989000E-03 0. -1.
     -623    1    1    2    0    0 -0.60891609506E-02  0.12052256264E-01  0.12870282016E-01  0.17124000102E+03  0.17124000000E+03 0. -1.
     -611    1    1    2    0    0 -0.10793774756E+00  0.27227286700E-01  0.40882681341E+01  0.40897834270E+01  0.51109989000E-03 0. -1.
      611    1    1    2    0    0  0.17651741313E-01 -0.89580735143E-03  0.92336224909E+00  0.92353153206E+00  0.51109989000E-03 0.  1.
</event>
<event>
 6   3  0.2312675E+03  0.9118800E+02  0.7818608E-02  0.1180000E+00
       11   -1    0    0    0    0  0.00000000000E+00  0.00000000000E+00  0.54999999763E+01  0.55000000000E+01  0.51109989000E-03 0. -1.
     -623   -1    0    0    0    0  0.00000000000E+00  0.00000000000E+00  0.93234578044E-11  0.17124000000E+03  0.17124000000E+03 0. -1.
       11    1    1    2    0    0 -0.98398676410E-02  0.49492770298E-02  0.82878334449E+00  0.82885668946E+00  0.51109989000E-03 0. -1.
     -623    1    1    2    0    0  0.68950739609E-01 -0.18280810620E-01  0.48163137971E-03  0.17124001486E+03  0.17124000000E+03 0. -1.
     -611    1    1    2    0    0 -0.48957343024E-01  0.11266249292E-01  0.38343298238E+01  0.38346589430E+01  0.51109989000E-03 0. -1.
      611    1    1    2    0    0 -0.10153529142E-01  0.20652843498E-02  0.83640519231E+00  0.83646952514E+00  0.51109989000E-03 0.  1.
</event>
<event>
 6   3  0.2312675E+03  0.9118800E+02  0.7818608E-02  0.1180000E+00
       11   -1    0    0    0    0  0.00000000000E+00  0.00000000000E+00  0.54999999763E+01  0.55000000000E+01  0.51109989000E-03 0. -1.
     -623   -1    0    0    0    0  0.00000000000E+00  0.00000000000E+00  0.93234578044E-11  0.17124000000E+03  0.17124000000E+03 0.  1.
       11    1    1    2    0    0  0.82559920594E-01  0.40189718512E-01  0.20200996180E+00  0.22190006727E+00  0.51109989000E-03 0. -1.
     -623    1    1    2    0    0  0.62306397658E-01 -0.24480554038E-01  0.26010299775E-01  0.17124001506E+03  0.17124000000E+03 0.  1.
     -611    1    1    2    0    0  0.39299179133E-01 -0.39569331861E-01  0.20494873230E+01  0.20502460110E+01  0.51109989000E-03 0.  1.
      611    1    1    2    0    0 -0.18416549738E+00  0.23860167387E-01  0.32224923917E+01  0.32278388612E+01  0.51109989000E-03 0. -1.
</event>
<event>
 6   3  0.2312675E+03  0.9118800E+02  0.7818608E-02  0.1180000E+00
       11   -1    0    0    0    0  0.00000000000E+00  0.00000000000E+00  0.54999999763E+01  0.55000000000E+01  0.51109989000E-03 0. -1.
     -623   -1    0    0    0    0  0.00000000000E+00  0.00000000000E+00  0.93234578044E-11  0.17124000000E+03  0.17124000000E+03 0. -1.
       11    1    1    2    0    0 -0.35986967894E-02  0.27861525422E-01  0.13914285361E+00  0.14195143589E+00  0.51109989000E-03 0. -1.
     -623    1    1    2    0    0 -0.20445857004E-01 -0.21822851075E-01  0.43132970045E-02  0.17124000267E+03  0.17124000000E+03 0. -1.
     -611    1    1    2    0    0  0.71667359961E-01  0.17068381340E-01  0.32823019917E+01  0.32831287160E+01  0.51109989000E-03 0. -1.
      611    1    1    2    0    0 -0.47622806167E-01 -0.23107055687E-01  0.20742418339E+01  0.20749171826E+01  0.51109989000E-03 0.  1.
</event>
<event>
 6   3  0.2312675E+03  0.9118800E+02  0.7818608E-02  0.1180000E+00
       11   -1    0    0    0    0  0.00000000000E+00  0.00000000000E+00  0.54999999763E+01  0.55000000000E+01  0.51109989000E-03 0. -1.
     -623   -1    0    0    0    0  0.00000000000E+00  0.00000000000E+00  0.93234578044E-11  0.17124000000E+03  0.17124000000E+03 0.  1.
       11    1    1    2    0    0  0.11762441003E-01 -0.15100576596E-01  0.16180358799E+00  0.16293263866E+00  0.51109989000E-03 0. -1.
     -623    1    1    2    0    0 -0.92084063415E-02 -0.89236110323E-02  0.27774242992E-02  0.17124000050E+03  0.17124000000E+03 0.  1.
     -611    1    1    2    0    0  0.57817389372E-01 -0.16222494878E-01  0.23920219533E+01  0.23927756489E+01  0.51109989000E-03 0. -1.
      611    1    1    2    0    0 -0.60371424034E-01  0.40246682506E-01  0.29433970107E+01  0.29442912098E+01  0.51109989000E-03 0.  1.
</event>
<event>
 6   3  0.2312675E+03  0.9118800E+02  0.7818608E-02  0.1180000E+00
       11   -1    0    0    0    0  0.00000000000E+00  0.00000000000E+00  0.54999999763E+01  0.55000000000E+01  0.51109989000E-03 0. -1.
     -623   -1    0    0    0    0  0.00000000000E+00  0.00000000000E+00  0.93234578044E-11  0.17124000000E+03  0.17124000000E+03 0. -1.
       11    1    1    2    0    0  0.89807588480E-02  0.35027415671E-02  0.42688113543E+00  0.42699026714E+00  0.51109989000E-03 0. -1.
     -623    1    1    2    0    0 -0.78634947694E-01 -0.37271944072E-01  0.72306529427E-03  0.17124002211E+03  0.17124000000E+03 0. -1.
     -611    1    1    2    0    0  0.22731210492E-01  0.93981470075E-02  0.15750372745E+01  0.15752294151E+01  0.51109989000E-03 0. -1.
      611    1    1    2    0    0  0.46922978374E-01  0.24371055507E-01  0.34973585025E+01  0.34977582064E+01  0.51109989000E-03 0. -1.
</event>
<event>
 6   3  0.2312675E+03  0.9118800E+02  0.7818608E-02  0.1180000E+00
       11   -1    0    0    0    0  0.00000000000E+00  0.00000000000E+00  0.54999999763E+01  0.55000000000E+01  0.51109989000E-03 0. -1.
     -623   -1    0    0    0    0  0.00000000000E+00  0.00000000000E+00  0.93234578044E-11  0.17124000000E+03  0.17124000000E+03 0. -1.
       11    1    1    2    0    0 -0.24730170948E-02  0.74174100015E-03  0.50186924614E-02  0.56669648297E-02  0.51109989000E-03 0. -1.
     -623    1    1    2    0    0 -0.49188359828E-02 -0.45749234476E-02  0.24051222580E-02  0.17124000015E+03  0.17124000000E+03 0. -1.
     -611    1    1    2    0    0  0.69791592632E-01  0.19520910423E-01  0.24281066360E+01  0.24291879362E+01  0.51109989000E-03 0.  1.
      611    1    1    2    0    0 -0.62399739555E-01 -0.15687727975E-01  0.30644695255E+01  0.30651449503E+01  0.51109989000E-03 0. -1.
</event>
<event>
 6   3  0.2312675E+03  0.9118800E+02  0.7818608E-02  0.1180000E+00
       11   -1    0    0    0    0  0.00000000000E+00  0.00000000000E+00  0.54999999763E+01  0.55000000000E+01  0.51109989000E-03 0. -1.
     -623   -1    0    0    0    0  0.00000000000E+00  0.00000000000E+00  0.93234578044E-11  0.17124000000E+03  0.17124000000E+03 0.  1.
       11    1    1    2    0    0  0.18200745004E-01  0.11245816218E-01  0.24710855185E+00  0.24803353226E+00  0.51109989000E-03 0. -1.
     -623    1    1    2    0    0 -0.10061730802E-01 -0.10126910416E-01  0.13767592097E-02  0.17124000060E+03  0.17124000000E+03 0.  1.
     -611    1    1    2    0    0  0.28249314992E-01 -0.10984314415E-01  0.19448670307E+01  0.19451032639E+01  0.51109989000E-03 0. -1.
      611    1    1    2    0    0 -0.36388329193E-01  0.98654086131E-02  0.33066476345E+01  0.33068626033E+01  0.51109989000E-03 0.  1.
</event>
<event>
 6   3  0.2312675E+03  0.9118800E+02  0.7818608E-02  0.1180000E+00
       11   -1    0    0    0    0  0.00000000000E+00  0.00000000000E+00  0.54999999763E+01  0.55000000000E+01  0.51109989000E-03 0. -1.
     -623   -1    0    0    0    0  0.00000000000E+00  0.00000000000E+00  0.93234578044E-11  0.17124000000E+03  0.17124000000E+03 0. -1.
       11    1    1    2    0    0 -0.14383660122E-01 -0.88434474186E-02  0.38457865856E-01  0.42004343942E-01  0.51109989000E-03 0. -1.
     -623    1    1    2    0    0  0.13446493544E-01  0.20115826009E-01  0.46372156584E-02  0.17124000177E+03  0.17124000000E+03 0. -1.
     -611    1    1    2    0    0  0.45083824494E-01 -0.20170657714E-01  0.14600176969E+01  0.14608529505E+01  0.51109989000E-03 0.  1.
      611    1    1    2    0    0 -0.44146657916E-01  0.88982791238E-02  0.39968871978E+01  0.39971409333E+01  0.51109989000E-03 0. -1.
</event>
<event>
 6   3  0.2312675E+03  0.9118800E+02  0.7818608E-02  0.1180000E+00
       11   -1    0    0    0    0  0.00000000000E+00  0.00000000000E+00  0.54999999763E+01  0.55000000000E+01  0.51109989000E-03 0. -1.
     -623   -1    0    0    0    0  0.00000000000E+00  0.00000000000E+00  0.93234578044E-11  0.17124000000E+03  0.17124000000E+03 0. -1.
       11    1    1    2    0    0  0.55692129670E-01  0.10341514407E-01  0.43087189747E+00  0.43457958245E+00  0.51109989000E-03 0. -1.
     -623    1    1    2    0    0 -0.10790955613E+00  0.66738697529E-01  0.46105387725E-02  0.17124004707E+03  0.17124000000E+03 0. -1.
     -611    1    1    2    0    0  0.17314787602E-01 -0.25773872228E-01  0.16891920668E+01  0.16894774914E+01  0.51109989000E-03 0. -1.
      611    1    1    2    0    0  0.34902638922E-01 -0.51306339803E-01  0.33753254795E+01  0.33758958646E+01  0.51109989000E-03 0. -1.
</event>
<event>
 6   3  0.2312675E+03  0.9118800E+02  0.7818608E-02  0.1180000E+00
       11   -1    0    0    0    0  0.00000000000E+00  0.00000000000E+00  0.54999999763E+01  0.55000000000E+01  0.51109989000E-03 0. -1.
     -623   -1    0    0    0    0  0.00000000000E+00  0.00000000000E+00  0.93234578044E-11  0.17124000000E+03  0.17124000000E+03 0.  1.
       11    1    1    2    0    0 -0.62113762594E-01  0.18501916510E-01  0.71231824454E+00  0.71526077982E+00  0.51109989000E-03 0. -1.
     -623    1    1    2    0    0  0.37851848730E-02 -0.49560316798E-02  0.33262580140E-02  0.17124000015E+03  0.17124000000E+03 0.  1.
     -611    1    1    2    0    0  0.13769304138E-01 -0.20800648924E-02  0.84520588114E+00  0.84532074572E+00  0.51109989000E-03 0.  1.
      611    1    1    2    0    0  0.44559273585E-01 -0.11465819939E-01  0.39391495928E+01  0.39394183288E+01  0.51109989000E-03 0. -1.
</event>
<event>
 6   3  0.2312675E+03  0.9118800E+02  0.7818608E-02  0.1180000E+00
       11   -1    0    0    0    0  0.00000000000E+00  0.00000000000E+00  0.54999999763E+01  0.55000000000E+01  0.51109989000E-03 0. -1.
     -623   -1    0    0    0    0  0.00000000000E+00  0.00000000000E+00  0.93234578044E-11  0.17124000000E+03  0.17124000000E+03 0. -1.
       11    1    1    2    0    0  0.29205312332E-02  0.13478492259E-01  0.77476022765E-01  0.78695581724E-01  0.51109989000E-03 0. -1.
     -623    1    1    2    0    0 -0.65855074736E-02 -0.26045592765E-02  0.16978357099E-02  0.17124000015E+03  0.17124000000E+03 0. -1.
     -611    1    1    2    0    0  0.32713501421E-01 -0.23539391742E-01  0.30522191344E+01  0.30524852468E+01  0.51109989000E-03 0. -1.
      611    1    1    2    0    0 -0.29048525181E-01  0.12665458760E-01  0.23686069834E+01  0.23688190166E+01  0.51109989000E-03 0.  1.
</event>
<event>
 6   3  0.2312675E+03  0.9118800E+02  0.7818608E-02  0.1180000E+00
       11   -1    0    0    0    0  0.00000000000E+00  0.00000000000E+00  0.54999999763E+01  0.55000000000E+01  0.51109989000E-03 0. -1.
     -623   -1    0    0    0    0  0.00000000000E+00  0.00000000000E+00  0.93234578044E-11  0.17124000000E+03  0.17124000000E+03 0. -1.
       11    1    1    2    0    0  0.50922004566E-03  0.41104102820E-02  0.21538008008E-01  0.21938591335E-01  0.51109989000E-03 0. -1.
     -623    1    1    2    0    0 -0.21471711907E-02 -0.19468224435E-02  0.20119969129E-02  0.17124000004E+03  0.17124000000E+03 0. -1.
     -611    1    1    2    0    0  0.51980206412E-01  0.38644767397E-01  0.21326279923E+01  0.21336114395E+01  0.51109989000E-03 0.  1.
      611    1    1    2    0    0 -0.50342255267E-01 -0.40808355235E-01  0.33438219791E+01  0.33444499329E+01  0.51109989000E-03 0. -1.
</event>
<event>
 6   3  0.2312675E+03  0.9118800E+02  0.7818608E-02  0.1180000E+00
       11   -1    0    0    0    0  0.00000000000E+00  0.00000000000E+00  0.54999999763E+01  0.55000000000E+01  0.51109989000E-03 0.  1.
     -623   -1    0    0    0    0  0.00000000000E+00  0.00000000000E+00  0.93234578044E-11  0.17124000000E+03  0.17124000000E+03 0.  1.
       11    1    1    2    0    0 -0.45431601090E-02  0.47190904492E-02  0.72113908589E+00  0.72116901802E+00  0.51109989000E-03 0.  1.
     -623    1    1    2    0    0  0.47203562670E-02  0.62593147543E-02  0.40843828052E-03  0.17124000018E+03  0.17124000000E+03 0.  1.
     -611    1    1    2    0    0  0.29089855759E-01 -0.42515388496E-02  0.27267267120E+01  0.27268852412E+01  0.51109989000E-03 0.  1.
      611    1    1    2    0    0 -0.29267051916E-01 -0.67268663536E-02  0.20517257399E+01  0.20519455607E+01  0.51109989000E-03 0. -1.
</event>
<event>
 6   3  0.2312675E+03  0.9118800E+02  0.7818608E-02  0.1180000E+00
       11   -1    0    0    0    0  0.00000000000E+00  0.00000000000E+00  0.54999999763E+01  0.55000000000E+01  0.51109989000E-03 0.  1.
     -623   -1    0    0    0    0  0.00000000000E+00  0.00000000000E+00  0.93234578044E-11  0.17124000000E+03  0.17124000000E+03 0.  1.
       11    1    1    2    0    0  0.52132273514E-01  0.42442088064E-01  0.95431971129E+00  0.95668462795E+00  0.51109989000E-03 0.  1.
     -623    1    1    2    0    0  0.68980698737E-02 -0.51982833304E-02  0.29017944393E-02  0.17124000024E+03  0.17124000000E+03 0.  1.
     -611    1    1    2    0    0 -0.29651112548E-01 -0.18943773406E-01  0.22314079232E+01  0.22316853802E+01  0.51109989000E-03 0.  1.
      611    1    1    2    0    0 -0.29379230855E-01 -0.18300031337E-01  0.23113705485E+01  0.23116297506E+01  0.51109989000E-03 0. -1.
</event>
<event>
 6   3  0.2312675E+03  0.9118800E+02  0.7818608E-02  0.1180000E+00
       11   -1    0    0    0    0  0.00000000000E+00  0.00000000000E+00  0.54999999763E+01  0.55000000000E+01  0.51109989000E-03 0. -1.
     -623   -1    0    0    0    0  0.00000000000E+00  0.00000000000E+00  0.93234578044E-11  0.17124000000E+03  0.17124000000E+03 0. -1.
       11    1    1    2    0    0  0.50839503412E-02 -0.14397299548E+00  0.40435867324E+00  0.42925548084E+00  0.51109989000E-03 0. -1.
     -623    1    1    2    0    0 -0.11556382209E+00  0.88140878845E-01  0.26526042212E-01  0.17124006373E+03  0.17124000000E+03 0. -1.
     -611    1    1    2    0    0  0.10039540281E-01  0.13356246636E-01  0.57791633166E+00  0.57815804874E+00  0.51109989000E-03 0.  1.
      611    1    1    2    0    0  0.10044033147E+00  0.42475870000E-01  0.44911989292E+01  0.44925227370E+01  0.51109989000E-03 0. -1.
</event>
<event>
 6   3  0.2312675E+03  0.9118800E+02  0.7818608E-02  0.1180000E+00
       11   -1    0    0    0    0  0.00000000000E+00  0.00000000000E+00  0.54999999763E+01  0.55000000000E+01  0.51109989000E-03 0.  1.
     -623   -1    0    0    0    0  0.00000000000E+00  0.00000000000E+00  0.93234578044E-11  0.17124000000E+03  0.17124000000E+03 0. -1.
       11    1    1    2    0    0  0.72010177803E-03  0.19403754829E-01  0.45613219545E+00  0.45654557845E+00  0.51109989000E-03 0.  1.
     -623    1    1    2    0    0  0.62165398400E-02  0.62882226351E-02  0.29840770789E-02  0.17124000025E+03  0.17124000000E+03 0. -1.
     -611    1    1    2    0    0 -0.72983939360E-01  0.20497180640E-02  0.14326549523E+01  0.14345143186E+01  0.51109989000E-03 0. -1.
      611    1    1    2    0    0  0.66047297741E-01 -0.27741695528E-01  0.36082287514E+01  0.36089398486E+01  0.51109989000E-03 0.  1.
</event>
<event>
 6   3  0.2312675E+03  0.9118800E+02  0.7818608E-02  0.1180000E+00
       11   -1    0    0    0    0  0.00000000000E+00  0.00000000000E+00  0.54999999763E+01  0.55000000000E+01  0.51109989000E-03 0.  1.
     -623   -1    0    0    0    0  0.00000000000E+00  0.00000000000E+00  0.93234578044E-11  0.17124000000E+03  0.17124000000E+03 0.  1.
       11    1    1    2    0    0  0.11155687808E-01 -0.12709735330E-03  0.23678599423E-01  0.26180198967E-01  0.51109989000E-03 0.  1.
     -623    1    1    2    0    0 -0.16166604997E-01  0.22482906820E-01  0.32585862933E-02  0.17124000227E+03  0.17124000000E+03 0.  1.
     -611    1    1    2    0    0  0.42527318223E-01 -0.10983259048E-01  0.17611535045E+01  0.17617012041E+01  0.51109989000E-03 0. -1.
      611    1    1    2    0    0 -0.37516401034E-01 -0.11372550419E-01  0.37119092861E+01  0.37121163269E+01  0.51109989000E-03 0.  1.
</event>
<event>
 6   3  0.2312675E+03  0.9118800E+02  0.7818608E-02  0.1180000E+00
       11   -1    0    0    0    0  0.00000000000E+00  0.00000000000E+00  0.54999999763E+01  0.55000000000E+01  0.51109989000E-03 0. -1.
     -623   -1    0    0    0    0  0.00000000000E+00  0.00000000000E+00  0.93234578044E-11  0.17124000000E+03  0.17124000000E+03 0.  1.
       11    1    1    2    0    0  0.46163190903E-01  0.67945390359E-02  0.10598839712E+01  0.10609106935E+01  0.51109989000E-03 0. -1.
     -623    1    1    2    0    0  0.29289267130E-02 -0.21301098958E-02  0.13060035026E-02  0.17124000004E+03  0.17124000000E+03 0.  1.
     -611    1    1    2    0    0 -0.36987577304E-01 -0.57847079917E-03  0.32580332197E+01  0.32582432594E+01  0.51109989000E-03 0. -1.
      611    1    1    2    0    0 -0.12104540313E-01 -0.40859583411E-02  0.11807767818E+01  0.11808460038E+01  0.51109989000E-03 0.  1.
</event>
<event>
 6   3  0.2312675E+03  0.9118800E+02  0.7818608E-02  0.1180000E+00
       11   -1    0    0    0    0  0.00000000000E+00  0.00000000000E+00  0.54999999763E+01  0.55000000000E+01  0.51109989000E-03 0. -1.
     -623   -1    0    0    0    0  0.00000000000E+00  0.00000000000E+00  0.93234578044E-11  0.17124000000E+03  0.17124000000E+03 0. -1.
       11    1    1    2    0    0  0.89299627593E-04  0.78410090016E-02  0.13798950653E+00  0.13821307656E+00  0.51109989000E-03 0. -1.
     -623    1    1    2    0    0  0.41881649884E-02 -0.11535674451E-01  0.15184049366E-02  0.17124000045E+03  0.17124000000E+03 0. -1.
     -611    1    1    2    0    0 -0.36812837893E-01 -0.44390404273E-01  0.21702344431E+01  0.21710005740E+01  0.51109989000E-03 0. -1.
      611    1    1    2    0    0  0.32535373277E-01  0.48085069723E-01  0.31902576218E+01  0.31907859030E+01  0.51109989000E-03 0.  1.
</event>
<event>
 6   3  0.2312675E+03  0.9118800E+02  0.7818608E-02  0.1180000E+00
       11   -1    0    0    0    0  0.00000000000E+00  0.00000000000E+00  0.54999999763E+01  0.55000000000E+01  0.51109989000E-03 0. -1.
     -623   -1    0    0    0    0  0.00000000000E+00  0.00000000000E+00  0.93234578044E-11  0.17124000000E+03  0.17124000000E+03 0. -1.
       11    1    1    2    0    0 -0.23276837093E-01 -0.26614082352E-02  0.10253753185E+01  0.10256430662E+01  0.51109989000E-03 0. -1.
     -623    1    1    2    0    0  0.26165151386E-02 -0.16570829527E-01  0.16133817736E-02  0.17124000083E+03  0.17124000000E+03 0. -1.
     -611    1    1    2    0    0  0.60876748906E-01  0.97020335788E-02  0.33826143344E+01  0.33831760381E+01  0.51109989000E-03 0. -1.
      611    1    1    2    0    0 -0.40216426951E-01  0.95302041836E-02  0.10903969416E+01  0.10911800664E+01  0.51109989000E-03 0.  1.
</event>
<event>
 6   3  0.2312675E+03  0.9118800E+02  0.7818608E-02  0.1180000E+00
       11   -1    0    0    0    0  0.00000000000E+00  0.00000000000E+00  0.54999999763E+01  0.55000000000E+01  0.51109989000E-03 0. -1.
     -623   -1    0    0    0    0  0.00000000000E+00  0.00000000000E+00  0.93234578044E-11  0.17124000000E+03  0.17124000000E+03 0.  1.
       11    1    1    2    0    0 -0.40383288433E-02 -0.31257306827E-03  0.23664982951E-01  0.24014546487E-01  0.51109989000E-03 0. -1.
     -623    1    1    2    0    0  0.22775518532E-03 -0.81504937771E-03  0.79195808673E-03  0.17124000000E+03  0.17124000000E+03 0.  1.
     -611    1    1    2    0    0 -0.30141496049E-01 -0.12121265361E-01  0.29609124093E+01  0.29610906761E+01  0.51109989000E-03 0. -1.
      611    1    1    2    0    0  0.33952069707E-01  0.13248887807E-01  0.25146306260E+01  0.25148947736E+01  0.51109989000E-03 0.  1.
</event>
<event>
 6   3  0.2312675E+03  0.9118800E+02  0.7818608E-02  0.1180000E+00
       11   -1    0    0    0    0  0.00000000000E+00  0.00000000000E+00  0.54999999763E+01  0.55000000000E+01  0.51109989000E-03 0.  1.
     -623   -1    0    0    0    0  0.00000000000E+00  0.00000000000E+00  0.93234578044E-11  0.17124000000E+03  0.17124000000E+03 0. -1.
       11    1    1    2    0    0  0.10223526221E-01 -0.13902679222E-01  0.69513668374E+00  0.69535104464E+00  0.51109989000E-03 0.  1.
     -623    1    1    2    0    0  0.12355284817E-01 -0.39073817161E-01  0.13010154287E-02  0.17124000491E+03  0.17124000000E+03 0. -1.
     -611    1    1    2    0    0 -0.49199137605E-01  0.54893998682E-01  0.31238266594E+01  0.31246963317E+01  0.51109989000E-03 0.  1.
      611    1    1    2    0    0  0.26620326567E-01 -0.19175022991E-02  0.16797356177E+01  0.16799477150E+01  0.51109989000E-03 0. -1.
</event>
<event>
 6   3  0.2312675E+03  0.9118800E+02  0.7818608E-02  0.1180000E+00
       11   -1    0    0    0    0  0.00000000000E+00  0.00000000000E+00  0.54999999763E+01  0.55000000000E+01  0.51109989000E-03 0.  1.
     -623   -1    0    0    0    0  0.00000000000E+00  0.00000000000E+00  0.93234578044E-11  0.17124000000E+03  0.17124000000E+03 0. -1.
       11    1    1    2    0    0 -0.32925032714E-01 -0.12391205018E-01  0.45286840770E+00  0.45423304114E+00  0.51109989000E-03 0.  1.
     -623    1    1    2    0    0 -0.22521042240E-01  0.16584485631E-01  0.16735847567E-02  0.17124000229E+03  0.17124000000E+03 0. -1.
     -611    1    1    2    0    0  0.12262619735E-01 -0.81853732132E-03  0.10724256318E+01  0.10724961719E+01  0.51109989000E-03 0.  1.
      611    1    1    2    0    0  0.43183455195E-01 -0.33747432894E-02  0.39730323499E+01  0.39732684926E+01  0.51109989000E-03 0.  1.
</event>
<event>
 6   3  0.2312675E+03  0.9118800E+02  0.7818608E-02  0.1180000E+00
       11   -1    0    0    0    0  0.00000000000E+00  0.00000000000E+00  0.54999999763E+01  0.55000000000E+01  0.51109989000E-03 0.  1.
     -623   -1    0    0    0    0  0.00000000000E+00  0.00000000000E+00  0.93234578044E-11  0.17124000000E+03  0.17124000000E+03 0. -1.
       11    1    1    2    0    0 -0.13002312305E-02  0.87680915001E-03 -0.63760121746E-04  0.16506616821E-02  0.51109989000E-03 0.  1.
     -623    1    1    2    0    0  0.51994039470E-02 -0.67266138350E-02  0.28642522948E-02  0.17124000024E+03  0.17124000000E+03 0. -1.
     -611    1    1    2    0    0 -0.32495175834E-01 -0.44135558686E-01  0.27456690127E+01  0.27462160280E+01  0.51109989000E-03 0. -1.
      611    1    1    2    0    0  0.28596003118E-01  0.49985363371E-01  0.27515304714E+01  0.27521330753E+01  0.51109989000E-03 0.  1.
</event>
<event>
 6   3  0.2312675E+03  0.9118800E+02  0.7818608E-02  0.1180000E+00
       11   -1    0    0    0    0  0.00000000000E+00  0.00000000000E+00  0.54999999763E+01  0.55000000000E+01  0.51109989000E-03 0. -1.
     -623   -1    0    0    0    0  0.00000000000E+00  0.00000000000E+00  0.93234578044E-11  0.17124000000E+03  0.17124000000E+03 0.  1.
       11    1    1    2    0    0 -0.11732152992E-01  0.58289186503E-03  0.61402794527E+00  0.61414050670E+00  0.51109989000E-03 0. -1.
     -623    1    1    2    0    0  0.10712494181E+00 -0.13520733443E-01  0.10957520325E-02  0.17124003405E+03  0.17124000000E+03 0.  1.
     -611    1    1    2    0    0 -0.24803734855E-01  0.35710718394E-02  0.13237015290E+01  0.13239388116E+01  0.51109989000E-03 0.  1.
      611    1    1    2    0    0 -0.70589053955E-01  0.93667697375E-02  0.35611747494E+01  0.35618866361E+01  0.51109989000E-03 0. -1.
</event>
<event>
 6   3  0.2312675E+03  0.9118800E+02  0.7818608E-02  0.1180000E+00
       11   -1    0    0    0    0  0.00000000000E+00  0.00000000000E+00  0.54999999763E+01  0.55000000000E+01  0.51109989000E-03 0. -1.
     -623   -1    0    0    0    0  0.00000000000E+00  0.00000000000E+00  0.93234578044E-11  0.17124000000E+03  0.17124000000E+03 0. -1.
       11    1    1    2    0    0 -0.60133039363E-02  0.47154197338E-01  0.96163602373E+00  0.96281035595E+00  0.51109989000E-03 0. -1.
     -623    1    1    2    0    0  0.24583520509E-01 -0.44673487877E-02  0.44296031913E-02  0.17124000188E+03  0.17124000000E+03 0. -1.
     -611    1    1    2    0    0 -0.76000432730E-01 -0.73871763454E-01  0.29613141379E+01  0.29632102166E+01  0.51109989000E-03 0.  1.
      611    1    1    2    0    0  0.57430216157E-01  0.31184914905E-01  0.15726202114E+01  0.15739775472E+01  0.51109989000E-03 0. -1.
</event>
<event>
 6   3  0.2312675E+03  0.9118800E+02  0.7818608E-02  0.1180000E+00
       11   -1    0    0    0    0  0.00000000000E+00  0.00000000000E+00  0.54999999763E+01  0.55000000000E+01  0.51109989000E-03 0. -1.
     -623   -1    0    0    0    0  0.00000000000E+00  0.00000000000E+00  0.93234578044E-11  0.17124000000E+03  0.17124000000E+03 0. -1.
       11    1    1    2    0    0  0.51468091526E-01 -0.13394935509E-01  0.10489697797E+01  0.10503172134E+01  0.51109989000E-03 0. -1.
     -623    1    1    2    0    0  0.25251995405E-02  0.80696700140E-03  0.16931454184E-02  0.17124000003E+03  0.17124000000E+03 0. -1.
     -611    1    1    2    0    0 -0.19235397548E-01  0.38694320382E-02  0.15716682242E+01  0.15717907752E+01  0.51109989000E-03 0.  1.
      611    1    1    2    0    0 -0.34757893474E-01  0.87185364591E-02  0.28776688233E+01  0.28778919788E+01  0.51109989000E-03 0. -1.
</event>
<event>
 6   3  0.2312675E+03  0.9118800E+02  0.7818608E-02  0.1180000E+00
       11   -1    0    0    0    0  0.00000000000E+00  0.00000000000E+00  0.54999999763E+01  0.55000000000E+01  0.51109989000E-03 0.  1.
     -623   -1    0    0    0    0  0.00000000000E+00  0.00000000000E+00  0.93234578044E-11  0.17124000000E+03  0.17124000000E+03 0. -1.
       11    1    1    2    0    0  0.12536437886E-01 -0.87384528765E-02  0.94266486295E+00  0.94278885648E+00  0.51109989000E-03 0.  1.
     -623    1    1    2    0    0  0.80977955254E-01 -0.14954934453E-02  0.11215730525E-02  0.17124001916E+03  0.17124000000E+03 0. -1.
     -611    1    1    2    0    0 -0.52667857567E-01  0.98023232309E-02  0.26030799856E+01  0.26036312453E+01  0.51109989000E-03 0.  1.
      611    1    1    2    0    0 -0.40846535572E-01  0.43162309102E-03  0.19531335546E+01  0.19535607411E+01  0.51109989000E-03 0. -1.
</event>
<event>
 6   3  0.2312675E+03  0.9118800E+02  0.7818608E-02  0.1180000E+00
       11   -1    0    0    0    0  0.00000000000E+00  0.00000000000E+00  0.54999999763E+01  0.55000000000E+01  0.51109989000E-03 0.  1.
     -623   -1    0    0    0    0  0.00000000000E+00  0.00000000000E+00  0.93234578044E-11  0.17124000000E+03  0.17124000000E+03 0.  1.
       11    1    1    2    0    0 -0.56812301256E-01  0.11359158342E-01  0.27054851084E+00  0.27668289791E+00  0.51109989000E-03 0.  1.
     -623    1    1    2    0    0 -0.45060983322E-01  0.10842007213E-01  0.71930590310E-02  0.17124000642E+03  0.17124000000E+03 0.  1.
     -611    1    1    2    0    0  0.41971837083E-01 -0.14671643280E-01  0.22235580638E+01  0.22240026116E+01  0.51109989000E-03 0.  1.
      611    1    1    2    0    0  0.59901447497E-01 -0.75295222750E-02  0.29987003427E+01  0.29993080675E+01  0.51109989000E-03 0.  1.
</event>
<event>
 6   3  0.2312675E+03  0.9118800E+02  0.7818608E-02  0.1180000E+00
       11   -1    0    0    0    0  0.00000000000E+00  0.00000000000E+00  0.54999999763E+01  0.55000000000E+01  0.51109989000E-03 0. -1.
     -623   -1    0    0    0    0  0.00000000000E+00  0.00000000000E+00  0.93234578044E-11  0.17124000000E+03  0.17124000000E+03 0.  1.
       11    1    1    2    0    0 -0.66545062448E-02 -0.10655771929E-02  0.57407440765E+00  0.57411419130E+00  0.51109989000E-03 0.  1.
     -623    1    1    2    0    0  0.57847047866E-01  0.14015063116E-01  0.33356732442E-03  0.17124001034E+03  0.17124000000E+03 0.  1.
     -611    1    1    2    0    0 -0.81270897761E-02 -0.15429056193E-02  0.75388523364E+00  0.75393079051E+00  0.51109989000E-03 0. -1.
      611    1    1    2    0    0 -0.43065452406E-01 -0.11406580440E-01  0.41717068209E+01  0.41719447269E+01  0.51109989000E-03 0. -1.
</event>
<event>
 6   3  0.2312675E+03  0.9118800E+02  0.7818608E-02  0.1180000E+00
       11   -1    0    0    0    0  0.00000000000E+00  0.00000000000E+00  0.54999999763E+01  0.55000000000E+01  0.51109989000E-03 0.  1.
     -623   -1    0    0    0    0  0.00000000000E+00  0.00000000000E+00  0.93234578044E-11  0.17124000000E+03  0.17124000000E+03 0. -1.
       11    1    1    2    0    0 -0.61070418245E-01 -0.69652936836E-01  0.10920386210E+01  0.10959606464E+01  0.51109989000E-03 0.  1.
     -623    1    1    2    0    0 -0.76484817278E-02  0.64923057383E-02  0.49167940432E-02  0.17124000036E+03  0.17124000000E+03 0. -1.
     -611    1    1    2    0    0  0.12749270668E-01  0.12698826160E-01  0.97503998811E+00  0.97520615447E+00  0.51109989000E-03 0. -1.
      611    1    1    2    0    0  0.55969629305E-01  0.50461804938E-01  0.34280045732E+01  0.34288328347E+01  0.51109989000E-03 0.  1.
</event>
<event>
 6   3  0.4077018E+03  0.9118800E+02  0.7818608E-02  0.1180000E+00
       11   -1    0    0    0    0  0.00000000000E+00  0.00000000000E+00  0.54999999763E+01  0.55000000000E+01  0.51109989000E-03 0.  1.
     -623   -1    0    0    0    0  0.00000000000E+00  0.00000000000E+00  0.93234578044E-11  0.17124000000E+03  0.17124000000E+03 0.  1.
       11    1    1    2    0    0  0.97462605412E-03 -0.23852451932E-02  0.20849143617E-02  0.33537116111E-02  0.51109989000E-03 0.  1.
     -623    1    1    2    0    0 -0.13273812917E-02  0.43375050852E-02  0.24201586403E-02  0.17124000008E+03  0.17124000000E+03 0.  1.
     -611    1    1    2    0    0 -0.43428868054E-01  0.30735237932E-01  0.19323600296E+01  0.19330924103E+01  0.51109989000E-03 0. -1.
      611    1    1    2    0    0  0.43781623292E-01 -0.32687497824E-01  0.35631348736E+01  0.35635538009E+01  0.51109989000E-03 0.  1.
</event>
<event>
 6   3  0.2312675E+03  0.9118800E+02  0.7818608E-02  0.1180000E+00
       11   -1    0    0    0    0  0.00000000000E+00  0.00000000000E+00  0.54999999763E+01  0.55000000000E+01  0.51109989000E-03 0.  1.
     -623   -1    0    0    0    0  0.00000000000E+00  0.00000000000E+00  0.93234578044E-11  0.17124000000E+03  0.17124000000E+03 0.  1.
       11    1    1    2    0    0 -0.72336813432E-01 -0.56699125846E-01  0.95321169776E+00  0.95763260566E+00  0.51109989000E-03 0.  1.
     -623    1    1    2    0    0  0.16858040378E-02  0.14982793031E-01  0.53421210280E-02  0.17124000075E+03  0.17124000000E+03 0.  1.
     -611    1    1    2    0    0  0.47017720479E-01  0.47781096026E-01  0.33328767565E+01  0.33335508747E+01  0.51109989000E-03 0.  1.
      611    1    1    2    0    0  0.23633288914E-01 -0.60647632104E-02  0.12085694009E+01  0.12088157725E+01  0.51109989000E-03 0. -1.
</event>
<event>
 6   3  0.2312675E+03  0.9118800E+02  0.7818608E-02  0.1180000E+00
       11   -1    0    0    0    0  0.00000000000E+00  0.00000000000E+00  0.54999999763E+01  0.55000000000E+01  0.51109989000E-03 0. -1.
     -623   -1    0    0    0    0  0.00000000000E+00  0.00000000000E+00  0.93234578044E-11  0.17124000000E+03  0.17124000000E+03 0.  1.
       11    1    1    2    0    0 -0.89354865035E-02  0.68334162523E-02  0.45681456284E+00  0.45695332862E+00  0.51109989000E-03 0. -1.
     -623    1    1    2    0    0  0.39882727800E-02 -0.56909185216E-02  0.83116407273E-03  0.17124000014E+03  0.17124000000E+03 0.  1.
     -611    1    1    2    0    0  0.42350914104E-01 -0.77439307775E-02  0.32826086676E+01  0.32828910269E+01  0.51109989000E-03 0. -1.
      611    1    1    2    0    0 -0.37403700380E-01  0.66014330469E-02  0.17597455818E+01  0.17601555015E+01  0.51109989000E-03 0.  1.
</event>
<event>
 6   3  0.2312675E+03  0.9118800E+02  0.7818608E-02  0.1180000E+00
       11   -1    0    0    0    0  0.00000000000E+00  0.00000000000E+00  0.54999999763E+01  0.55000000000E+01  0.51109989000E-03 0. -1.
     -623   -1    0    0    0    0  0.00000000000E+00  0.00000000000E+00  0.93234578044E-11  0.17124000000E+03  0.17124000000E+03 0. -1.
       11    1    1    2    0    0  0.13859468483E-01 -0.18260184117E-01  0.54022836888E-01  0.58687710120E-01  0.51109989000E-03 0. -1.
     -623    1    1    2    0    0 -0.11673461041E-01  0.89911355263E-02  0.51902742436E-02  0.17124000071E+03  0.17124000000E+03 0. -1.
     -611    1    1    2    0    0 -0.38274436406E-01  0.59553901272E-02  0.31463808583E+01  0.31466193233E+01  0.51109989000E-03 0. -1.
      611    1    1    2    0    0  0.36088428965E-01  0.33136584637E-02  0.22944060068E+01  0.22946922540E+01  0.51109989000E-03 0.  1.
</event>
<event>
 6   3  0.2312675E+03  0.9118800E+02  0.7818608E-02  0.1180000E+00
       11   -1    0    0    0    0  0.00000000000E+00  0.00000000000E+00  0.54999999763E+01  0.55000000000E+01  0.51109989000E-03 0. -1.
     -623   -1    0    0    0    0  0.00000000000E+00  0.00000000000E+00  0.93234578044E-11  0.17124000000E+03  0.17124000000E+03 0. -1.
       11    1    1    2    0    0 -0.46417188847E-01  0.63252022230E-03  0.10485108640E+01  0.10495381121E+01  0.51109989000E-03 0. -1.
     -623    1    1    2    0    0 -0.18618658190E-01 -0.13981266169E-01  0.15292334521E-02  0.17124000159E+03  0.17124000000E+03 0. -1.
     -611    1    1    2    0    0  0.35709467037E-01  0.60249291482E-02  0.26296253188E+01  0.26298747202E+01  0.51109989000E-03 0. -1.
      611    1    1    2    0    0  0.29326380001E-01  0.73238167991E-02  0.18203345601E+01  0.18205855780E+01  0.51109989000E-03 0.  1.
</event>
<event>
 6   3  0.2312675E+03  0.9118800E+02  0.7818608E-02  0.1180000E+00
       11   -1    0    0    0    0  0.00000000000E+00  0.00000000000E+00  0.54999999763E+01  0.55000000000E+01  0.51109989000E-03 0.  1.
     -623   -1    0    0    0    0  0.00000000000E+00  0.00000000000E+00  0.93234578044E-11  0.17124000000E+03  0.17124000000E+03 0.  1.
       11    1    1    2    0    0 -0.17878841266E-01  0.65260247348E-02  0.47204767613E+00  0.47243148893E+00  0.51109989000E-03 0.  1.
     -623    1    1    2    0    0  0.18007778117E-02  0.17843316566E-02  0.11957589297E-02  0.17124000002E+03  0.17124000000E+03 0.  1.
     -611    1    1    2    0    0 -0.33565904187E-01 -0.44272026020E-02  0.30375271305E+01  0.30377158524E+01  0.51109989000E-03 0. -1.
      611    1    1    2    0    0  0.49643967641E-01 -0.38831537894E-02  0.19892294107E+01  0.19898526358E+01  0.51109989000E-03 0.  1.
</event>
<event>
 6   3  0.2617225E+03  0.9118800E+02  0.7818608E-02  0.1180000E+00
       11   -1    0    0    0    0  0.00000000000E+00  0.00000000000E+00  0.54999999763E+01  0.55000000000E+01  0.51109989000E-03 0. -1.
     -623   -1    0    0    0    0  0.00000000000E+00  0.00000000000E+00  0.93234578044E-11  0.17124000000E+03  0.17124000000E+03 0.  1.
       11    1    1    2    0    0 -0.53831358019E-02 -0.10248343599E-02  0.28607171243E-02  0.62026899076E-02  0.51109989000E-03 0. -1.
     -623    1    1    2    0    0  0.71687858799E-02 -0.23087379260E-02  0.49067951426E-02  0.17124000024E+03  0.17124000000E+03 0.  1.
     -611    1    1    2    0    0 -0.45553296947E-01  0.31571290609E-01  0.12319822736E+01  0.12332284594E+01  0.51109989000E-03 0.  1.
      611    1    1    2    0    0  0.43767646869E-01 -0.28237718323E-01  0.42602501903E+01  0.42605686148E+01  0.51109989000E-03 0. -1.
</event>
<event>
 6   3  0.2312675E+03  0.9118800E+02  0.7818608E-02  0.1180000E+00
       11   -1    0    0    0    0  0.00000000000E+00  0.00000000000E+00  0.54999999763E+01  0.55000000000E+01  0.51109989000E-03 0.  1.
     -623   -1    0    0    0    0  0.00000000000E+00  0.00000000000E+00  0.93234578044E-11  0.17124000000E+03  0.17124000000E+03 0. -1.
       11    1    1    2    0    0 -0.15160871011E-01  0.26845819286E-01  0.55276517901E+00  0.55362456085E+00  0.51109989000E-03 0.  1.
     -623    1    1    2    0    0 -0.12631036822E-01 -0.34826724396E-01  0.24728017719E-02  0.17124000403E+03  0.17124000000E+03 0. -1.
     -611    1    1    2    0    0  0.71083563778E-01 -0.12803747378E-01  0.21899080950E+01  0.21910989331E+01  0.51109989000E-03 0. -1.
      611    1    1    2    0    0 -0.43291655945E-01  0.20784652488E-01  0.27548539005E+01  0.27552724808E+01  0.51109989000E-03 0.  1.
</event>
<event>
 6   3  0.2312675E+03  0.9118800E+02  0.7818608E-02  0.1180000E+00
       11   -1    0    0    0    0  0.00000000000E+00  0.00000000000E+00  0.54999999763E+01  0.55000000000E+01  0.51109989000E-03 0.  1.
     -623   -1    0    0    0    0  0.00000000000E+00  0.00000000000E+00  0.93234578044E-11  0.17124000000E+03  0.17124000000E+03 0. -1.
       11    1    1    2    0    0 -0.14295323243E-01 -0.23597350047E-01  0.99341642382E+00  0.99379959929E+00  0.51109989000E-03 0.  1.
     -623    1    1    2    0    0 -0.41846535162E-01  0.34888670400E-01  0.76470736780E-03  0.17124000867E+03  0.17124000000E+03 0. -1.
     -611    1    1    2    0    0  0.43706641649E-01 -0.10850330552E-01  0.32694716707E+01  0.32697818379E+01  0.51109989000E-03 0.  1.
      611    1    1    2    0    0  0.12435216754E-01 -0.44098980039E-03  0.12363471741E+01  0.12364098937E+01  0.51109989000E-03 0. -1.
</event>
<event>
 6   3  0.2312675E+03  0.9118800E+02  0.7818608E-02  0.1180000E+00
       11   -1    0    0    0    0  0.00000000000E+00  0.00000000000E+00  0.54999999763E+01  0.55000000000E+01  0.51109989000E-03 0.  1.
     -623   -1    0    0    0    0  0.00000000000E+00  0.00000000000E+00  0.93234578044E-11  0.17124000000E+03  0.17124000000E+03 0. -1.
       11    1    1    2    0    0 -0.40753516438E-02 -0.27234536972E-03  0.72462411399E-03  0.41795892412E-02  0.51109989000E-03 0.  1.
     -623    1    1    2    0    0  0.34447704105E-02  0.11238146509E-02  0.47623799468E-02  0.17124000010E+03  0.17124000000E+03 0. -1.
     -611    1    1    2    0    0 -0.46968180399E-01  0.27892116816E-01  0.16474255433E+01  0.16483310232E+01  0.51109989000E-03 0.  1.
      611    1    1    2    0    0  0.47598761632E-01 -0.28743586097E-01  0.38470874289E+01  0.38474892830E+01  0.51109989000E-03 0. -1.
</event>
<event>
 6   3  0.2312675E+03  0.9118800E+02  0.7818608E-02  0.1180000E+00
       11   -1    0    0    0    0  0.00000000000E+00  0.00000000000E+00  0.54999999763E+01  0.55000000000E+01  0.51109989000E-03 0. -1.
     -623   -1    0    0    0    0  0.00000000000E+00  0.00000000000E+00  0.93234578044E-11  0.17124000000E+03  0.17124000000E+03 0. -1.
       11    1    1    2    0    0 -0.31268198873E-01  0.42510927260E-01  0.74333496515E-01  0.91162542332E-01  0.51109989000E-03 0. -1.
     -623    1    1    2    0    0 -0.40788432587E-01  0.14196345694E-01  0.17702032480E-01  0.17124000636E+03  0.17124000000E+03 0. -1.
     -611    1    1    2    0    0  0.30023840312E-01 -0.77446145842E-02  0.13692115070E+01  0.13695626390E+01  0.51109989000E-03 0. -1.
      611    1    1    2    0    0  0.42032791148E-01 -0.48962658370E-01  0.40387529403E+01  0.40392684574E+01  0.51109989000E-03 0.  1.
</event>
<event>
 6   3  0.2312675E+03  0.9118800E+02  0.7818608E-02  0.1180000E+00
       11   -1    0    0    0    0  0.00000000000E+00  0.00000000000E+00  0.54999999763E+01  0.55000000000E+01  0.51109989000E-03 0. -1.
     -623   -1    0    0    0    0  0.00000000000E+00  0.00000000000E+00  0.93234578044E-11  0.17124000000E+03  0.17124000000E+03 0. -1.
       11    1    1    2    0    0 -0.13381494472E-01 -0.18193651729E-01  0.24851779159E+00  0.24954243590E+00  0.51109989000E-03 0. -1.
     -623    1    1    2    0    0  0.19168707176E-01  0.30485694713E-01  0.45351080703E-02  0.17124000385E+03  0.17124000000E+03 0. -1.
     -611    1    1    2    0    0 -0.70162973202E-01 -0.15419550823E-01  0.84888132186E+00  0.85191570310E+00  0.51109989000E-03 0.  1.
      611    1    1    2    0    0  0.64375760498E-01  0.31275078395E-02  0.43980657548E+01  0.43985380144E+01  0.51109989000E-03 0. -1.
</event>
<event>
 6   3  0.2312675E+03  0.9118800E+02  0.7818608E-02  0.1180000E+00
       11   -1    0    0    0    0  0.00000000000E+00  0.00000000000E+00  0.54999999763E+01  0.55000000000E+01  0.51109989000E-03 0. -1.
     -623   -1    0    0    0    0  0.00000000000E+00  0.00000000000E+00  0.93234578044E-11  0.17124000000E+03  0.17124000000E+03 0.  1.
       11    1    1    2    0    0  0.22944370560E+00 -0.35265244570E-02  0.96390088757E+00  0.99083905489E+00  0.51109989000E-03 0. -1.
     -623    1    1    2    0    0 -0.57682521472E-01  0.20869202687E-01  0.30584796894E-01  0.17124001372E+03  0.17124000000E+03 0.  1.
     -611    1    1    2    0    0 -0.65079768318E-01  0.47104622175E-02  0.11361062121E+01  0.11379785372E+01  0.51109989000E-03 0.  1.
      611    1    1    2    0    0 -0.10668141581E+00 -0.22053140448E-01  0.33694080797E+01  0.33711686897E+01  0.51109989000E-03 0. -1.
</event>
<event>
 6   3  0.2312675E+03  0.9118800E+02  0.7818608E-02  0.1180000E+00
       11   -1    0    0    0    0  0.00000000000E+00  0.00000000000E+00  0.54999999763E+01  0.55000000000E+01  0.51109989000E-03 0. -1.
     -623   -1    0    0    0    0  0.00000000000E+00  0.00000000000E+00  0.93234578044E-11  0.17124000000E+03  0.17124000000E+03 0.  1.
       11    1    1    2    0    0 -0.65245004244E-01  0.52626436789E-01  0.62725567459E+00  0.63283204324E+00  0.51109989000E-03 0. -1.
     -623    1    1    2    0    0 -0.12975974628E-01  0.28573058207E-02  0.65263542502E-02  0.17124000064E+03  0.17124000000E+03 0.  1.
     -611    1    1    2    0    0  0.68435213592E-01 -0.51003460836E-01  0.43137028255E+01  0.43145471442E+01  0.51109989000E-03 0. -1.
      611    1    1    2    0    0  0.97857652831E-02 -0.44802817762E-02  0.55251512209E+00  0.55262017290E+00  0.51109989000E-03 0.  1.
</event>
<event>
 6   3  0.2312675E+03  0.9118800E+02  0.7818608E-02  0.1180000E+00
       11   -1    0    0    0    0  0.00000000000E+00  0.00000000000E+00  0.54999999763E+01  0.55000000000E+01  0.51109989000E-03 0.  1.
     -623   -1    0    0    0    0  0.00000000000E+00  0.00000000000E+00  0.93234578044E-11  0.17124000000E+03  0.17124000000E+03 0. -1.
       11    1    1    2    0    0 -0.11645869891E-01 -0.21718533474E-04  0.85955339397E+00  0.85963243602E+00  0.51109989000E-03 0.  1.
     -623    1    1    2    0    0 -0.34121776499E-03  0.13035974170E-02  0.94662758164E-03  0.17124000001E+03  0.17124000000E+03 0. -1.
     -611    1    1    2    0    0 -0.30139883273E-01 -0.78734808799E-02  0.76658241554E+00  0.76721526660E+00  0.51109989000E-03 0. -1.
      611    1    1    2    0    0  0.42126970930E-01  0.65916019963E-02  0.38729175393E+01  0.38731522896E+01  0.51109989000E-03 0.  1.
</event>
<event>
 6   3  0.2312675E+03  0.9118800E+02  0.7818608E-02  0.1180000E+00
       11   -1    0    0    0    0  0.00000000000E+00  0.00000000000E+00  0.54999999763E+01  0.55000000000E+01  0.51109989000E-03 0. -1.
     -623   -1    0    0    0    0  0.00000000000E+00  0.00000000000E+00  0.93234578044E-11  0.17124000000E+03  0.17124000000E+03 0.  1.
       11    1    1    2    0    0  0.15188983630E-01  0.27784330425E-01  0.10706427103E+01  0.10711109880E+01  0.51109989000E-03 0. -1.
     -623    1    1    2    0    0 -0.81096268379E-01 -0.12541415761E+00  0.21003679693E-02  0.17124006514E+03  0.17124000000E+03 0.  1.
     -611    1    1    2    0    0  0.51378684808E-01  0.76199074287E-01  0.34448658879E+01  0.34460915999E+01  0.51109989000E-03 0. -1.
      611    1    1    2    0    0  0.14528599949E-01  0.21430752910E-01  0.98239101067E+00  0.98273227100E+00  0.51109989000E-03 0. -1.
</event>
<event>
 6   3  0.2312675E+03  0.9118800E+02  0.7818608E-02  0.1180000E+00
       11   -1    0    0    0    0  0.00000000000E+00  0.00000000000E+00  0.54999999763E+01  0.55000000000E+01  0.51109989000E-03 0. -1.
     -623   -1    0    0    0    0  0.00000000000E+00  0.00000000000E+00  0.93234578044E-11  0.17124000000E+03  0.17124000000E+03 0.  1.
       11    1    1    2    0    0  0.90292207417E-02  0.91759734339E-02  0.16253248997E+00  0.16304231609E+00  0.51109989000E-03 0. -1.
     -623    1    1    2    0    0 -0.10410229470E+00  0.17359045690E-01  0.14622911697E-02  0.17124003253E+03  0.17124000000E+03 0.  1.
     -611    1    1    2    0    0  0.79246727389E-01 -0.25364979849E-01  0.44664398217E+01  0.44672148334E+01  0.51109989000E-03 0. -1.
      611    1    1    2    0    0  0.15826346567E-01 -0.11700392757E-02  0.86956537363E+00  0.86971032101E+00  0.51109989000E-03 0.  1.
</event>
<event>
 6   3  0.2312675E+03  0.9118800E+02  0.7818608E-02  0.1180000E+00
       11   -1    0    0    0    0  0.00000000000E+00  0.00000000000E+00  0.54999999763E+01  0.55000000000E+01  0.51109989000E-03 0.  1.
     -623   -1    0    0    0    0  0.00000000000E+00  0.00000000000E+00  0.93234578044E-11  0.17124000000E+03  0.17124000000E+03 0.  1.
       11    1    1    2    0    0 -0.41450918840E-03  0.62119717092E-02  0.71466950162E-01  0.71739435452E-01  0.51109989000E-03 0.  1.
     -623    1    1    2    0    0 -0.37112726785E-02 -0.24612909130E-03  0.20889142915E-02  0.17124000005E+03  0.17124000000E+03 0.  1.
     -611    1    1    2    0    0 -0.49726896852E-01  0.30513339910E-01  0.13055379310E+01  0.13068409921E+01  0.51109989000E-03 0. -1.
      611    1    1    2    0    0  0.53852678719E-01 -0.36479182528E-01  0.41209061809E+01  0.41214195194E+01  0.51109989000E-03 0.  1.
</event>
<event>
 6   3  0.2312675E+03  0.9118800E+02  0.7818608E-02  0.1180000E+00
       11   -1    0    0    0    0  0.00000000000E+00  0.00000000000E+00  0.54999999763E+01  0.55000000000E+01  0.51109989000E-03 0.  1.
     -623   -1    0    0    0    0  0.00000000000E+00  0.00000000000E+00  0.93234578044E-11  0.17124000000E+03  0.17124000000E+03 0. -1.
       11    1    1    2    0    0 -0.39772458415E-02 -0.81218815498E-03  0.22133821987E-02  0.46517112913E-02  0.51109989000E-03 0.  1.
     -623    1    1    2    0    0  0.13728574264E-02  0.56702893429E-03  0.36009071628E-02  0.17124000004E+03  0.17124000000E+03 0. -1.
     -611    1    1    2    0    0  0.39696335194E-01 -0.41316053318E-01  0.28428518048E+01  0.28434291728E+01  0.51109989000E-03 0. -1.
      611    1    1    2    0    0 -0.37091946779E-01  0.41561212538E-01  0.26513338821E+01  0.26519190716E+01  0.51109989000E-03 0.  1.
</event>
<event>
 6   3  0.2312675E+03  0.9118800E+02  0.7818608E-02  0.1180000E+00
       11   -1    0    0    0    0  0.00000000000E+00  0.00000000000E+00  0.54999999763E+01  0.55000000000E+01  0.51109989000E-03 0.  1.
     -623   -1    0    0    0    0  0.00000000000E+00  0.00000000000E+00  0.93234578044E-11  0.17124000000E+03  0.17124000000E+03 0.  1.
       11    1    1    2    0    0  0.10957201481E-01  0.36830669435E-02  0.69869446963E+00  0.69879027494E+00  0.51109989000E-03 0.  1.
     -623    1    1    2    0    0  0.40614738226E-01 -0.98892291847E-02  0.38300522875E-03  0.17124000510E+03  0.17124000000E+03 0.  1.
     -611    1    1    2    0    0 -0.36193813315E-01  0.29319794098E-02  0.33391997069E+01  0.33393971810E+01  0.51109989000E-03 0.  1.
      611    1    1    2    0    0 -0.15378126390E-01  0.32741828318E-02  0.14617227945E+01  0.14618074415E+01  0.51109989000E-03 0.  1.
</event>
<event>
 6   3  0.2312675E+03  0.9118800E+02  0.7818608E-02  0.1180000E+00
       11   -1    0    0    0    0  0.00000000000E+00  0.00000000000E+00  0.54999999763E+01  0.55000000000E+01  0.51109989000E-03 0.  1.
     -623   -1    0    0    0    0  0.00000000000E+00  0.00000000000E+00  0.93234578044E-11  0.17124000000E+03  0.17124000000E+03 0.  1.
       11    1    1    2    0    0  0.72096782190E-02 -0.30408886809E-01  0.44522241414E+00  0.44631820390E+00  0.51109989000E-03 0.  1.
     -623    1    1    2    0    0 -0.22022732503E-01  0.22971882102E-01  0.22587276474E-02  0.17124000297E+03  0.17124000000E+03 0.  1.
     -611    1    1    2    0    0 -0.44821458990E-01  0.92105115996E-02  0.16393262440E+01  0.16399648143E+01  0.51109989000E-03 0. -1.
      611    1    1    2    0    0  0.59634513273E-01 -0.17735068923E-02  0.34131925905E+01  0.34137140099E+01  0.51109989000E-03 0.  1.
</event>
<event>
 6   3  0.2312675E+03  0.9118800E+02  0.7818608E-02  0.1180000E+00
       11   -1    0    0    0    0  0.00000000000E+00  0.00000000000E+00  0.54999999763E+01  0.55000000000E+01  0.51109989000E-03 0.  1.
     -623   -1    0    0    0    0  0.00000000000E+00  0.00000000000E+00  0.93234578044E-11  0.17124000000E+03  0.17124000000E+03 0. -1.
       11    1    1    2    0    0 -0.28747953487E-03 -0.60539228109E-02  0.29921482435E-02  0.67784068993E-02  0.51109989000E-03 0.  1.
     -623    1    1    2    0    0 -0.14896818771E+00 -0.17175514332E-01  0.59322328572E-02  0.17124006576E+03  0.17124000000E+03 0. -1.
     -611    1    1    2    0    0  0.13356762663E+00  0.19087523293E-01  0.49107341217E+01  0.49125873549E+01  0.51109989000E-03 0.  1.
      611    1    1    2    0    0  0.15688040607E-01  0.41419138492E-02  0.58034147323E+00  0.58056847730E+00  0.51109989000E-03 0. -1.
</event>
<event>
 6   3  0.2312675E+03  0.9118800E+02  0.7818608E-02  0.1180000E+00
       11   -1    0    0    0    0  0.00000000000E+00  0.00000000000E+00  0.54999999763E+01  0.55000000000E+01  0.51109989000E-03 0.  1.
     -623   -1    0    0    0    0  0.00000000000E+00  0.00000000000E+00  0.93234578044E-11  0.17124000000E+03  0.17124000000E+03 0.  1.
       11    1    1    2    0    0 -0.56442811707E-03  0.12087693971E-01  0.39716680141E+00  0.39735143172E+00  0.51109989000E-03 0.  1.
     -623    1    1    2    0    0 -0.30415860600E-03 -0.50047727162E-03  0.64420690252E-03  0.17124000000E+03  0.17124000000E+03 0.  1.
     -611    1    1    2    0    0  0.34106195280E-01 -0.36896976845E-02  0.25969913758E+01  0.25972179950E+01  0.51109989000E-03 0.  1.
      611    1    1    2    0    0 -0.33237608557E-01 -0.78975190144E-02  0.25051975924E+01  0.25054305713E+01  0.51109989000E-03 0. -1.
</event>
<event>
 6   3  0.2312675E+03  0.9118800E+02  0.7818608E-02  0.1180000E+00
       11   -1    0    0    0    0  0.00000000000E+00  0.00000000000E+00  0.54999999763E+01  0.55000000000E+01  0.51109989000E-03 0. -1.
     -623   -1    0    0    0    0  0.00000000000E+00  0.00000000000E+00  0.93234578044E-11  0.17124000000E+03  0.17124000000E+03 0. -1.
       11    1    1    2    0    0  0.72341635017E-02 -0.31830959760E-02  0.10503381736E+01  0.10503680333E+01  0.51109989000E-03 0. -1.
     -623    1    1    2    0    0  0.11365338538E-01 -0.10798583670E-01  0.44113199984E-03  0.17124000072E+03  0.17124000000E+03 0. -1.
     -611    1    1    2    0    0 -0.37637475137E-01  0.16629467714E-01  0.31280667397E+01  0.31283374032E+01  0.51109989000E-03 0. -1.
      611    1    1    2    0    0  0.19037973098E-01 -0.26477880685E-02  0.13211539306E+01  0.13212938450E+01  0.51109989000E-03 0.  1.
</event>
<event>
 6   3  0.2312675E+03  0.9118800E+02  0.7818608E-02  0.1180000E+00
       11   -1    0    0    0    0  0.00000000000E+00  0.00000000000E+00  0.54999999763E+01  0.55000000000E+01  0.51109989000E-03 0.  1.
     -623   -1    0    0    0    0  0.00000000000E+00  0.00000000000E+00  0.93234578044E-11  0.17124000000E+03  0.17124000000E+03 0.  1.
       11    1    1    2    0    0  0.21323749773E-02  0.56833660142E-02  0.21694504223E+00  0.21703055140E+00  0.51109989000E-03 0.  1.
     -623    1    1    2    0    0 -0.64764122772E-01 -0.10274435063E+00  0.13917678973E-02  0.17124004308E+03  0.17124000000E+03 0.  1.
     -611    1    1    2    0    0  0.48436551712E-01  0.75130054674E-01  0.40952407947E+01  0.40962163093E+01  0.51109989000E-03 0.  1.
      611    1    1    2    0    0  0.14195195964E-01  0.21930929752E-01  0.11864223613E+01  0.11867100530E+01  0.51109989000E-03 0.  1.
</event>
<event>
 6   3  0.2312675E+03  0.9118800E+02  0.7818608E-02  0.1180000E+00
       11   -1    0    0    0    0  0.00000000000E+00  0.00000000000E+00  0.54999999763E+01  0.55000000000E+01  0.51109989000E-03 0. -1.
     -623   -1    0    0    0    0  0.00000000000E+00  0.00000000000E+00  0.93234578044E-11  0.17124000000E+03  0.17124000000E+03 0.  1.
       11    1    1    2    0    0 -0.26455644713E-01 -0.35462404312E-02  0.70759899998E+00  0.70810245230E+00  0.51109989000E-03 0. -1.
     -623    1    1    2    0    0 -0.24138135814E-01  0.31785369652E-01  0.85855181224E-03  0.17124000465E+03  0.17124000000E+03 0.  1.
     -611    1    1    2    0    0  0.39098771334E-01 -0.21733646402E-01  0.37016376394E+01  0.37019079594E+01  0.51109989000E-03 0. -1.
      611    1    1    2    0    0  0.11495009299E-01 -0.65054828795E-02  0.10899047952E+01  0.10899849451E+01  0.51109989000E-03 0. -1.
</event>
<event>
 6   3  0.2312675E+03  0.9118800E+02  0.7818608E-02  0.1180000E+00
       11   -1    0    0    0    0  0.00000000000E+00  0.00000000000E+00  0.54999999763E+01  0.55000000000E+01  0.51109989000E-03 0.  1.
     -623   -1    0    0    0    0  0.00000000000E+00  0.00000000000E+00  0.93234578044E-11  0.17124000000E+03  0.17124000000E+03 0.  1.
       11    1    1    2    0    0 -0.41426811180E-01  0.28959941004E-01  0.24081861514E+00  0.24606650623E+00  0.51109989000E-03 0.  1.
     -623    1    1    2    0    0  0.86528554504E-02  0.23385881965E-01  0.62020680410E-02  0.17124000193E+03  0.17124000000E+03 0.  1.
     -611    1    1    2    0    0 -0.26107510831E-01 -0.13374917656E-01  0.14497678381E+01  0.14500646662E+01  0.51109989000E-03 0.  1.
      611    1    1    2    0    0  0.58881466561E-01 -0.38970905313E-01  0.38032114550E+01  0.38038668998E+01  0.51109989000E-03 0. -1.
</event>
<event>
 6   3  0.2312675E+03  0.9118800E+02  0.7818608E-02  0.1180000E+00
       11   -1    0    0    0    0  0.00000000000E+00  0.00000000000E+00  0.54999999763E+01  0.55000000000E+01  0.51109989000E-03 0. -1.
     -623   -1    0    0    0    0  0.00000000000E+00  0.00000000000E+00  0.93234578044E-11  0.17124000000E+03  0.17124000000E+03 0. -1.
       11    1    1    2    0    0  0.72211992371E-02 -0.11358489479E-01  0.61694284735E-01  0.63147501881E-01  0.51109989000E-03 0. -1.
     -623    1    1    2    0    0  0.32754895612E-02  0.24719917335E-02  0.18783464520E-02  0.17124000006E+03  0.17124000000E+03 0. -1.
     -611    1    1    2    0    0  0.28021287174E-01  0.81193407991E-02  0.25896244532E+01  0.25897888304E+01  0.51109989000E-03 0.  1.
      611    1    1    2    0    0 -0.38517975972E-01  0.76715694622E-03  0.28468028918E+01  0.28470636082E+01  0.51109989000E-03 0. -1.
</event>
<event>
 6   3  0.2312675E+03  0.9118800E+02  0.7818608E-02  0.1180000E+00
       11   -1    0    0    0    0  0.00000000000E+00  0.00000000000E+00  0.54999999763E+01  0.55000000000E+01  0.51109989000E-03 0. -1.
     -623   -1    0    0    0    0  0.00000000000E+00  0.00000000000E+00  0.93234578044E-11  0.17124000000E+03  0.17124000000E+03 0.  1.
       11    1    1    2    0    0  0.75140780635E-01  0.32989576777E-02  0.96594398400E+00  0.96886792778E+00  0.51109989000E-03 0. -1.
     -623    1    1    2    0    0  0.36958738357E-03 -0.32890634928E-02  0.35543668792E-02  0.17124000007E+03  0.17124000000E+03 0.  1.
     -611    1    1    2    0    0 -0.20040559906E-01 -0.52787675942E-05  0.11244723106E+01  0.11246509959E+01  0.51109989000E-03 0. -1.
      611    1    1    2    0    0 -0.55469808108E-01 -0.46154172849E-05  0.34060293145E+01  0.34064810072E+01  0.51109989000E-03 0. -1.
</event>
<event>
 6   3  0.2312675E+03  0.9118800E+02  0.7818608E-02  0.1180000E+00
       11   -1    0    0    0    0  0.00000000000E+00  0.00000000000E+00  0.54999999763E+01  0.55000000000E+01  0.51109989000E-03 0. -1.
     -623   -1    0    0    0    0  0.00000000000E+00  0.00000000000E+00  0.93234578044E-11  0.17124000000E+03  0.17124000000E+03 0. -1.
       11    1    1    2    0    0  0.17946884082E-02  0.70018409779E-02  0.32263905342E+00  0.32272041568E+00  0.51109989000E-03 0. -1.
     -623    1    1    2    0    0 -0.58174978463E-01 -0.11377755328E+00  0.15400744819E-02  0.17124004769E+03  0.17124000000E+03 0. -1.
     -611    1    1    2    0    0  0.43435472470E-01  0.79491642196E-01  0.39598930964E+01  0.39609290776E+01  0.51109989000E-03 0. -1.
      611    1    1    2    0    0  0.12944817772E-01  0.27284070472E-01  0.12159277696E+01  0.12163028369E+01  0.51109989000E-03 0.  1.
</event>
<event>
 6   3  0.2312675E+03  0.9118800E+02  0.7818608E-02  0.1180000E+00
       11   -1    0    0    0    0  0.00000000000E+00  0.00000000000E+00  0.54999999763E+01  0.55000000000E+01  0.51109989000E-03 0. -1.
     -623   -1    0    0    0    0  0.00000000000E+00  0.00000000000E+00  0.93234578044E-11  0.17124000000E+03  0.17124000000E+03 0. -1.
       11    1    1    2    0    0 -0.61399902397E-01 -0.14646727124E-01  0.34329315365E+00  0.34904860005E+00  0.51109989000E-03 0. -1.
     -623    1    1    2    0    0 -0.80854855504E-02 -0.67736932739E-02  0.62698676105E-02  0.17124000044E+03  0.17124000000E+03 0. -1.
     -611    1    1    2    0    0  0.39816196161E-01  0.12675231532E-01  0.30465324053E+01  0.30468189886E+01  0.51109989000E-03 0. -1.
      611    1    1    2    0    0  0.29669191777E-01  0.87451888632E-02  0.21039045490E+01  0.21041319711E+01  0.51109989000E-03 0. -1.
</event>
<event>
 6   3  0.2312675E+03  0.9118800E+02  0.7818608E-02  0.1180000E+00
       11   -1    0    0    0    0  0.00000000000E+00  0.00000000000E+00  0.54999999763E+01  0.55000000000E+01  0.51109989000E-03 0. -1.
     -623   -1    0    0    0    0  0.00000000000E+00  0.00000000000E+00  0.93234578044E-11  0.17124000000E+03  0.17124000000E+03 0. -1.
       11    1    1    2    0    0  0.22685803181E-01 -0.13350287034E-01  0.19835731572E+00  0.20009688092E+00  0.51109989000E-03 0. -1.
     -623    1    1    2    0    0  0.59060983716E-02  0.17145169059E-02  0.34734662025E-02  0.17124000015E+03  0.17124000000E+03 0. -1.
     -611    1    1    2    0    0 -0.57010848151E-01  0.57019274763E-01  0.35413315394E+01  0.35422493938E+01  0.51109989000E-03 0. -1.
      611    1    1    2    0    0  0.28418946598E-01 -0.45383504635E-01  0.17568376550E+01  0.17576535797E+01  0.51109989000E-03 0.  1.
</event>
<event>
 6   3  0.2312675E+03  0.9118800E+02  0.7818608E-02  0.1180000E+00
       11   -1    0    0    0    0  0.00000000000E+00  0.00000000000E+00  0.54999999763E+01  0.55000000000E+01  0.51109989000E-03 0.  1.
     -623   -1    0    0    0    0  0.00000000000E+00  0.00000000000E+00  0.93234578044E-11  0.17124000000E+03  0.17124000000E+03 0. -1.
       11    1    1    2    0    0  0.85856789736E-02 -0.36300468174E-01  0.29963375953E+00  0.30194716251E+00  0.51109989000E-03 0.  1.
     -623    1    1    2    0    0 -0.35105923227E-01 -0.39757083603E-01  0.48659548285E-02  0.17124000828E+03  0.17124000000E+03 0. -1.
     -611    1    1    2    0    0 -0.53092300747E-01  0.56044055110E-01  0.30438506959E+01  0.30448295599E+01  0.51109989000E-03 0. -1.
      611    1    1    2    0    0  0.79612545000E-01  0.20013496668E-01  0.21516495660E+01  0.21532149947E+01  0.51109989000E-03 0.  1.
</event>
<event>
 6   3  0.2312675E+03  0.9118800E+02  0.7818608E-02  0.1180000E+00
       11   -1    0    0    0    0  0.00000000000E+00  0.00000000000E+00  0.54999999763E+01  0.55000000000E+01  0.51109989000E-03 0. -1.
     -623   -1    0    0    0    0  0.00000000000E+00  0.00000000000E+00  0.93234578044E-11  0.17124000000E+03  0.17124000000E+03 0. -1.
       11    1    1    2    0    0 -0.27841804223E-02  0.48250690044E-03 -0.48202735891E-03  0.29117086058E-02  0.51109989000E-03 0. -1.
     -623    1    1    2    0    0  0.35907902290E-02 -0.17725478312E-02  0.47295174893E-02  0.17124000011E+03  0.17124000000E+03 0. -1.
     -611    1    1    2    0    0 -0.36274012593E-01  0.48774082846E-01  0.31543155507E+01  0.31549011980E+01  0.51109989000E-03 0.  1.
      611    1    1    2    0    0  0.35467402786E-01 -0.47484041915E-01  0.23414369355E+01  0.23421869812E+01  0.51109989000E-03 0. -1.
</event>
<event>
 6   3  0.2312675E+03  0.9118800E+02  0.7818608E-02  0.1180000E+00
       11   -1    0    0    0    0  0.00000000000E+00  0.00000000000E+00  0.54999999763E+01  0.55000000000E+01  0.51109989000E-03 0.  1.
     -623   -1    0    0    0    0  0.00000000000E+00  0.00000000000E+00  0.93234578044E-11  0.17124000000E+03  0.17124000000E+03 0. -1.
       11    1    1    2    0    0 -0.84504900977E-02  0.26899813340E-01  0.39144343882E-01  0.48244705633E-01  0.51109989000E-03 0.  1.
     -623    1    1    2    0    0 -0.31898513259E-02 -0.37593835622E-01  0.10701429828E-01  0.17124000449E+03  0.17124000000E+03 0. -1.
     -611    1    1    2    0    0  0.71438565210E-01  0.66488471820E-02  0.28030289372E+01  0.28039470679E+01  0.51109989000E-03 0. -1.
      611    1    1    2    0    0 -0.59798223787E-01  0.40451751004E-02  0.26471252654E+01  0.26478037357E+01  0.51109989000E-03 0.  1.
</event>
<event>
 6   3  0.2312675E+03  0.9118800E+02  0.7818608E-02  0.1180000E+00
       11   -1    0    0    0    0  0.00000000000E+00  0.00000000000E+00  0.54999999763E+01  0.55000000000E+01  0.51109989000E-03 0.  1.
     -623   -1    0    0    0    0  0.00000000000E+00  0.00000000000E+00  0.93234578044E-11  0.17124000000E+03  0.17124000000E+03 0.  1.
       11    1    1    2    0    0  0.30214401874E-01 -0.95000906464E-02  0.31059781237E+00  0.31220894298E+00  0.51109989000E-03 0.  1.
     -623    1    1    2    0    0  0.34810551923E-01  0.11410850631E-01  0.20261951252E-02  0.17124000393E+03  0.17124000000E+03 0.  1.
     -611    1    1    2    0    0 -0.47507947604E-01  0.94752577419E-03  0.38528535008E+01  0.38531465405E+01  0.51109989000E-03 0.  1.
      611    1    1    2    0    0 -0.17517006195E-01 -0.28582857589E-02  0.13345224682E+01  0.13346405863E+01  0.51109989000E-03 0. -1.
</event>
<event>
 6   3  0.2312675E+03  0.9118800E+02  0.7818608E-02  0.1180000E+00
       11   -1    0    0    0    0  0.00000000000E+00  0.00000000000E+00  0.54999999763E+01  0.55000000000E+01  0.51109989000E-03 0. -1.
     -623   -1    0    0    0    0  0.00000000000E+00  0.00000000000E+00  0.93234578044E-11  0.17124000000E+03  0.17124000000E+03 0. -1.
       11    1    1    2    0    0 -0.26246117576E-02 -0.28327590526E-02  0.58401564179E+00  0.58402863302E+00  0.51109989000E-03 0. -1.
     -623    1    1    2    0    0  0.55933455123E-01  0.23341749101E-01  0.35628242999E-03  0.17124001073E+03  0.17124000000E+03 0. -1.
     -611    1    1    2    0    0 -0.52579670146E-02 -0.27040990810E-02  0.52323947130E+00  0.52327312555E+00  0.51109989000E-03 0. -1.
      611    1    1    2    0    0 -0.48050876448E-01 -0.17804891008E-01  0.43923885903E+01  0.43926875248E+01  0.51109989000E-03 0. -1.
</event>
<event>
 6   3  0.2312675E+03  0.9118800E+02  0.7818608E-02  0.1180000E+00
       11   -1    0    0    0    0  0.00000000000E+00  0.00000000000E+00  0.54999999763E+01  0.55000000000E+01  0.51109989000E-03 0. -1.
     -623   -1    0    0    0    0  0.00000000000E+00  0.00000000000E+00  0.93234578044E-11  0.17124000000E+03  0.17124000000E+03 0. -1.
       11    1    1    2    0    0  0.84709467483E-02 -0.16169963850E-01  0.85159941371E+00  0.85179519095E+00  0.51109989000E-03 0. -1.
     -623    1    1    2    0    0 -0.12338387649E-02  0.15698317014E-02  0.12106358116E-02  0.17124000002E+03  0.17124000000E+03 0. -1.
     -611    1    1    2    0    0  0.34812013935E-01 -0.12275651345E-01  0.30781554710E+01  0.30783768341E+01  0.51109989000E-03 0. -1.
      611    1    1    2    0    0 -0.42049121919E-01  0.26875783494E-01  0.15690344558E+01  0.15698279591E+01  0.51109989000E-03 0.  1.
</event>
<event>
 6   3  0.2312675E+03  0.9118800E+02  0.7818608E-02  0.1180000E+00
       11   -1    0    0    0    0  0.00000000000E+00  0.00000000000E+00  0.54999999763E+01  0.55000000000E+01  0.51109989000E-03 0. -1.
     -623   -1    0    0    0    0  0.00000000000E+00  0.00000000000E+00  0.93234578044E-11  0.17124000000E+03  0.17124000000E+03 0. -1.
       11    1    1    2    0    0  0.56077382335E-01 -0.27515529597E-01  0.51742443721E+00  0.52118143350E+00  0.51109989000E-03 0. -1.
     -623    1    1    2    0    0  0.47738356991E-02 -0.71657090206E-01  0.51373927668E-02  0.17124001514E+03  0.17124000000E+03 0. -1.
     -611    1    1    2    0    0 -0.38413179898E-01  0.59069579427E-01  0.31424746675E+01  0.31432645585E+01  0.51109989000E-03 0. -1.
      611    1    1    2    0    0 -0.22438038139E-01  0.40103040380E-01  0.18349634790E+01  0.18355388718E+01  0.51109989000E-03 0. -1.
</event>
<event>
 6   3  0.2312675E+03  0.9118800E+02  0.7818608E-02  0.1180000E+00
       11   -1    0    0    0    0  0.00000000000E+00  0.00000000000E+00  0.54999999763E+01  0.55000000000E+01  0.51109989000E-03 0. -1.
     -623   -1    0    0    0    0  0.00000000000E+00  0.00000000000E+00  0.93234578044E-11  0.17124000000E+03  0.17124000000E+03 0. -1.
       11    1    1    2    0    0  0.11902953890E+00  0.29591107471E-01  0.67464528927E+00  0.68570415802E+00  0.51109989000E-03 0. -1.
     -623    1    1    2    0    0 -0.66879122936E-01 -0.37102496300E-01  0.11364798103E-01  0.17124001746E+03  0.17124000000E+03 0. -1.
     -611    1    1    2    0    0 -0.29716084520E-01  0.45404810768E-02  0.27709017252E+01  0.27710648303E+01  0.51109989000E-03 0. -1.
      611    1    1    2    0    0 -0.22434331509E-01  0.29709077619E-02  0.20430881698E+01  0.20432135612E+01  0.51109989000E-03 0. -1.
</event>
<event>
 6   3  0.2312675E+03  0.9118800E+02  0.7818608E-02  0.1180000E+00
       11   -1    0    0    0    0  0.00000000000E+00  0.00000000000E+00  0.54999999763E+01  0.55000000000E+01  0.51109989000E-03 0.  1.
     -623   -1    0    0    0    0  0.00000000000E+00  0.00000000000E+00  0.93234578044E-11  0.17124000000E+03  0.17124000000E+03 0.  1.
       11    1    1    2    0    0  0.15573220992E-01 -0.28718145057E-01  0.79770047908E+00  0.79836932094E+00  0.51109989000E-03 0.  1.
     -623    1    1    2    0    0 -0.10006368778E+00 -0.35227296425E-01  0.29093159958E-02  0.17124003288E+03  0.17124000000E+03 0.  1.
     -611    1    1    2    0    0  0.39449141917E-01 -0.22672459668E-01  0.12565731273E+01  0.12573967396E+01  0.51109989000E-03 0. -1.
      611    1    1    2    0    0  0.45041324868E-01  0.86617901149E-01  0.34428170538E+01  0.34442010552E+01  0.51109989000E-03 0.  1.
</event>
<event>
 6   3  0.2312675E+03  0.9118800E+02  0.7818608E-02  0.1180000E+00
       11   -1    0    0    0    0  0.00000000000E+00  0.00000000000E+00  0.54999999763E+01  0.55000000000E+01  0.51109989000E-03 0. -1.
     -623   -1    0    0    0    0  0.00000000000E+00  0.00000000000E+00  0.93234578044E-11  0.17124000000E+03  0.17124000000E+03 0. -1.
       11    1    1    2    0    0 -0.73467292116E-01  0.26302073930E-01  0.57061672682E+00  0.57592790543E+00  0.51109989000E-03 0. -1.
     -623    1    1    2    0    0  0.19784182441E-01 -0.76488338882E-02  0.56413191332E-02  0.17124000141E+03  0.17124000000E+03 0. -1.
     -611    1    1    2    0    0  0.44222455162E-01 -0.15311589025E-01  0.41309761540E+01  0.41312412561E+01  0.51109989000E-03 0. -1.
      611    1    1    2    0    0  0.94606545047E-02 -0.33416510141E-02  0.79276577560E+00  0.79282943109E+00  0.51109989000E-03 0.  1.
</event>
<event>
 6   3  0.2312675E+03  0.9118800E+02  0.7818608E-02  0.1180000E+00
       11   -1    0    0    0    0  0.00000000000E+00  0.00000000000E+00  0.54999999763E+01  0.55000000000E+01  0.51109989000E-03 0. -1.
     -623   -1    0    0    0    0  0.00000000000E+00  0.00000000000E+00  0.93234578044E-11  0.17124000000E+03  0.17124000000E+03 0.  1.
       11    1    1    2    0    0  0.16837723422E-02 -0.14703345723E-02  0.87239469434E-02  0.90202797309E-02  0.51109989000E-03 0. -1.
     -623    1    1    2    0    0  0.29466539961E-02  0.77843557506E-02  0.21680682819E-02  0.17124000022E+03  0.17124000000E+03 0.  1.
     -611    1    1    2    0    0 -0.68938833326E-01 -0.28576448403E-01  0.31343444473E+01  0.31352327747E+01  0.51109989000E-03 0. -1.
      611    1    1    2    0    0  0.64308406988E-01  0.22262427224E-01  0.23547635138E+01  0.23557467296E+01  0.51109989000E-03 0.  1.
</event>
<event>
 6   3  0.2312675E+03  0.9118800E+02  0.7818608E-02  0.1180000E+00
       11   -1    0    0    0    0  0.00000000000E+00  0.00000000000E+00  0.54999999763E+01  0.55000000000E+01  0.51109989000E-03 0.  1.
     -623   -1    0    0    0    0  0.00000000000E+00  0.00000000000E+00  0.93234578044E-11  0.17124000000E+03  0.17124000000E+03 0. -1.
       11    1    1    2    0    0  0.48445593397E-02  0.38469854240E-02  0.32373796270E-01  0.32963509523E-01  0.51109989000E-03 0.  1.
     -623    1    1    2    0    0 -0.11899958703E-01 -0.21989858194E-02  0.20713983679E-02  0.17124000044E+03  0.17124000000E+03 0. -1.
     -611    1    1    2    0    0 -0.44629581253E-01 -0.20942903681E-01  0.41883985001E+01  0.41886886566E+01  0.51109989000E-03 0. -1.
      611    1    1    2    0    0  0.51684980616E-01  0.19294904077E-01  0.12771562815E+01  0.12783473937E+01  0.51109989000E-03 0.  1.
</event>
<event>
 6   3  0.2312675E+03  0.9118800E+02  0.7818608E-02  0.1180000E+00
       11   -1    0    0    0    0  0.00000000000E+00  0.00000000000E+00  0.54999999763E+01  0.55000000000E+01  0.51109989000E-03 0.  1.
     -623   -1    0    0    0    0  0.00000000000E+00  0.00000000000E+00  0.93234578044E-11  0.17124000000E+03  0.17124000000E+03 0. -1.
       11    1    1    2    0    0 -0.18066196645E-01 -0.18297155646E-01  0.25941265121E+00  0.26068440344E+00  0.51109989000E-03 0.  1.
     -623    1    1    2    0    0 -0.56429607542E-01 -0.41897825701E-01  0.24381350708E-02  0.17124001444E+03  0.17124000000E+03 0. -1.
     -611    1    1    2    0    0  0.28676933006E-01  0.73840327390E-02  0.27801117829E+01  0.27802695331E+01  0.51109989000E-03 0.  1.
      611    1    1    2    0    0  0.45818871181E-01  0.52810948608E-01  0.24580374071E+01  0.24590316226E+01  0.51109989000E-03 0. -1.
</event>
<event>
 6   3  0.2312675E+03  0.9118800E+02  0.7818608E-02  0.1180000E+00
       11   -1    0    0    0    0  0.00000000000E+00  0.00000000000E+00  0.54999999763E+01  0.55000000000E+01  0.51109989000E-03 0.  1.
     -623   -1    0    0    0    0  0.00000000000E+00  0.00000000000E+00  0.93234578044E-11  0.17124000000E+03  0.17124000000E+03 0.  1.
       11    1    1    2    0    0 -0.29445588172E-01  0.36144442441E-02  0.17214464968E+00  0.17468299433E+00  0.51109989000E-03 0.  1.
     -623    1    1    2    0    0  0.11334974539E-02 -0.62975867969E-02  0.90235044987E-02  0.17124000036E+03  0.17124000000E+03 0.  1.
     -611    1    1    2    0    0  0.13071457804E+00  0.32214416170E-01  0.18706327131E+01  0.18754708950E+01  0.51109989000E-03 0. -1.
      611    1    1    2    0    0 -0.10240248732E+00 -0.29531273617E-01  0.34481991090E+01  0.34498457534E+01  0.51109989000E-03 0.  1.
</event>
<event>
 6   3  0.2312675E+03  0.9118800E+02  0.7818608E-02  0.1180000E+00
       11   -1    0    0    0    0  0.00000000000E+00  0.00000000000E+00  0.54999999763E+01  0.55000000000E+01  0.51109989000E-03 0. -1.
     -623   -1    0    0    0    0  0.00000000000E+00  0.00000000000E+00  0.93234578044E-11  0.17124000000E+03  0.17124000000E+03 0. -1.
       11    1    1    2    0    0 -0.33157818091E-01 -0.15933784321E-02  0.79138331659E+00  0.79207941190E+00  0.51109989000E-03 0. -1.
     -623    1    1    2    0    0 -0.68007577795E-05 -0.19760929094E-02  0.12194944229E-02  0.17124000002E+03  0.17124000000E+03 0. -1.
     -611    1    1    2    0    0 -0.15307229168E-01 -0.11810433103E-01  0.13181804516E+01  0.13183223285E+01  0.51109989000E-03 0.  1.
      611    1    1    2    0    0  0.48471848017E-01  0.15379904444E-01  0.33892167137E+01  0.33895982440E+01  0.51109989000E-03 0. -1.
</event>
<event>
 6   3  0.2312675E+03  0.9118800E+02  0.7818608E-02  0.1180000E+00
       11   -1    0    0    0    0  0.00000000000E+00  0.00000000000E+00  0.54999999763E+01  0.55000000000E+01  0.51109989000E-03 0.  1.
     -623   -1    0    0    0    0  0.00000000000E+00  0.00000000000E+00  0.93234578044E-11  0.17124000000E+03  0.17124000000E+03 0.  1.
       11    1    1    2    0    0 -0.15294167348E-01  0.20501687102E-01  0.11749492202E+00  0.12024786341E+00  0.51109989000E-03 0.  1.
     -623    1    1    2    0    0  0.66669057993E-01 -0.13255806065E-01  0.62584811406E-02  0.17124001361E+03  0.17124000000E+03 0.  1.
     -611    1    1    2    0    0  0.39648370592E-01  0.40892410502E-01  0.68565552554E+00  0.68801740054E+00  0.51109989000E-03 0. -1.
      611    1    1    2    0    0 -0.91023261236E-01 -0.48138291539E-01  0.46905910476E+01  0.46917211304E+01  0.51109989000E-03 0.  1.
</event>
<event>
 6   3  0.2312675E+03  0.9118800E+02  0.7818608E-02  0.1180000E+00
       11   -1    0    0    0    0  0.00000000000E+00  0.00000000000E+00  0.54999999763E+01  0.55000000000E+01  0.51109989000E-03 0.  1.
     -623   -1    0    0    0    0  0.00000000000E+00  0.00000000000E+00  0.93234578044E-11  0.17124000000E+03  0.17124000000E+03 0. -1.
       11    1    1    2    0    0 -0.14679722497E-01 -0.17356842584E-01  0.37930063581E+00  0.37998156243E+00  0.51109989000E-03 0.  1.
     -623    1    1    2    0    0  0.57116180157E-02 -0.20871485479E-02  0.14287039549E-02  0.17124000011E+03  0.17124000000E+03 0. -1.
     -611    1    1    2    0    0 -0.36574919137E-01  0.18984145130E-02  0.16646990921E+01  0.16651019960E+01  0.51109989000E-03 0. -1.
      611    1    1    2    0    0  0.45543023618E-01  0.17545576619E-01  0.34545715445E+01  0.34549163277E+01  0.51109989000E-03 0.  1.
</event>
<event>
 6   3  0.2312675E+03  0.9118800E+02  0.7818608E-02  0.1180000E+00
       11   -1    0    0    0    0  0.00000000000E+00  0.00000000000E+00  0.54999999763E+01  0.55000000000E+01  0.51109989000E-03 0.  1.
     -623   -1    0    0    0    0  0.00000000000E+00  0.00000000000E+00  0.93234578044E-11  0.17124000000E+03  0.17124000000E+03 0.  1.
       11    1    1    2    0    0  0.11050323037E+00 -0.92967941622E-01  0.68865429034E+00  0.70363271309E+00  0.51109989000E-03 0.  1.
     -623    1    1    2    0    0 -0.26163260156E-01 -0.67174577138E-02  0.16759621967E-01  0.17124000295E+03  0.17124000000E+03 0.  1.
     -611    1    1    2    0    0 -0.58174528965E-01  0.68929320476E-01  0.33439846906E+01  0.33452009505E+01  0.51109989000E-03 0.  1.
      611    1    1    2    0    0 -0.26165441275E-01  0.30756078891E-01  0.14506013748E+01  0.14511633873E+01  0.51109989000E-03 0. -1.
</event>
<event>
 6   3  0.2312675E+03  0.9118800E+02  0.7818608E-02  0.1180000E+00
       11   -1    0    0    0    0  0.00000000000E+00  0.00000000000E+00  0.54999999763E+01  0.55000000000E+01  0.51109989000E-03 0.  1.
     -623   -1    0    0    0    0  0.00000000000E+00  0.00000000000E+00  0.93234578044E-11  0.17124000000E+03  0.17124000000E+03 0.  1.
       11    1    1    2    0    0  0.45165290250E-01  0.24241020510E-01  0.17848309524E+00  0.18569869959E+00  0.51109989000E-03 0.  1.
     -623    1    1    2    0    0  0.13586411034E-01  0.93934423640E-02  0.76487675752E-02  0.17124000097E+03  0.17124000000E+03 0.  1.
     -611    1    1    2    0    0 -0.40605655512E-01 -0.21746040119E-01  0.36592375162E+01  0.36595274518E+01  0.51109989000E-03 0.  1.
      611    1    1    2    0    0 -0.18146045760E-01 -0.11888422748E-01  0.16546305962E+01  0.16547728801E+01  0.51109989000E-03 0. -1.
</event>
<event>
 6   3  0.2312675E+03  0.9118800E+02  0.7818608E-02  0.1180000E+00
       11   -1    0    0    0    0  0.00000000000E+00  0.00000000000E+00  0.54999999763E+01  0.55000000000E+01  0.51109989000E-03 0.  1.
     -623   -1    0    0    0    0  0.00000000000E+00  0.00000000000E+00  0.93234578044E-11  0.17124000000E+03  0.17124000000E+03 0. -1.
       11    1    1    2    0    0 -0.15259716103E-02  0.87400781896E-02  0.10003494232E+01  0.10003888980E+01  0.51109989000E-03 0.  1.
     -623    1    1    2    0    0  0.50503570632E-01  0.15342267506E-02  0.32565388805E-03  0.17124000745E+03  0.17124000000E+03 0. -1.
     -611    1    1    2    0    0 -0.36789132882E-01 -0.83942000653E-02  0.33691476353E+01  0.33693589825E+01  0.51109989000E-03 0.  1.
      611    1    1    2    0    0 -0.12188466140E-01 -0.18801048736E-02  0.11301772640E+01  0.11302446650E+01  0.51109989000E-03 0.  1.
</event>
<event>
 6   3  0.2312675E+03  0.9118800E+02  0.7818608E-02  0.1180000E+00
       11   -1    0    0    0    0  0.00000000000E+00  0.00000000000E+00  0.54999999763E+01  0.55000000000E+01  0.51109989000E-03 0.  1.
     -623   -1    0    0    0    0  0.00000000000E+00  0.00000000000E+00  0.93234578044E-11  0.17124000000E+03  0.17124000000E+03 0.  1.
       11    1    1    2    0    0  0.35395915555E-02  0.83280886146E-02  0.19399063825E-01  0.21411928188E-01  0.51109989000E-03 0.  1.
     -623    1    1    2    0    0 -0.41151820288E-02 -0.31131683830E-02  0.31935599983E-02  0.17124000011E+03  0.17124000000E+03 0.  1.
     -611    1    1    2    0    0  0.40416665567E-01  0.35817103686E-01  0.32380794027E+01  0.32385297360E+01  0.51109989000E-03 0.  1.
      611    1    1    2    0    0 -0.39841075094E-01 -0.41032023918E-01  0.22393279497E+01  0.22400582282E+01  0.51109989000E-03 0. -1.
</event>
<event>
 6   3  0.2312675E+03  0.9118800E+02  0.7818608E-02  0.1180000E+00
       11   -1    0    0    0    0  0.00000000000E+00  0.00000000000E+00  0.54999999763E+01  0.55000000000E+01  0.51109989000E-03 0. -1.
     -623   -1    0    0    0    0  0.00000000000E+00  0.00000000000E+00  0.93234578044E-11  0.17124000000E+03  0.17124000000E+03 0. -1.
       11    1    1    2    0    0 -0.51869409560E-03  0.32996746990E-03  0.63997852721E-03  0.10240691914E-02  0.51109989000E-03 0. -1.
     -623    1    1    2    0    0  0.36050085475E-02  0.10864246910E-02  0.11137539562E-02  0.17124000005E+03  0.17124000000E+03 0. -1.
     -611    1    1    2    0    0  0.37513325847E-01  0.20764066035E-01  0.23764326492E+01  0.23768194701E+01  0.51109989000E-03 0.  1.
      611    1    1    2    0    0 -0.40599640299E-01 -0.22180458196E-01  0.31218135946E+01  0.31221564158E+01  0.51109989000E-03 0. -1.
</event>
<event>
 6   3  0.2312675E+03  0.9118800E+02  0.7818608E-02  0.1180000E+00
       11   -1    0    0    0    0  0.00000000000E+00  0.00000000000E+00  0.54999999763E+01  0.55000000000E+01  0.51109989000E-03 0.  1.
     -623   -1    0    0    0    0  0.00000000000E+00  0.00000000000E+00  0.93234578044E-11  0.17124000000E+03  0.17124000000E+03 0. -1.
       11    1    1    2    0    0 -0.14587187877E-01  0.17650315006E-01  0.26318484815E-01  0.34889017412E-01  0.51109989000E-03 0.  1.
     -623    1    1    2    0    0  0.45745752009E-02 -0.76818789054E-02  0.93897352788E-02  0.17124000049E+03  0.17124000000E+03 0. -1.
     -611    1    1    2    0    0  0.45904091861E-01 -0.27339545135E-01  0.26737624530E+01  0.26742962724E+01  0.51109989000E-03 0.  1.
      611    1    1    2    0    0 -0.35891479185E-01  0.17371109034E-01  0.27905293032E+01  0.27908142193E+01  0.51109989000E-03 0. -1.
</event>
<event>
 6   3  0.2312675E+03  0.9118800E+02  0.7818608E-02  0.1180000E+00
       11   -1    0    0    0    0  0.00000000000E+00  0.00000000000E+00  0.54999999763E+01  0.55000000000E+01  0.51109989000E-03 0. -1.
     -623   -1    0    0    0    0  0.00000000000E+00  0.00000000000E+00  0.93234578044E-11  0.17124000000E+03  0.17124000000E+03 0.  1.
       11    1    1    2    0    0  0.18291465781E-03 -0.23314905890E-01  0.72807896126E+00  0.72845236862E+00  0.51109989000E-03 0. -1.
     -623    1    1    2    0    0 -0.17423546821E-02  0.12786377147E-02  0.11496205317E-02  0.17124000002E+03  0.17124000000E+03 0.  1.
     -611    1    1    2    0    0  0.34866968549E-01  0.35409484440E-01  0.30118166297E+01  0.30122266198E+01  0.51109989000E-03 0. -1.
      611    1    1    2    0    0 -0.33307528525E-01 -0.13373216264E-01  0.17589547648E+01  0.17593209941E+01  0.51109989000E-03 0.  1.
</event>
<event>
 6   3  0.2312675E+03  0.9118800E+02  0.7818608E-02  0.1180000E+00
       11   -1    0    0    0    0  0.00000000000E+00  0.00000000000E+00  0.54999999763E+01  0.55000000000E+01  0.51109989000E-03 0.  1.
     -623   -1    0    0    0    0  0.00000000000E+00  0.00000000000E+00  0.93234578044E-11  0.17124000000E+03  0.17124000000E+03 0. -1.
       11    1    1    2    0    0 -0.24755240905E-02  0.15529468359E-01  0.10652070868E+01  0.10653232803E+01  0.51109989000E-03 0.  1.
     -623    1    1    2    0    0 -0.56156034287E-01 -0.42478120973E-01  0.60298918828E-03  0.17124001448E+03  0.17124000000E+03 0. -1.
     -611    1    1    2    0    0  0.11059651293E-01  0.68755043249E-02  0.96910464570E+00  0.96919227401E+00  0.51109989000E-03 0. -1.
      611    1    1    2    0    0  0.47571907083E-01  0.20073148288E-01  0.34650852545E+01  0.34654699681E+01  0.51109989000E-03 0.  1.
</event>
<event>
 6   3  0.2312675E+03  0.9118800E+02  0.7818608E-02  0.1180000E+00
       11   -1    0    0    0    0  0.00000000000E+00  0.00000000000E+00  0.54999999763E+01  0.55000000000E+01  0.51109989000E-03 0. -1.
     -623   -1    0    0    0    0  0.00000000000E+00  0.00000000000E+00  0.93234578044E-11  0.17124000000E+03  0.17124000000E+03 0.  1.
       11    1    1    2    0    0  0.18792130458E-01  0.15017488305E-01  0.21006995398E+00  0.21144341065E+00  0.51109989000E-03 0. -1.
     -623    1    1    2    0    0  0.40523860871E-01 -0.45708984515E-01  0.18087182512E-02  0.17124001091E+03  0.17124000000E+03 0.  1.
     -611    1    1    2    0    0 -0.51273509521E-01  0.25145931543E-01  0.46132420783E+01  0.46135955637E+01  0.51109989000E-03 0. -1.
      611    1    1    2    0    0 -0.80424818052E-02  0.55455646655E-02  0.67487922548E+00  0.67495012038E+00  0.51109989000E-03 0.  1.
</event>
<event>
 6   3  0.2312675E+03  0.9118800E+02  0.7818608E-02  0.1180000E+00
       11   -1    0    0    0    0  0.00000000000E+00  0.00000000000E+00  0.54999999763E+01  0.55000000000E+01  0.51109989000E-03 0. -1.
     -623   -1    0    0    0    0  0.00000000000E+00  0.00000000000E+00  0.93234578044E-11  0.17124000000E+03  0.17124000000E+03 0. -1.
       11    1    1    2    0    0 -0.82152105545E-01  0.56084077195E-01  0.52031908354E+00  0.52974201464E+00  0.51109989000E-03 0. -1.
     -623    1    1    2    0    0 -0.47717005581E-01 -0.14066907088E-01  0.23988829079E-01  0.17124000891E+03  0.17124000000E+03 0. -1.
     -611    1    1    2    0    0 -0.10822982948E+00  0.56606250216E-01  0.15081556171E+01  0.15130933845E+01  0.51109989000E-03 0.  1.
      611    1    1    2    0    0  0.23809894061E+00 -0.98623420323E-01  0.34475364465E+01  0.34571556945E+01  0.51109989000E-03 0. -1.
</event>
<event>
 6   3  0.2312675E+03  0.9118800E+02  0.7818608E-02  0.1180000E+00
       11   -1    0    0    0    0  0.00000000000E+00  0.00000000000E+00  0.54999999763E+01  0.55000000000E+01  0.51109989000E-03 0.  1.
     -623   -1    0    0    0    0  0.00000000000E+00  0.00000000000E+00  0.93234578044E-11  0.17124000000E+03  0.17124000000E+03 0. -1.
       11    1    1    2    0    0  0.13664731640E-01  0.10851748328E-01  0.31949699194E-01  0.36407826553E-01  0.51109989000E-03 0.  1.
     -623    1    1    2    0    0 -0.28783438115E-01 -0.17762174941E-01  0.50003325030E-02  0.17124000341E+03  0.17124000000E+03 0. -1.
     -611    1    1    2    0    0 -0.27926390540E-01 -0.63417017138E-02  0.14264279627E+01  0.14267154918E+01  0.51109989000E-03 0. -1.
      611    1    1    2    0    0  0.43045097014E-01  0.13252128327E-01  0.40366219818E+01  0.40368732683E+01  0.51109989000E-03 0.  1.
</event>
<event>
 6   3  0.2312675E+03  0.9118800E+02  0.7818608E-02  0.1180000E+00
       11   -1    0    0    0    0  0.00000000000E+00  0.00000000000E+00  0.54999999763E+01  0.55000000000E+01  0.51109989000E-03 0.  1.
     -623   -1    0    0    0    0  0.00000000000E+00  0.00000000000E+00  0.93234578044E-11  0.17124000000E+03  0.17124000000E+03 0. -1.
       11    1    1    2    0    0  0.53685452488E-02 -0.12036078993E-02  0.45962599630E-01  0.46293538836E-01  0.51109989000E-03 0.  1.
     -623    1    1    2    0    0  0.31851554303E-02 -0.39848874380E-02  0.85526690702E-03  0.17124000008E+03  0.17124000000E+03 0. -1.
     -611    1    1    2    0    0 -0.41273754352E-01 -0.32412744424E-02  0.32858548486E+01  0.32861156973E+01  0.51109989000E-03 0. -1.
      611    1    1    2    0    0  0.32720053673E-01  0.84297697795E-02  0.21673272609E+01  0.21675906855E+01  0.51109989000E-03 0.  1.
</event>
<event>
 6   3  0.2312675E+03  0.9118800E+02  0.7818608E-02  0.1180000E+00
       11   -1    0    0    0    0  0.00000000000E+00  0.00000000000E+00  0.54999999763E+01  0.55000000000E+01  0.51109989000E-03 0.  1.
     -623   -1    0    0    0    0  0.00000000000E+00  0.00000000000E+00  0.93234578044E-11  0.17124000000E+03  0.17124000000E+03 0.  1.
       11    1    1    2    0    0 -0.72954679771E-03  0.27425142148E-02  0.22433917882E+00  0.22435770991E+00  0.51109989000E-03 0.  1.
     -623    1    1    2    0    0 -0.54304789119E-03  0.14454365299E-02  0.40012879490E-03  0.17124000001E+03  0.17124000000E+03 0.  1.
     -611    1    1    2    0    0 -0.30679152302E-01  0.17682988126E-02  0.27801905364E+01  0.27803604114E+01  0.51109989000E-03 0.  1.
      611    1    1    2    0    0  0.31951746991E-01 -0.59562495572E-02  0.24950701323E+01  0.24952818713E+01  0.51109989000E-03 0. -1.
</event>
<event>
 6   3  0.2312675E+03  0.9118800E+02  0.7818608E-02  0.1180000E+00
       11   -1    0    0    0    0  0.00000000000E+00  0.00000000000E+00  0.54999999763E+01  0.55000000000E+01  0.51109989000E-03 0.  1.
     -623   -1    0    0    0    0  0.00000000000E+00  0.00000000000E+00  0.93234578044E-11  0.17124000000E+03  0.17124000000E+03 0. -1.
       11    1    1    2    0    0 -0.17146869351E-02 -0.55112092851E-03  0.34858902617E-02  0.39568345400E-02  0.51109989000E-03 0.  1.
     -623    1    1    2    0    0  0.22507183177E-02  0.16326800624E-02  0.13081706623E-02  0.17124000003E+03  0.17124000000E+03 0. -1.
     -611    1    1    2    0    0  0.40550700194E-01 -0.24289665733E-01  0.32283005593E+01  0.32286466375E+01  0.51109989000E-03 0.  1.
      611    1    1    2    0    0 -0.41086731577E-01  0.23208106599E-01  0.22669053560E+01  0.22673965004E+01  0.51109989000E-03 0. -1.
</event>
<event>
 6   3  0.2312675E+03  0.9118800E+02  0.7818608E-02  0.1180000E+00
       11   -1    0    0    0    0  0.00000000000E+00  0.00000000000E+00  0.54999999763E+01  0.55000000000E+01  0.51109989000E-03 0. -1.
     -623   -1    0    0    0    0  0.00000000000E+00  0.00000000000E+00  0.93234578044E-11  0.17124000000E+03  0.17124000000E+03 0.  1.
       11    1    1    2    0    0 -0.37526522831E-02 -0.10068429253E-03  0.69268836992E-01  0.69372368691E-01  0.51109989000E-03 0. -1.
     -623    1    1    2    0    0 -0.68894888884E-03  0.20712857883E-02  0.73486956733E-03  0.17124000002E+03  0.17124000000E+03 0.  1.
     -611    1    1    2    0    0 -0.28819978775E-01 -0.28241350503E-01  0.25415915415E+01  0.25419118770E+01  0.51109989000E-03 0.  1.
      611    1    1    2    0    0  0.33261579947E-01  0.26270749007E-01  0.28884047282E+01  0.28887157389E+01  0.51109989000E-03 0. -1.
</event>
<event>
 6   3  0.2312675E+03  0.9118800E+02  0.7818608E-02  0.1180000E+00
       11   -1    0    0    0    0  0.00000000000E+00  0.00000000000E+00  0.54999999763E+01  0.55000000000E+01  0.51109989000E-03 0. -1.
     -623   -1    0    0    0    0  0.00000000000E+00  0.00000000000E+00  0.93234578044E-11  0.17124000000E+03  0.17124000000E+03 0.  1.
       11    1    1    2    0    0 -0.72791284700E-01 -0.42303764180E-01  0.79408758365E+00  0.79853837186E+00  0.51109989000E-03 0. -1.
     -623    1    1    2    0    0 -0.42358790833E-02  0.37196259187E-01  0.51261598230E-02  0.17124000417E+03  0.17124000000E+03 0.  1.
     -611    1    1    2    0    0  0.68847051877E-01 -0.14889724018E-02  0.40154199562E+01  0.40160104357E+01  0.51109989000E-03 0. -1.
      611    1    1    2    0    0  0.81801119062E-02  0.65964773940E-02  0.68536627651E+00  0.68544702344E+00  0.51109989000E-03 0.  1.
</event>
<event>
 6   3  0.2312675E+03  0.9118800E+02  0.7818608E-02  0.1180000E+00
       11   -1    0    0    0    0  0.00000000000E+00  0.00000000000E+00  0.54999999763E+01  0.55000000000E+01  0.51109989000E-03 0.  1.
     -623   -1    0    0    0    0  0.00000000000E+00  0.00000000000E+00  0.93234578044E-11  0.17124000000E+03  0.17124000000E+03 0.  1.
       11    1    1    2    0    0  0.13243853748E-01  0.21971376110E-01  0.77424280489E+00  0.77466787927E+00  0.51109989000E-03 0.  1.
     -623    1    1    2    0    0  0.12244984460E-01 -0.35025739586E-01  0.10493909414E-02  0.17124000402E+03  0.17124000000E+03 0.  1.
     -611    1    1    2    0    0  0.24451842542E-01 -0.14541198328E-02  0.14303045026E+01  0.14305143266E+01  0.51109989000E-03 0. -1.
      611    1    1    2    0    0 -0.49940680749E-01  0.14508483308E-01  0.32944032777E+01  0.32948137709E+01  0.51109989000E-03 0.  1.
</event>
<event>
 6   3  0.2312675E+03  0.9118800E+02  0.7818608E-02  0.1180000E+00
       11   -1    0    0    0    0  0.00000000000E+00  0.00000000000E+00  0.54999999763E+01  0.55000000000E+01  0.51109989000E-03 0.  1.
     -623   -1    0    0    0    0  0.00000000000E+00  0.00000000000E+00  0.93234578044E-11  0.17124000000E+03  0.17124000000E+03 0.  1.
       11    1    1    2    0    0 -0.22077311992E-02 -0.14243665986E-02  0.17666442234E+00  0.17668469725E+00  0.51109989000E-03 0.  1.
     -623    1    1    2    0    0  0.76774831185E-01  0.44462562932E-02  0.56852507154E-03  0.17124001727E+03  0.17124000000E+03 0.  1.
     -611    1    1    2    0    0 -0.92337313644E-02 -0.29557545224E-02  0.58572870376E+00  0.58580916168E+00  0.51109989000E-03 0. -1.
      611    1    1    2    0    0 -0.65333368718E-01 -0.66135177733E-04  0.47370383320E+01  0.47374888785E+01  0.51109989000E-03 0.  1.
</event>
<event>
 6   3  0.2312675E+03  0.9118800E+02  0.7818608E-02  0.1180000E+00
       11   -1    0    0    0    0  0.00000000000E+00  0.00000000000E+00  0.54999999763E+01  0.55000000000E+01  0.51109989000E-03 0. -1.
     -623   -1    0    0    0    0  0.00000000000E+00  0.00000000000E+00  0.93234578044E-11  0.17124000000E+03  0.17124000000E+03 0. -1.
       11    1    1    2    0    0  0.40656443069E-02  0.37904162810E-02 -0.53887494784E-03  0.56078809296E-02  0.51109989000E-03 0. -1.
     -623    1    1    2    0    0  0.50190549802E-02 -0.20723154558E-02  0.71079622415E-02  0.17124000023E+03  0.17124000000E+03 0. -1.
     -611    1    1    2    0    0  0.43127687771E-01  0.13593902146E-01  0.31778604190E+01  0.31781821684E+01  0.51109989000E-03 0.  1.
      611    1    1    2    0    0 -0.52212387058E-01 -0.15312002971E-01  0.23155704700E+01  0.23162097171E+01  0.51109989000E-03 0. -1.
</event>
<event>
 6   3  0.2312675E+03  0.9118800E+02  0.7818608E-02  0.1180000E+00
       11   -1    0    0    0    0  0.00000000000E+00  0.00000000000E+00  0.54999999763E+01  0.55000000000E+01  0.51109989000E-03 0. -1.
     -623   -1    0    0    0    0  0.00000000000E+00  0.00000000000E+00  0.93234578044E-11  0.17124000000E+03  0.17124000000E+03 0.  1.
       11    1    1    2    0    0  0.76694604909E-02  0.14424649323E-01  0.12028027843E+00  0.12138573942E+00  0.51109989000E-03 0. -1.
     -623    1    1    2    0    0 -0.18670131982E-01 -0.12105564979E-01  0.40109997008E-02  0.17124000149E+03  0.17124000000E+03 0.  1.
     -611    1    1    2    0    0  0.75349110374E-01 -0.20460024800E-01  0.43634429265E+01  0.43641414431E+01  0.51109989000E-03 0. -1.
      611    1    1    2    0    0 -0.64348438883E-01  0.18140940456E-01  0.10122657717E+01  0.10144713249E+01  0.51109989000E-03 0.  1.
</event>
<event>
 6   3  0.2312675E+03  0.9118800E+02  0.7818608E-02  0.1180000E+00
       11   -1    0    0    0    0  0.00000000000E+00  0.00000000000E+00  0.54999999763E+01  0.55000000000E+01  0.51109989000E-03 0. -1.
     -623   -1    0    0    0    0  0.00000000000E+00  0.00000000000E+00  0.93234578044E-11  0.17124000000E+03  0.17124000000E+03 0. -1.
       11    1    1    2    0    0  0.11126840738E-01 -0.87252434328E-02  0.28714035742E-02  0.14437542705E-01  0.51109989000E-03 0. -1.
     -623    1    1    2    0    0 -0.18236126663E-01  0.19400604469E-02  0.13801231285E-01  0.17124000154E+03  0.17124000000E+03 0. -1.
     -611    1    1    2    0    0  0.72022246013E-01  0.25240069735E-01  0.18025145652E+01  0.18041295086E+01  0.51109989000E-03 0.  1.
      611    1    1    2    0    0 -0.64912960089E-01 -0.18454886749E-01  0.36808127762E+01  0.36814314105E+01  0.51109989000E-03 0. -1.
</event>
<event>
 6   3  0.2312675E+03  0.9118800E+02  0.7818608E-02  0.1180000E+00
       11   -1    0    0    0    0  0.00000000000E+00  0.00000000000E+00  0.54999999763E+01  0.55000000000E+01  0.51109989000E-03 0. -1.
     -623   -1    0    0    0    0  0.00000000000E+00  0.00000000000E+00  0.93234578044E-11  0.17124000000E+03  0.17124000000E+03 0.  1.
       11    1    1    2    0    0  0.50388807491E-01  0.12167696884E-01  0.59109621859E+00  0.59336505258E+00  0.51109989000E-03 0. -1.
     -623    1    1    2    0    0  0.13250519735E-01 -0.93410036367E-02  0.26833116840E-02  0.17124000079E+03  0.17124000000E+03 0.  1.
     -611    1    1    2    0    0 -0.42835903134E-01 -0.17846805377E-02  0.32760571792E+01  0.32763377424E+01  0.51109989000E-03 0.  1.
      611    1    1    2    0    0 -0.20803424195E-01 -0.10420127140E-02  0.16301632747E+01  0.16302964245E+01  0.51109989000E-03 0. -1.
</event>
<event>
 6   3  0.2312675E+03  0.9118800E+02  0.7818608E-02  0.1180000E+00
       11   -1    0    0    0    0  0.00000000000E+00  0.00000000000E+00  0.54999999763E+01  0.55000000000E+01  0.51109989000E-03 0. -1.
     -623   -1    0    0    0    0  0.00000000000E+00  0.00000000000E+00  0.93234578044E-11  0.17124000000E+03  0.17124000000E+03 0.  1.
       11    1    1    2    0    0  0.80978601412E-01  0.43324469947E-02  0.46414257531E+00  0.47117395453E+00  0.51109989000E-03 0. -1.
     -623    1    1    2    0    0 -0.74414086180E-02  0.34105352092E-02  0.75784030198E-02  0.17124000036E+03  0.17124000000E+03 0.  1.
     -611    1    1    2    0    0 -0.34617337868E-01 -0.29454475832E-02  0.25400689930E+01  0.25403066323E+01  0.51109989000E-03 0. -1.
      611    1    1    2    0    0 -0.38919854931E-01 -0.47975346212E-02  0.24882100053E+01  0.24885190501E+01  0.51109989000E-03 0.  1.
</event>
<event>
 6   3  0.2312675E+03  0.9118800E+02  0.7818608E-02  0.1180000E+00
       11   -1    0    0    0    0  0.00000000000E+00  0.00000000000E+00  0.54999999763E+01  0.55000000000E+01  0.51109989000E-03 0. -1.
     -623   -1    0    0    0    0  0.00000000000E+00  0.00000000000E+00  0.93234578044E-11  0.17124000000E+03  0.17124000000E+03 0.  1.
       11    1    1    2    0    0 -0.13882845364E-02  0.71412837393E-02  0.25794309570E-01  0.26805463934E-01  0.51109989000E-03 0. -1.
     -623    1    1    2    0    0 -0.99972868556E-03 -0.57425488527E-02  0.22111003631E-02  0.17124000011E+03  0.17124000000E+03 0.  1.
     -611    1    1    2    0    0  0.43654064611E-01 -0.31593873777E-01  0.17016682249E+01  0.17025213242E+01  0.51109989000E-03 0. -1.
      611    1    1    2    0    0 -0.41266051389E-01  0.30195138890E-01  0.37703263413E+01  0.37706730984E+01  0.51109989000E-03 0.  1.
</event>
<event>
 6   3  0.2312675E+03  0.9118800E+02  0.7818608E-02  0.1180000E+00
       11   -1    0    0    0    0  0.00000000000E+00  0.00000000000E+00  0.54999999763E+01  0.55000000000E+01  0.51109989000E-03 0.  1.
     -623   -1    0    0    0    0  0.00000000000E+00  0.00000000000E+00  0.93234578044E-11  0.17124000000E+03  0.17124000000E+03 0.  1.
       11    1    1    2    0    0  0.73031929015E-02  0.40431449085E-02  0.59114967166E-01  0.59703636518E-01  0.51109989000E-03 0.  1.
     -623    1    1    2    0    0 -0.16726948748E-02  0.42024470776E-02  0.21485317412E-02  0.17124000007E+03  0.17124000000E+03 0.  1.
     -611    1    1    2    0    0 -0.62006159436E-01 -0.17937800773E-01  0.38282188403E+01  0.38287630220E+01  0.51109989000E-03 0.  1.
      611    1    1    2    0    0  0.56375661409E-01  0.96922087872E-02  0.16105176371E+01  0.16115332683E+01  0.51109989000E-03 0. -1.
</event>
<event>
 6   3  0.2312675E+03  0.9118800E+02  0.7818608E-02  0.1180000E+00
       11   -1    0    0    0    0  0.00000000000E+00  0.00000000000E+00  0.54999999763E+01  0.55000000000E+01  0.51109989000E-03 0. -1.
     -623   -1    0    0    0    0  0.00000000000E+00  0.00000000000E+00  0.93234578044E-11  0.17124000000E+03  0.17124000000E+03 0. -1.
       11    1    1    2    0    0 -0.92984990333E-03  0.29315358426E-02  0.32232276138E+00  0.32233783869E+00  0.51109989000E-03 0. -1.
     -623    1    1    2    0    0  0.16085448076E-02 -0.42198747336E-02  0.51921253896E-03  0.17124000006E+03  0.17124000000E+03 0. -1.
     -611    1    1    2    0    0  0.30283017971E-01  0.19464467194E-01  0.28427457749E+01  0.28429737474E+01  0.51109989000E-03 0. -1.
      611    1    1    2    0    0 -0.30961712875E-01 -0.18176128303E-01  0.23344122272E+01  0.23346883533E+01  0.51109989000E-03 0.  1.
</event>
<event>
 6   3  0.2312675E+03  0.9118800E+02  0.7818608E-02  0.1180000E+00
       11   -1    0    0    0    0  0.00000000000E+00  0.00000000000E+00  0.54999999763E+01  0.55000000000E+01  0.51109989000E-03 0.  1.
     -623   -1    0    0    0    0  0.00000000000E+00  0.00000000000E+00  0.93234578044E-11  0.17124000000E+03  0.17124000000E+03 0. -1.
       11    1    1    2    0    0 -0.23586695722E-02  0.39436495395E-02  0.30729814087E-02  0.55515882121E-02  0.51109989000E-03 0.  1.
     -623    1    1    2    0    0 -0.36415625933E-02 -0.29035051121E-02  0.35716489736E-02  0.17124000010E+03  0.17124000000E+03 0. -1.
     -611    1    1    2    0    0  0.47990332650E-01 -0.12280446821E-01  0.43262858605E+01  0.43265694828E+01  0.51109989000E-03 0.  1.
      611    1    1    2    0    0 -0.41990100485E-01  0.11240302394E-01  0.11670694853E+01  0.11678788284E+01  0.51109989000E-03 0. -1.
</event>
<event>
 6   3  0.2312675E+03  0.9118800E+02  0.7818608E-02  0.1180000E+00
       11   -1    0    0    0    0  0.00000000000E+00  0.00000000000E+00  0.54999999763E+01  0.55000000000E+01  0.51109989000E-03 0. -1.
     -623   -1    0    0    0    0  0.00000000000E+00  0.00000000000E+00  0.93234578044E-11  0.17124000000E+03  0.17124000000E+03 0.  1.
       11    1    1    2    0    0  0.17357526111E-01  0.15445999850E-01  0.29461300194E+00  0.29552824698E+00  0.51109989000E-03 0. -1.
     -623    1    1    2    0    0 -0.39733182417E-03 -0.33182271177E-01  0.24316768354E-02  0.17124000323E+03  0.17124000000E+03 0.  1.
     -611    1    1    2    0    0  0.26148246077E-01  0.56577791034E-01  0.19506125268E+01  0.19516081236E+01  0.51109989000E-03 0.  1.
      611    1    1    2    0    0 -0.43108440363E-01 -0.38841519706E-01  0.32523427707E+01  0.32528603968E+01  0.51109989000E-03 0. -1.
</event>
<event>
 6   3  0.2312675E+03  0.9118800E+02  0.7818608E-02  0.1180000E+00
       11   -1    0    0    0    0  0.00000000000E+00  0.00000000000E+00  0.54999999763E+01  0.55000000000E+01  0.51109989000E-03 0. -1.
     -623   -1    0    0    0    0  0.00000000000E+00  0.00000000000E+00  0.93234578044E-11  0.17124000000E+03  0.17124000000E+03 0.  1.
       11    1    1    2    0    0 -0.38459240092E-01  0.14225329074E-01  0.77756036706E+00  0.77864103332E+00  0.51109989000E-03 0. -1.
     -623    1    1    2    0    0 -0.11342993515E-01 -0.29399530853E-01  0.13708169413E-02  0.17124000290E+03  0.17124000000E+03 0.  1.
     -611    1    1    2    0    0  0.38195564997E-01  0.11388717312E-01  0.35948453815E+01  0.35950663669E+01  0.51109989000E-03 0. -1.
      611    1    1    2    0    0  0.11606668626E-01  0.37854844714E-02  0.11262234122E+01  0.11262896963E+01  0.51109989000E-03 0. -1.
</event>
<event>
 6   3  0.2312675E+03  0.9118800E+02  0.7818608E-02  0.1180000E+00
       11   -1    0    0    0    0  0.00000000000E+00  0.00000000000E+00  0.54999999763E+01  0.55000000000E+01  0.51109989000E-03 0. -1.
     -623   -1    0    0    0    0  0.00000000000E+00  0.00000000000E+00  0.93234578044E-11  0.17124000000E+03  0.17124000000E+03 0. -1.
       11    1    1    2    0    0  0.81428392865E-01 -0.28709743050E-01  0.68251341743E+00  0.68795323875E+00  0.51109989000E-03 0. -1.
     -623    1    1    2    0    0  0.21876916728E-01  0.11653642880E-01  0.65815983591E-02  0.17124000192E+03  0.17124000000E+03 0. -1.
     -611    1    1    2    0    0 -0.80594041816E-01  0.14198886477E-01  0.37552231488E+01  0.37561147701E+01  0.51109989000E-03 0. -1.
      611    1    1    2    0    0 -0.22711267769E-01  0.28572136921E-02  0.10556818113E+01  0.10559300703E+01  0.51109989000E-03 0.  1.
</event>
<event>
 6   3  0.2312675E+03  0.9118800E+02  0.7818608E-02  0.1180000E+00
       11   -1    0    0    0    0  0.00000000000E+00  0.00000000000E+00  0.54999999763E+01  0.55000000000E+01  0.51109989000E-03 0.  1.
     -623   -1    0    0    0    0  0.00000000000E+00  0.00000000000E+00  0.93234578044E-11  0.17124000000E+03  0.17124000000E+03 0. -1.
       11    1    1    2    0    0  0.60719056367E-01 -0.26010998154E-01  0.10963896669E+01  0.10983778670E+01  0.51109989000E-03 0.  1.
     -623    1    1    2    0    0  0.59047643130E-01 -0.54576680564E-01  0.43851652684E-02  0.17124001893E+03  0.17124000000E+03 0. -1.
     -611    1    1    2    0    0 -0.98207892901E-01  0.67087027084E-01  0.37245748606E+01  0.37264733480E+01  0.51109989000E-03 0.  1.
      611    1    1    2    0    0 -0.21558806596E-01  0.13500651633E-01  0.67465028343E+00  0.67512985114E+00  0.51109989000E-03 0. -1.
</event>
<event>
 6   3  0.2312675E+03  0.9118800E+02  0.7818608E-02  0.1180000E+00
       11   -1    0    0    0    0  0.00000000000E+00  0.00000000000E+00  0.54999999763E+01  0.55000000000E+01  0.51109989000E-03 0. -1.
     -623   -1    0    0    0    0  0.00000000000E+00  0.00000000000E+00  0.93234578044E-11  0.17124000000E+03  0.17124000000E+03 0. -1.
       11    1    1    2    0    0 -0.13038837258E-01 -0.47123316361E-01  0.10806447179E+01  0.10817503805E+01  0.51109989000E-03 0. -1.
     -623    1    1    2    0    0  0.73165999128E-02  0.17636844034E-01  0.37224303037E-02  0.17124000111E+03  0.17124000000E+03 0. -1.
     -611    1    1    2    0    0 -0.58494972407E-01 -0.15644126527E-01  0.28559792083E+01  0.28566210634E+01  0.51109989000E-03 0. -1.
      611    1    1    2    0    0  0.64217209753E-01  0.45130598854E-01  0.15596536198E+01  0.15616274510E+01  0.51109989000E-03 0.  1.
</event>
<event>
 6   3  0.2312675E+03  0.9118800E+02  0.7818608E-02  0.1180000E+00
       11   -1    0    0    0    0  0.00000000000E+00  0.00000000000E+00  0.54999999763E+01  0.55000000000E+01  0.51109989000E-03 0.  1.
     -623   -1    0    0    0    0  0.00000000000E+00  0.00000000000E+00  0.93234578044E-11  0.17124000000E+03  0.17124000000E+03 0.  1.
       11    1    1    2    0    0 -0.33623869091E-01 -0.10303373245E-01  0.54176872294E+00  0.54290914014E+00  0.51109989000E-03 0.  1.
     -623    1    1    2    0    0  0.47780766205E-03 -0.37165839060E-02  0.17370066882E-02  0.17124000005E+03  0.17124000000E+03 0.  1.
     -611    1    1    2    0    0 -0.20098835019E-01 -0.41252195824E-02  0.14536628099E+01  0.14538076924E+01  0.51109989000E-03 0.  1.
      611    1    1    2    0    0  0.53244896448E-01  0.18145176734E-01  0.35028314368E+01  0.35032831176E+01  0.51109989000E-03 0. -1.
</event>
<event>
 6   3  0.2312675E+03  0.9118800E+02  0.7818608E-02  0.1180000E+00
       11   -1    0    0    0    0  0.00000000000E+00  0.00000000000E+00  0.54999999763E+01  0.55000000000E+01  0.51109989000E-03 0. -1.
     -623   -1    0    0    0    0  0.00000000000E+00  0.00000000000E+00  0.93234578044E-11  0.17124000000E+03  0.17124000000E+03 0. -1.
       11    1    1    2    0    0  0.86496116161E-03  0.29686911191E-02  0.22882328291E-02  0.38805305500E-02  0.51109989000E-03 0. -1.
     -623    1    1    2    0    0  0.16815094093E-02 -0.12667508479E-02  0.30619831645E-02  0.17124000004E+03  0.17124000000E+03 0. -1.
     -611    1    1    2    0    0  0.48647125639E-01 -0.25803981530E-01  0.40311588216E+01  0.40315349551E+01  0.51109989000E-03 0. -1.
      611    1    1    2    0    0 -0.51193596210E-01  0.24102041259E-01  0.14634909387E+01  0.14645844740E+01  0.51109989000E-03 0.  1.
</event>
<event>
 6   3  0.2312675E+03  0.9118800E+02  0.7818608E-02  0.1180000E+00
       11   -1    0    0    0    0  0.00000000000E+00  0.00000000000E+00  0.54999999763E+01  0.55000000000E+01  0.51109989000E-03 0. -1.
     -623   -1    0    0    0    0  0.00000000000E+00  0.00000000000E+00  0.93234578044E-11  0.17124000000E+03  0.17124000000E+03 0.  1.
       11    1    1    2    0    0 -0.50257111336E-01 -0.38942531251E-01  0.44486462033E+00  0.44938523521E+00  0.51109989000E-03 0. -1.
     -623    1    1    2    0    0 -0.14786563900E-01  0.28241584468E-01  0.49539504592E-02  0.17124000304E+03  0.17124000000E+03 0.  1.
     -611    1    1    2    0    0  0.34295574753E-01  0.59355906841E-02  0.26643012360E+01  0.26645286178E+01  0.51109989000E-03 0. -1.
      611    1    1    2    0    0  0.30748100458E-01  0.47653560942E-02  0.23858801676E+01  0.23860831062E+01  0.51109989000E-03 0. -1.
</event>
<event>
 6   3  0.2312675E+03  0.9118800E+02  0.7818608E-02  0.1180000E+00
       11   -1    0    0    0    0  0.00000000000E+00  0.00000000000E+00  0.54999999763E+01  0.55000000000E+01  0.51109989000E-03 0.  1.
     -623   -1    0    0    0    0  0.00000000000E+00  0.00000000000E+00  0.93234578044E-11  0.17124000000E+03  0.17124000000E+03 0.  1.
       11    1    1    2    0    0 -0.62244346478E-02 -0.78338785299E-03  0.63811000414E+00  0.63814104702E+00  0.51109989000E-03 0.  1.
     -623    1    1    2    0    0 -0.58804681107E-01 -0.84354799616E-02  0.48624749298E-03  0.17124001031E+03  0.17124000000E+03 0.  1.
     -611    1    1    2    0    0  0.22523424429E-01  0.17518865469E-02  0.16196616653E+01  0.16198192939E+01  0.51109989000E-03 0. -1.
      611    1    1    2    0    0  0.42505691324E-01  0.74669812675E-02  0.32417420591E+01  0.32420293534E+01  0.51109989000E-03 0.  1.
</event>
<event>
 6   3  0.2312675E+03  0.9118800E+02  0.7818608E-02  0.1180000E+00
       11   -1    0    0    0    0  0.00000000000E+00  0.00000000000E+00  0.54999999763E+01  0.55000000000E+01  0.51109989000E-03 0.  1.
     -623   -1    0    0    0    0  0.00000000000E+00  0.00000000000E+00  0.93234578044E-11  0.17124000000E+03  0.17124000000E+03 0. -1.
       11    1    1    2    0    0  0.31303212493E-02  0.11898671090E-02  0.72693187602E-02  0.80199073060E-02  0.51109989000E-03 0.  1.
     -623    1    1    2    0    0  0.43864104892E-03 -0.71066031583E-02  0.13412186704E-02  0.17124000015E+03  0.17124000000E+03 0. -1.
     -611    1    1    2    0    0  0.36063422346E-01  0.14768436641E-01  0.22704525647E+01  0.22707870413E+01  0.51109989000E-03 0. -1.
      611    1    1    2    0    0 -0.39632384645E-01 -0.88517005921E-02  0.32209368741E+01  0.32211928981E+01  0.51109989000E-03 0.  1.
</event>
<event>
 6   3  0.2312675E+03  0.9118800E+02  0.7818608E-02  0.1180000E+00
       11   -1    0    0    0    0  0.00000000000E+00  0.00000000000E+00  0.54999999763E+01  0.55000000000E+01  0.51109989000E-03 0.  1.
     -623   -1    0    0    0    0  0.00000000000E+00  0.00000000000E+00  0.93234578044E-11  0.17124000000E+03  0.17124000000E+03 0.  1.
       11    1    1    2    0    0  0.13738732666E-01  0.10277268459E-01  0.48955459503E-01  0.51877483174E-01  0.51109989000E-03 0.  1.
     -623    1    1    2    0    0 -0.10836880095E-01  0.35945515757E-02  0.53758860439E-02  0.17124000047E+03  0.17124000000E+03 0.  1.
     -611    1    1    2    0    0 -0.80917736137E-01  0.10654355114E-01  0.26325256550E+01  0.26337905727E+01  0.51109989000E-03 0. -1.
      611    1    1    2    0    0  0.78015883566E-01 -0.24526175149E-01  0.28131429757E+01  0.28143314791E+01  0.51109989000E-03 0.  1.
</event>
<event>
 6   3  0.2312675E+03  0.9118800E+02  0.7818608E-02  0.1180000E+00
       11   -1    0    0    0    0  0.00000000000E+00  0.00000000000E+00  0.54999999763E+01  0.55000000000E+01  0.51109989000E-03 0. -1.
     -623   -1    0    0    0    0  0.00000000000E+00  0.00000000000E+00  0.93234578044E-11  0.17124000000E+03  0.17124000000E+03 0. -1.
       11    1    1    2    0    0  0.17248851990E-01 -0.34294578477E-01  0.81342779540E+00  0.81433327364E+00  0.51109989000E-03 0. -1.
     -623    1    1    2    0    0 -0.78012214195E-01  0.22418821490E-01  0.13340548724E-02  0.17124001924E+03  0.17124000000E+03 0. -1.
     -611    1    1    2    0    0  0.32291547255E-01  0.67664364720E-02  0.24591787449E+01  0.24594001076E+01  0.51109989000E-03 0. -1.
      611    1    1    2    0    0  0.28471814952E-01  0.51093205130E-02  0.22260593811E+01  0.22262473760E+01  0.51109989000E-03 0. -1.
</event>
<event>
 6   3  0.2312675E+03  0.9118800E+02  0.7818608E-02  0.1180000E+00
       11   -1    0    0    0    0  0.00000000000E+00  0.00000000000E+00  0.54999999763E+01  0.55000000000E+01  0.51109989000E-03 0.  1.
     -623   -1    0    0    0    0  0.00000000000E+00  0.00000000000E+00  0.93234578044E-11  0.17124000000E+03  0.17124000000E+03 0. -1.
       11    1    1    2    0    0 -0.21283707440E-03  0.34401175005E-02  0.22354726185E+00  0.22357441538E+00  0.51109989000E-03 0.  1.
     -623    1    1    2    0    0 -0.79294248022E-02 -0.22598872072E-02  0.13611061001E-02  0.17124000020E+03  0.17124000000E+03 0. -1.
     -611    1    1    2    0    0 -0.41524590594E-01  0.18949314931E-01  0.10475211174E+01  0.10485151982E+01  0.51109989000E-03 0. -1.
      611    1    1    2    0    0  0.49666852471E-01 -0.20129545225E-01  0.42275704909E+01  0.42279101825E+01  0.51109989000E-03 0.  1.
</event>
<event>
 6   3  0.2312675E+03  0.9118800E+02  0.7818608E-02  0.1180000E+00
       11   -1    0    0    0    0  0.00000000000E+00  0.00000000000E+00  0.54999999763E+01  0.55000000000E+01  0.51109989000E-03 0. -1.
     -623   -1    0    0    0    0  0.00000000000E+00  0.00000000000E+00  0.93234578044E-11  0.17124000000E+03  0.17124000000E+03 0. -1.
       11    1    1    2    0    0  0.98339449916E-02 -0.32038447814E-02  0.14605601442E+00  0.14642264739E+00  0.51109989000E-03 0. -1.
     -623    1    1    2    0    0 -0.20542311600E-01  0.13062173415E-01  0.91864591731E-03  0.17124000173E+03  0.17124000000E+03 0. -1.
     -611    1    1    2    0    0  0.42965677127E-01 -0.39852500585E-02  0.26487685930E+01  0.26491200902E+01  0.51109989000E-03 0. -1.
      611    1    1    2    0    0 -0.32257310519E-01 -0.58730785755E-02  0.27042567230E+01  0.27044555297E+01  0.51109989000E-03 0.  1.
</event>
<event>
 6   3  0.2312675E+03  0.9118800E+02  0.7818608E-02  0.1180000E+00
       11   -1    0    0    0    0  0.00000000000E+00  0.00000000000E+00  0.54999999763E+01  0.55000000000E+01  0.51109989000E-03 0. -1.
     -623   -1    0    0    0    0  0.00000000000E+00  0.00000000000E+00  0.93234578044E-11  0.17124000000E+03  0.17124000000E+03 0.  1.
       11    1    1    2    0    0 -0.37555826045E-02 -0.84763078369E-02  0.40119224062E-01  0.41179674084E-01  0.51109989000E-03 0. -1.
     -623    1    1    2    0    0 -0.14357947242E-02  0.13797193229E-02  0.16982640026E-02  0.17124000002E+03  0.17124000000E+03 0.  1.
     -611    1    1    2    0    0  0.43710133046E-01  0.80723008635E-02  0.32064951205E+01  0.32068032302E+01  0.51109989000E-03 0.  1.
      611    1    1    2    0    0 -0.38518755718E-01 -0.97571234959E-03  0.22516873676E+01  0.22520170757E+01  0.51109989000E-03 0. -1.
</event>
<event>
 6   3  0.2312675E+03  0.9118800E+02  0.7818608E-02  0.1180000E+00
       11   -1    0    0    0    0  0.00000000000E+00  0.00000000000E+00  0.54999999763E+01  0.55000000000E+01  0.51109989000E-03 0.  1.
     -623   -1    0    0    0    0  0.00000000000E+00  0.00000000000E+00  0.93234578044E-11  0.17124000000E+03  0.17124000000E+03 0. -1.
       11    1    1    2    0    0  0.12578380366E+00  0.56687427173E-01  0.99858523771E+00  0.10080713109E+01  0.51109989000E-03 0.  1.
     -623    1    1    2    0    0 -0.92871678810E-03 -0.25771976095E-01  0.11434463167E-01  0.17124000232E+03  0.17124000000E+03 0. -1.
     -611    1    1    2    0    0 -0.71005903707E-01 -0.56079398854E-02  0.27756625641E+01  0.27765763484E+01  0.51109989000E-03 0.  1.
      611    1    1    2    0    0 -0.53849183167E-01 -0.25307511193E-01  0.17143177113E+01  0.17153500171E+01  0.51109989000E-03 0. -1.
</event>
<event>
 6   3  0.2312675E+03  0.9118800E+02  0.7818608E-02  0.1180000E+00
       11   -1    0    0    0    0  0.00000000000E+00  0.00000000000E+00  0.54999999763E+01  0.55000000000E+01  0.51109989000E-03 0.  1.
     -623   -1    0    0    0    0  0.00000000000E+00  0.00000000000E+00  0.93234578044E-11  0.17124000000E+03  0.17124000000E+03 0. -1.
       11    1    1    2    0    0 -0.74290686232E-02 -0.61710337525E-02  0.57484142111E+00  0.57492277165E+00  0.51109989000E-03 0. -1.
     -623    1    1    2    0    0  0.70007571411E-01 -0.14997453566E-01  0.53995736880E-03  0.17124001497E+03  0.17124000000E+03 0. -1.
     -611    1    1    2    0    0 -0.54638928197E-01  0.18324134807E-01  0.43382227345E+01  0.43386055296E+01  0.51109989000E-03 0.  1.
      611    1    1    2    0    0 -0.79395746049E-02  0.28443525179E-02  0.58639586444E+00  0.58645673177E+00  0.51109989000E-03 0.  1.
</event>
<event>
 6   3  0.2312675E+03  0.9118800E+02  0.7818608E-02  0.1180000E+00
       11   -1    0    0    0    0  0.00000000000E+00  0.00000000000E+00  0.54999999763E+01  0.55000000000E+01  0.51109989000E-03 0. -1.
     -623   -1    0    0    0    0  0.00000000000E+00  0.00000000000E+00  0.93234578044E-11  0.17124000000E+03  0.17124000000E+03 0. -1.
       11    1    1    2    0    0  0.18061365792E-01 -0.61502533702E-02  0.69150480223E+00  0.69176816295E+00  0.51109989000E-03 0. -1.
     -623    1    1    2    0    0 -0.93849239025E-01  0.41054832875E-02  0.88716060075E-03  0.17124002577E+03  0.17124000000E+03 0. -1.
     -611    1    1    2    0    0  0.44535109639E-01  0.87989854486E-03  0.27887999403E+01  0.27891556999E+01  0.51109989000E-03 0. -1.
      611    1    1    2    0    0  0.31252763630E-01  0.11648715404E-02  0.20188080755E+01  0.20190503707E+01  0.51109989000E-03 0. -1.
</event>
<event>
 6   3  0.2312675E+03  0.9118800E+02  0.7818608E-02  0.1180000E+00
       11   -1    0    0    0    0  0.00000000000E+00  0.00000000000E+00  0.54999999763E+01  0.55000000000E+01  0.51109989000E-03 0.  1.
     -623   -1    0    0    0    0  0.00000000000E+00  0.00000000000E+00  0.93234578044E-11  0.17124000000E+03  0.17124000000E+03 0. -1.
       11    1    1    2    0    0 -0.60241013713E-02 -0.24156608062E-01  0.22735782494E+00  0.22871745298E+00  0.51109989000E-03 0.  1.
     -623    1    1    2    0    0 -0.16077106432E-01  0.37083560625E-01  0.57297132767E-02  0.17124000487E+03  0.17124000000E+03 0. -1.
     -611    1    1    2    0    0 -0.61567991364E-01  0.16255454984E-01  0.57279261918E+00  0.57632152761E+00  0.51109989000E-03 0. -1.
      611    1    1    2    0    0  0.83669199167E-01 -0.29182407546E-01  0.46941198189E+01  0.46949561535E+01  0.51109989000E-03 0.  1.
</event>
<event>
 6   3  0.2312675E+03  0.9118800E+02  0.7818608E-02  0.1180000E+00
       11   -1    0    0    0    0  0.00000000000E+00  0.00000000000E+00  0.54999999763E+01  0.55000000000E+01  0.51109989000E-03 0.  1.
     -623   -1    0    0    0    0  0.00000000000E+00  0.00000000000E+00  0.93234578044E-11  0.17124000000E+03  0.17124000000E+03 0. -1.
       11    1    1    2    0    0 -0.30916375878E-03  0.64981208526E-02  0.17111248278E-01  0.18313306572E-01  0.51109989000E-03 0.  1.
     -623    1    1    2    0    0  0.51029552640E-02 -0.25996493286E-02  0.29566179894E-02  0.17124000012E+03  0.17124000000E+03 0. -1.
     -611    1    1    2    0    0  0.62685408187E-01 -0.12433169906E-01  0.35071082622E+01  0.35076905035E+01  0.51109989000E-03 0.  1.
      611    1    1    2    0    0 -0.67479199692E-01  0.85346983823E-02  0.19728238478E+01  0.19739960686E+01  0.51109989000E-03 0. -1.
</event>
<event>
 6   3  0.2312675E+03  0.9118800E+02  0.7818608E-02  0.1180000E+00
       11   -1    0    0    0    0  0.00000000000E+00  0.00000000000E+00  0.54999999763E+01  0.55000000000E+01  0.51109989000E-03 0. -1.
     -623   -1    0    0    0    0  0.00000000000E+00  0.00000000000E+00  0.93234578044E-11  0.17124000000E+03  0.17124000000E+03 0.  1.
       11    1    1    2    0    0 -0.21863804956E-01 -0.22872198009E-01  0.34671430671E+00  0.34815547548E+00  0.51109989000E-03 0. -1.
     -623    1    1    2    0    0  0.19361465603E-01  0.49235279946E-02  0.43089270160E-02  0.17124000122E+03  0.17124000000E+03 0.  1.
     -611    1    1    2    0    0  0.80652774048E-01  0.83315724407E-02  0.16610442407E+01  0.16630221032E+01  0.51109989000E-03 0.  1.
      611    1    1    2    0    0 -0.78150434695E-01  0.96170975734E-02  0.34879325018E+01  0.34888212017E+01  0.51109989000E-03 0. -1.
</event>
<event>
 6   3  0.2312675E+03  0.9118800E+02  0.7818608E-02  0.1180000E+00
       11   -1    0    0    0    0  0.00000000000E+00  0.00000000000E+00  0.54999999763E+01  0.55000000000E+01  0.51109989000E-03 0. -1.
     -623   -1    0    0    0    0  0.00000000000E+00  0.00000000000E+00  0.93234578044E-11  0.17124000000E+03  0.17124000000E+03 0.  1.
       11    1    1    2    0    0  0.48177739459E-01  0.11301425772E-01  0.79310192803E+00  0.79464441499E+00  0.51109989000E-03 0. -1.
     -623    1    1    2    0    0  0.42944412730E-02 -0.14952600010E-03  0.18496219901E-02  0.17124000006E+03  0.17124000000E+03 0.  1.
     -611    1    1    2    0    0 -0.40422435729E-01 -0.74593285601E-02  0.36720369389E+01  0.36722670323E+01  0.51109989000E-03 0. -1.
      611    1    1    2    0    0 -0.12049745007E-01 -0.36925712124E-02  0.10330114879E+01  0.10330884893E+01  0.51109989000E-03 0.  1.
</event>
<event>
 6   3  0.2312675E+03  0.9118800E+02  0.7818608E-02  0.1180000E+00
       11   -1    0    0    0    0  0.00000000000E+00  0.00000000000E+00  0.54999999763E+01  0.55000000000E+01  0.51109989000E-03 0. -1.
     -623   -1    0    0    0    0  0.00000000000E+00  0.00000000000E+00  0.93234578044E-11  0.17124000000E+03  0.17124000000E+03 0. -1.
       11    1    1    2    0    0  0.63307135077E-01  0.34660094916E-01  0.95685574586E+00  0.95957401754E+00  0.51109989000E-03 0. -1.
     -623    1    1    2    0    0  0.26568045681E-01 -0.25137468808E-01  0.47494791532E-02  0.17124000397E+03  0.17124000000E+03 0. -1.
     -611    1    1    2    0    0  0.19280632924E-01 -0.79378804909E-02  0.13452076012E+01  0.13453692817E+01  0.51109989000E-03 0. -1.
      611    1    1    2    0    0 -0.10915581368E+00 -0.15847456176E-02  0.31931871501E+01  0.31950527288E+01  0.51109989000E-03 0.  1.
</event>
<event>
 6   3  0.2312675E+03  0.9118800E+02  0.7818608E-02  0.1180000E+00
       11   -1    0    0    0    0  0.00000000000E+00  0.00000000000E+00  0.54999999763E+01  0.55000000000E+01  0.51109989000E-03 0. -1.
     -623   -1    0    0    0    0  0.00000000000E+00  0.00000000000E+00  0.93234578044E-11  0.17124000000E+03  0.17124000000E+03 0.  1.
       11    1    1    2    0    0 -0.97126325457E-03  0.40789041496E-02  0.13572942565E-01  0.14215020378E-01  0.51109989000E-03 0. -1.
     -623    1    1    2    0    0 -0.33411628208E-02 -0.32112547296E-02  0.14618752299E-02  0.17124000007E+03  0.17124000000E+03 0.  1.
     -611    1    1    2    0    0 -0.41428470971E-01 -0.14146766065E-01  0.19056795024E+01  0.19061823302E+01  0.51109989000E-03 0.  1.
      611    1    1    2    0    0  0.45740897046E-01  0.13279116645E-01  0.35792856562E+01  0.35796025805E+01  0.51109989000E-03 0. -1.
</event>
<event>
 6   3  0.2312675E+03  0.9118800E+02  0.7818608E-02  0.1180000E+00
       11   -1    0    0    0    0  0.00000000000E+00  0.00000000000E+00  0.54999999763E+01  0.55000000000E+01  0.51109989000E-03 0. -1.
     -623   -1    0    0    0    0  0.00000000000E+00  0.00000000000E+00  0.93234578044E-11  0.17124000000E+03  0.17124000000E+03 0.  1.
       11    1    1    2    0    0  0.37329313138E-02  0.75972054907E-02  0.37408347718E+00  0.37417958447E+00  0.51109989000E-03 0. -1.
     -623    1    1    2    0    0 -0.65904902779E-01 -0.30042156605E-01  0.53788768566E-03  0.17124001532E+03  0.17124000000E+03 0.  1.
     -611    1    1    2    0    0  0.35446712147E-01  0.12305787226E-01  0.28721995530E+01  0.28724446792E+01  0.51109989000E-03 0. -1.
      611    1    1    2    0    0  0.26725259257E-01  0.10139163865E-01  0.22531790532E+01  0.22533604126E+01  0.51109989000E-03 0. -1.
</event>
<event>
 6   3  0.2312675E+03  0.9118800E+02  0.7818608E-02  0.1180000E+00
       11   -1    0    0    0    0  0.00000000000E+00  0.00000000000E+00  0.54999999763E+01  0.55000000000E+01  0.51109989000E-03 0.  1.
     -623   -1    0    0    0    0  0.00000000000E+00  0.00000000000E+00  0.93234578044E-11  0.17124000000E+03  0.17124000000E+03 0. -1.
       11    1    1    2    0    0  0.61416375961E-03 -0.86828537700E-02  0.77309147185E+00  0.77314064323E+00  0.51109989000E-03 0.  1.
     -623    1    1    2    0    0 -0.14834212908E-03  0.97145555424E-03  0.77753916238E-03  0.17124000000E+03  0.17124000000E+03 0. -1.
     -611    1    1    2    0    0 -0.35330785970E-01 -0.16806749977E-01  0.18607162259E+01  0.18611275791E+01  0.51109989000E-03 0.  1.
      611    1    1    2    0    0  0.34864964339E-01  0.24518148192E-01  0.28654147393E+01  0.28657317730E+01  0.51109989000E-03 0. -1.
</event>
<event>
 6   3  0.2312675E+03  0.9118800E+02  0.7818608E-02  0.1180000E+00
       11   -1    0    0    0    0  0.00000000000E+00  0.00000000000E+00  0.54999999763E+01  0.55000000000E+01  0.51109989000E-03 0. -1.
     -623   -1    0    0    0    0  0.00000000000E+00  0.00000000000E+00  0.93234578044E-11  0.17124000000E+03  0.17124000000E+03 0. -1.
       11    1    1    2    0    0  0.19165166767E-01  0.97690623645E-02  0.25488752837E+00  0.25579415853E+00  0.51109989000E-03 0. -1.
     -623    1    1    2    0    0 -0.12804725049E-01 -0.40055510601E-02  0.16847696089E-02  0.17124000053E+03  0.17124000000E+03 0. -1.
     -611    1    1    2    0    0 -0.45060547492E-01  0.95489863285E-02  0.21205129079E+01  0.21210131754E+01  0.51109989000E-03 0.  1.
      611    1    1    2    0    0  0.38700105773E-01 -0.15312497633E-01  0.31229147703E+01  0.31231921322E+01  0.51109989000E-03 0. -1.
</event>
<event>
 6   3  0.2312675E+03  0.9118800E+02  0.7818608E-02  0.1180000E+00
       11   -1    0    0    0    0  0.00000000000E+00  0.00000000000E+00  0.54999999763E+01  0.55000000000E+01  0.51109989000E-03 0.  1.
     -623   -1    0    0    0    0  0.00000000000E+00  0.00000000000E+00  0.93234578044E-11  0.17124000000E+03  0.17124000000E+03 0.  1.
       11    1    1    2    0    0  0.81697446941E-04 -0.10929250448E-01  0.16234101443E+00  0.16270931558E+00  0.51109989000E-03 0.  1.
     -623    1    1    2    0    0  0.65206122671E-01  0.12862107981E-01  0.90594236986E-03  0.17124001290E+03  0.17124000000E+03 0.  1.
     -611    1    1    2    0    0 -0.36709173476E-01 -0.18259741034E-01  0.33681699895E+01  0.33684195583E+01  0.51109989000E-03 0.  1.
      611    1    1    2    0    0 -0.28578646646E-01  0.16326883500E-01  0.19685830303E+01  0.19688582261E+01  0.51109989000E-03 0. -1.
</event>
<event>
 6   3  0.2312675E+03  0.9118800E+02  0.7818608E-02  0.1180000E+00
       11   -1    0    0    0    0  0.00000000000E+00  0.00000000000E+00  0.54999999763E+01  0.55000000000E+01  0.51109989000E-03 0. -1.
     -623   -1    0    0    0    0  0.00000000000E+00  0.00000000000E+00  0.93234578044E-11  0.17124000000E+03  0.17124000000E+03 0. -1.
       11    1    1    2    0    0  0.10333847399E-02  0.12914392166E-01  0.40157621026E-02  0.13573392258E-01  0.51109989000E-03 0. -1.
     -623    1    1    2    0    0 -0.26555336229E-02 -0.32904459650E-02  0.17959282979E-01  0.17124000099E+03  0.17124000000E+03 0. -1.
     -611    1    1    2    0    0 -0.67591021272E-01  0.12931987890E+00  0.29959003544E+01  0.29994518452E+01  0.51109989000E-03 0. -1.
      611    1    1    2    0    0  0.69213170155E-01 -0.13894382510E+00  0.24821245768E+01  0.24869737685E+01  0.51109989000E-03 0.  1.
</event>
<event>
 6   3  0.2312675E+03  0.9118800E+02  0.7818608E-02  0.1180000E+00
       11   -1    0    0    0    0  0.00000000000E+00  0.00000000000E+00  0.54999999763E+01  0.55000000000E+01  0.51109989000E-03 0. -1.
     -623   -1    0    0    0    0  0.00000000000E+00  0.00000000000E+00  0.93234578044E-11  0.17124000000E+03  0.17124000000E+03 0.  1.
       11    1    1    2    0    0 -0.16226417979E-01 -0.81678441695E-02  0.77984785243E+00  0.78005957752E+00  0.51109989000E-03 0. -1.
     -623    1    1    2    0    0 -0.34353132786E-01  0.10149254921E-01  0.48782234765E-03  0.17124000375E+03  0.17124000000E+03 0.  1.
     -611    1    1    2    0    0  0.68747735554E-02  0.61531723051E-03  0.64292091316E+00  0.64295816577E+00  0.51109989000E-03 0. -1.
      611    1    1    2    0    0  0.43704777228E-01 -0.25967279830E-02  0.40767433900E+01  0.40769785110E+01  0.51109989000E-03 0. -1.
</event>
<event>
 6   3  0.2312675E+03  0.9118800E+02  0.7818608E-02  0.1180000E+00
       11   -1    0    0    0    0  0.00000000000E+00  0.00000000000E+00  0.54999999763E+01  0.55000000000E+01  0.51109989000E-03 0.  1.
     -623   -1    0    0    0    0  0.00000000000E+00  0.00000000000E+00  0.93234578044E-11  0.17124000000E+03  0.17124000000E+03 0. -1.
       11    1    1    2    0    0  0.62559019057E-02  0.13272208302E-02  0.63766768870E-02  0.90454991573E-02  0.51109989000E-03 0.  1.
     -623    1    1    2    0    0  0.38071837091E-01 -0.23497425183E-01  0.46360691748E-02  0.17124000591E+03  0.17124000000E+03 0. -1.
     -611    1    1    2    0    0  0.20844310086E-01  0.43427934660E-01  0.79352097566E+00  0.79498193112E+00  0.51109989000E-03 0. -1.
      611    1    1    2    0    0 -0.65172049083E-01 -0.21257730307E-01  0.46954662546E+01  0.46959666626E+01  0.51109989000E-03 0.  1.
</event>
<event>
 6   3  0.2312675E+03  0.9118800E+02  0.7818608E-02  0.1180000E+00
       11   -1    0    0    0    0  0.00000000000E+00  0.00000000000E+00  0.54999999763E+01  0.55000000000E+01  0.51109989000E-03 0.  1.
     -623   -1    0    0    0    0  0.00000000000E+00  0.00000000000E+00  0.93234578044E-11  0.17124000000E+03  0.17124000000E+03 0.  1.
       11    1    1    2    0    0  0.90892705010E-03  0.61493695314E-03  0.53856526140E-02  0.55200337875E-02  0.51109989000E-03 0.  1.
     -623    1    1    2    0    0 -0.25025113527E-02 -0.33648401956E-02  0.60680169292E-03  0.17124000005E+03  0.17124000000E+03 0.  1.
     -611    1    1    2    0    0 -0.34807874014E-01  0.62812751327E-02  0.25580012724E+01  0.25582458469E+01  0.51109989000E-03 0.  1.
      611    1    1    2    0    0  0.36401458317E-01 -0.35313718903E-02  0.29360062495E+01  0.29362340668E+01  0.51109989000E-03 0. -1.
</event>
<event>
 6   3  0.2312675E+03  0.9118800E+02  0.7818608E-02  0.1180000E+00
       11   -1    0    0    0    0  0.00000000000E+00  0.00000000000E+00  0.54999999763E+01  0.55000000000E+01  0.51109989000E-03 0. -1.
     -623   -1    0    0    0    0  0.00000000000E+00  0.00000000000E+00  0.93234578044E-11  0.17124000000E+03  0.17124000000E+03 0. -1.
       11    1    1    2    0    0  0.59481495459E-01  0.11751176157E-01  0.59985425560E-01  0.85291564330E-01  0.51109989000E-03 0. -1.
     -623    1    1    2    0    0  0.61534441930E-01  0.15110829323E-01  0.26989500987E-01  0.17124001385E+03  0.17124000000E+03 0. -1.
     -611    1    1    2    0    0 -0.72906144366E-01 -0.60587306953E-02  0.40522301084E+01  0.40528904657E+01  0.51109989000E-03 0. -1.
      611    1    1    2    0    0 -0.48109793023E-01 -0.20803274785E-01  0.13607949413E+01  0.13618041203E+01  0.51109989000E-03 0.  1.
</event>
<event>
 6   3  0.2312675E+03  0.9118800E+02  0.7818608E-02  0.1180000E+00
       11   -1    0    0    0    0  0.00000000000E+00  0.00000000000E+00  0.54999999763E+01  0.55000000000E+01  0.51109989000E-03 0. -1.
     -623   -1    0    0    0    0  0.00000000000E+00  0.00000000000E+00  0.93234578044E-11  0.17124000000E+03  0.17124000000E+03 0.  1.
       11    1    1    2    0    0  0.44034155176E-01  0.58489078308E-01  0.17517781080E+00  0.18986180691E+00  0.51109989000E-03 0. -1.
     -623    1    1    2    0    0  0.18647962374E-01  0.31680683373E-01  0.18931920949E-01  0.17124000499E+03  0.17124000000E+03 0.  1.
     -611    1    1    2    0    0 -0.11080335545E+00 -0.14422541373E-01  0.20840656548E+01  0.20870590093E+01  0.51109989000E-03 0.  1.
      611    1    1    2    0    0  0.48121237896E-01 -0.75747220308E-01  0.32218245897E+01  0.32230741913E+01  0.51109989000E-03 0. -1.
</event>
<event>
 6   3  0.2312675E+03  0.9118800E+02  0.7818608E-02  0.1180000E+00
       11   -1    0    0    0    0  0.00000000000E+00  0.00000000000E+00  0.54999999763E+01  0.55000000000E+01  0.51109989000E-03 0. -1.
     -623   -1    0    0    0    0  0.00000000000E+00  0.00000000000E+00  0.93234578044E-11  0.17124000000E+03  0.17124000000E+03 0.  1.
       11    1    1    2    0    0  0.46454474062E-01  0.70062178103E-02  0.39403206025E+00  0.39682317344E+00  0.51109989000E-03 0. -1.
     -623    1    1    2    0    0  0.16217905412E-01  0.10659410523E-01  0.32110690269E-02  0.17124000113E+03  0.17124000000E+03 0.  1.
     -611    1    1    2    0    0 -0.73625608175E-02 -0.26297203411E-03  0.54701820595E+00  0.54706805365E+00  0.51109989000E-03 0.  1.
      611    1    1    2    0    0 -0.55309818656E-01 -0.17402656299E-01  0.45557386410E+01  0.45561076430E+01  0.51109989000E-03 0. -1.
</event>
<event>
 6   3  0.2312675E+03  0.9118800E+02  0.7818608E-02  0.1180000E+00
       11   -1    0    0    0    0  0.00000000000E+00  0.00000000000E+00  0.54999999763E+01  0.55000000000E+01  0.51109989000E-03 0.  1.
     -623   -1    0    0    0    0  0.00000000000E+00  0.00000000000E+00  0.93234578044E-11  0.17124000000E+03  0.17124000000E+03 0. -1.
       11    1    1    2    0    0  0.21326035130E-01 -0.12627842909E-02  0.35453898265E+00  0.35518241207E+00  0.51109989000E-03 0.  1.
     -623    1    1    2    0    0  0.39935661026E-01  0.65010685373E-01  0.14203686896E-02  0.17124001700E+03  0.17124000000E+03 0. -1.
     -611    1    1    2    0    0 -0.22212589314E-01 -0.23388603891E-01  0.19053280871E+01  0.19056011667E+01  0.51109989000E-03 0. -1.
      611    1    1    2    0    0 -0.39049106893E-01 -0.40359297243E-01  0.32387125421E+01  0.32391994223E+01  0.51109989000E-03 0.  1.
</event>
<event>
 6   3  0.2312675E+03  0.9118800E+02  0.7818608E-02  0.1180000E+00
       11   -1    0    0    0    0  0.00000000000E+00  0.00000000000E+00  0.54999999763E+01  0.55000000000E+01  0.51109989000E-03 0.  1.
     -623   -1    0    0    0    0  0.00000000000E+00  0.00000000000E+00  0.93234578044E-11  0.17124000000E+03  0.17124000000E+03 0.  1.
       11    1    1    2    0    0 -0.11167600233E-02 -0.23944748274E-01  0.44558145740E+00  0.44622605764E+00  0.51109989000E-03 0.  1.
     -623    1    1    2    0    0  0.24449707432E-01 -0.23322467826E-02  0.39899029295E-02  0.17124000181E+03  0.17124000000E+03 0.  1.
     -611    1    1    2    0    0 -0.97719698907E-01  0.28114961230E-01  0.36002326418E+01  0.36016683533E+01  0.51109989000E-03 0.  1.
      611    1    1    2    0    0  0.74386751499E-01 -0.18379661731E-02  0.14501959742E+01  0.14521037813E+01  0.51109989000E-03 0. -1.
</event>
<event>
 6   3  0.2312675E+03  0.9118800E+02  0.7818608E-02  0.1180000E+00
       11   -1    0    0    0    0  0.00000000000E+00  0.00000000000E+00  0.54999999763E+01  0.55000000000E+01  0.51109989000E-03 0.  1.
     -623   -1    0    0    0    0  0.00000000000E+00  0.00000000000E+00  0.93234578044E-11  0.17124000000E+03  0.17124000000E+03 0. -1.
       11    1    1    2    0    0  0.50669989190E-01 -0.84376954394E-01  0.71702312950E+00  0.72374674279E+00  0.51109989000E-03 0.  1.
     -623    1    1    2    0    0  0.21959749050E-01 -0.56739391749E-02  0.82296760877E-02  0.17124000170E+03  0.17124000000E+03 0. -1.
     -611    1    1    2    0    0 -0.47977100635E-01  0.65560422723E-01  0.27283235308E+01  0.27295328394E+01  0.51109989000E-03 0.  1.
      611    1    1    2    0    0 -0.24652637605E-01  0.24490470846E-01  0.20464236399E+01  0.20467187181E+01  0.51109989000E-03 0. -1.
</event>
<event>
 6   3  0.2312675E+03  0.9118800E+02  0.7818608E-02  0.1180000E+00
       11   -1    0    0    0    0  0.00000000000E+00  0.00000000000E+00  0.54999999763E+01  0.55000000000E+01  0.51109989000E-03 0.  1.
     -623   -1    0    0    0    0  0.00000000000E+00  0.00000000000E+00  0.93234578044E-11  0.17124000000E+03  0.17124000000E+03 0. -1.
       11    1    1    2    0    0 -0.64362297701E-01  0.64707218928E-01  0.58636029317E+00  0.59342074802E+00  0.51109989000E-03 0.  1.
     -623    1    1    2    0    0  0.28869892590E-02  0.16115635568E-01  0.81125065069E-02  0.17124000097E+03  0.17124000000E+03 0. -1.
     -611    1    1    2    0    0  0.31626776978E-01 -0.41611580318E-01  0.25479964689E+01  0.25485325275E+01  0.51109989000E-03 0.  1.
      611    1    1    2    0    0  0.29848531492E-01 -0.39211274216E-01  0.23575307099E+01  0.23580457520E+01  0.51109989000E-03 0.  1.
</event>
<event>
 6   3  0.2312675E+03  0.9118800E+02  0.7818608E-02  0.1180000E+00
       11   -1    0    0    0    0  0.00000000000E+00  0.00000000000E+00  0.54999999763E+01  0.55000000000E+01  0.51109989000E-03 0.  1.
     -623   -1    0    0    0    0  0.00000000000E+00  0.00000000000E+00  0.93234578044E-11  0.17124000000E+03  0.17124000000E+03 0.  1.
       11    1    1    2    0    0 -0.83752519613E-01  0.25625020236E-02  0.18423472544E+00  0.20239502523E+00  0.51109989000E-03 0.  1.
     -623    1    1    2    0    0 -0.12964395981E-01 -0.19257544847E-01  0.19072837590E-01  0.17124000264E+03  0.17124000000E+03 0.  1.
     -611    1    1    2    0    0  0.23572274412E-01  0.41940077920E-02  0.13481084575E+01  0.13483211473E+01  0.51109989000E-03 0. -1.
      611    1    1    2    0    0  0.73144641202E-01  0.12501035035E-01  0.39485839569E+01  0.39492811929E+01  0.51109989000E-03 0.  1.
</event>
<event>
 6   3  0.2312675E+03  0.9118800E+02  0.7818608E-02  0.1180000E+00
       11   -1    0    0    0    0  0.00000000000E+00  0.00000000000E+00  0.54999999763E+01  0.55000000000E+01  0.51109989000E-03 0.  1.
     -623   -1    0    0    0    0  0.00000000000E+00  0.00000000000E+00  0.93234578044E-11  0.17124000000E+03  0.17124000000E+03 0.  1.
       11    1    1    2    0    0 -0.23007958467E-01  0.52146946873E-02  0.10136814050E+01  0.10139560203E+01  0.51109989000E-03 0.  1.
     -623    1    1    2    0    0  0.11606287768E+00 -0.17172056853E-01  0.12990632457E-02  0.17124004020E+03  0.17124000000E+03 0.  1.
     -611    1    1    2    0    0 -0.63978626686E-01  0.59439043646E-02  0.31050870430E+01  0.31057518253E+01  0.51109989000E-03 0.  1.
      611    1    1    2    0    0 -0.29076292118E-01  0.60134577402E-02  0.13799324455E+01  0.13802519364E+01  0.51109989000E-03 0. -1.
</event>
<event>
 6   3  0.2312675E+03  0.9118800E+02  0.7818608E-02  0.1180000E+00
       11   -1    0    0    0    0  0.00000000000E+00  0.00000000000E+00  0.54999999763E+01  0.55000000000E+01  0.51109989000E-03 0. -1.
     -623   -1    0    0    0    0  0.00000000000E+00  0.00000000000E+00  0.93234578044E-11  0.17124000000E+03  0.17124000000E+03 0.  1.
       11    1    1    2    0    0 -0.37862794921E-02  0.73104859617E-02  0.52912119608E-01  0.53551216064E-01  0.51109989000E-03 0. -1.
     -623    1    1    2    0    0  0.73926034960E-02 -0.19573442787E-02  0.12707999429E-02  0.17124000018E+03  0.17124000000E+03 0.  1.
     -611    1    1    2    0    0 -0.41871509449E-01  0.35224112491E-02  0.22735926535E+01  0.22739809687E+01  0.51109989000E-03 0.  1.
      611    1    1    2    0    0  0.38265185445E-01 -0.88755529321E-02  0.31722244032E+01  0.31724676398E+01  0.51109989000E-03 0. -1.
</event>
<event>
 6   3  0.4048351E+03  0.9118800E+02  0.7818608E-02  0.1180000E+00
       11   -1    0    0    0    0  0.00000000000E+00  0.00000000000E+00  0.54999999763E+01  0.55000000000E+01  0.51109989000E-03 0.  1.
     -623   -1    0    0    0    0  0.00000000000E+00  0.00000000000E+00  0.93234578044E-11  0.17124000000E+03  0.17124000000E+03 0. -1.
       11    1    1    2    0    0  0.17582980233E-02 -0.15668103115E-02  0.30677285051E-02  0.39011136576E-02  0.51109989000E-03 0.  1.
     -623    1    1    2    0    0 -0.16716981719E-02  0.28294832406E-02  0.18443637940E-02  0.17124000004E+03  0.17124000000E+03 0. -1.
     -611    1    1    2    0    0 -0.38162898159E-01  0.30430860187E-01  0.37182365489E+01  0.37185569430E+01  0.51109989000E-03 0.  1.
      611    1    1    2    0    0  0.38076298308E-01 -0.31693533116E-01  0.17768513351E+01  0.17775419018E+01  0.51109989000E-03 0. -1.
</event>
<event>
 6   3  0.2312675E+03  0.9118800E+02  0.7818608E-02  0.1180000E+00
       11   -1    0    0    0    0  0.00000000000E+00  0.00000000000E+00  0.54999999763E+01  0.55000000000E+01  0.51109989000E-03 0.  1.
     -623   -1    0    0    0    0  0.00000000000E+00  0.00000000000E+00  0.93234578044E-11  0.17124000000E+03  0.17124000000E+03 0.  1.
       11    1    1    2    0    0  0.82999297654E-02  0.12567990577E-01  0.19190310380E+00  0.19249391079E+00  0.51109989000E-03 0.  1.
     -623    1    1    2    0    0 -0.19406851528E-02 -0.19323819325E-01  0.33110403161E-02  0.17124000113E+03  0.17124000000E+03 0.  1.
     -611    1    1    2    0    0 -0.74654025430E-01  0.45966287527E-01  0.22577048226E+01  0.22594064376E+01  0.51109989000E-03 0. -1.
      611    1    1    2    0    0  0.68294780818E-01 -0.39210458779E-01  0.30470810096E+01  0.30480985183E+01  0.51109989000E-03 0.  1.
</event>
<event>
 6   3  0.2312675E+03  0.9118800E+02  0.7818608E-02  0.1180000E+00
       11   -1    0    0    0    0  0.00000000000E+00  0.00000000000E+00  0.54999999763E+01  0.55000000000E+01  0.51109989000E-03 0. -1.
     -623   -1    0    0    0    0  0.00000000000E+00  0.00000000000E+00  0.93234578044E-11  0.17124000000E+03  0.17124000000E+03 0. -1.
       11    1    1    2    0    0  0.58527327084E-02  0.50987610811E-02  0.71388963789E-01  0.71811539593E-01  0.51109989000E-03 0. -1.
     -623    1    1    2    0    0 -0.97492165224E-02  0.10913937935E-01  0.27751495786E-02  0.17124000065E+03  0.17124000000E+03 0. -1.
     -611    1    1    2    0    0 -0.47665350601E-01  0.46117910896E-01  0.14311818223E+01  0.14327178777E+01  0.51109989000E-03 0.  1.
      611    1    1    2    0    0  0.51561834415E-01 -0.62130609912E-01  0.39946540405E+01  0.39954699348E+01  0.51109989000E-03 0. -1.
</event>
<event>
 6   3  0.2312675E+03  0.9118800E+02  0.7818608E-02  0.1180000E+00
       11   -1    0    0    0    0  0.00000000000E+00  0.00000000000E+00  0.54999999763E+01  0.55000000000E+01  0.51109989000E-03 0. -1.
     -623   -1    0    0    0    0  0.00000000000E+00  0.00000000000E+00  0.93234578044E-11  0.17124000000E+03  0.17124000000E+03 0. -1.
       11    1    1    2    0    0 -0.64404171700E-01 -0.65050532723E-01  0.10066044799E+01  0.10107582843E+01  0.51109989000E-03 0. -1.
     -623    1    1    2    0    0  0.71268257356E-02  0.15598467641E-01  0.48227858515E-02  0.17124000093E+03  0.17124000000E+03 0. -1.
     -611    1    1    2    0    0  0.30888861085E-01  0.20783111794E-01  0.25954904676E+01  0.25957575172E+01  0.51109989000E-03 0.  1.
      611    1    1    2    0    0  0.26388484880E-01  0.28668953288E-01  0.18930822429E+01  0.18934832718E+01  0.51109989000E-03 0. -1.
</event>
<event>
 6   3  0.2312675E+03  0.9118800E+02  0.7818608E-02  0.1180000E+00
       11   -1    0    0    0    0  0.00000000000E+00  0.00000000000E+00  0.54999999763E+01  0.55000000000E+01  0.51109989000E-03 0.  1.
     -623   -1    0    0    0    0  0.00000000000E+00  0.00000000000E+00  0.93234578044E-11  0.17124000000E+03  0.17124000000E+03 0. -1.
       11    1    1    2    0    0 -0.47221338663E-03 -0.17972949463E-02  0.60116415249E-02  0.63130271288E-02  0.51109989000E-03 0.  1.
     -623    1    1    2    0    0  0.21132439036E-02  0.66709171677E-03  0.11712675807E-02  0.17124000002E+03  0.17124000000E+03 0. -1.
     -611    1    1    2    0    0 -0.48931102844E-01 -0.26926860369E-03  0.32724081990E+01  0.32727740538E+01  0.51109989000E-03 0.  1.
      611    1    1    2    0    0  0.47290072327E-01  0.13994718333E-02  0.22204088681E+01  0.22209129007E+01  0.51109989000E-03 0. -1.
</event>
<event>
 6   3  0.2312675E+03  0.9118800E+02  0.7818608E-02  0.1180000E+00
       11   -1    0    0    0    0  0.00000000000E+00  0.00000000000E+00  0.54999999763E+01  0.55000000000E+01  0.51109989000E-03 0. -1.
     -623   -1    0    0    0    0  0.00000000000E+00  0.00000000000E+00  0.93234578044E-11  0.17124000000E+03  0.17124000000E+03 0.  1.
       11    1    1    2    0    0 -0.98714887648E-02  0.16849356428E-01  0.86685499447E+00  0.86707507735E+00  0.51109989000E-03 0. -1.
     -623    1    1    2    0    0  0.11860608582E-01 -0.16217778068E-01  0.77900303375E-03  0.17124000118E+03  0.17124000000E+03 0.  1.
     -611    1    1    2    0    0 -0.36074162752E-01 -0.26011550473E-02  0.18986550479E+01  0.18989995691E+01  0.51109989000E-03 0.  1.
      611    1    1    2    0    0  0.34085042935E-01  0.19695766865E-02  0.27337109308E+01  0.27339241730E+01  0.51109989000E-03 0. -1.
</event>
<event>
 6   3  0.2312675E+03  0.9118800E+02  0.7818608E-02  0.1180000E+00
       11   -1    0    0    0    0  0.00000000000E+00  0.00000000000E+00  0.54999999763E+01  0.55000000000E+01  0.51109989000E-03 0. -1.
     -623   -1    0    0    0    0  0.00000000000E+00  0.00000000000E+00  0.93234578044E-11  0.17124000000E+03  0.17124000000E+03 0.  1.
       11    1    1    2    0    0 -0.55238674833E-01  0.43543683979E-01  0.10532932924E+01  0.10556393251E+01  0.51109989000E-03 0. -1.
     -623    1    1    2    0    0 -0.20874633801E-01  0.15683428113E-01  0.33977370586E-02  0.17124000202E+03  0.17124000000E+03 0.  1.
     -611    1    1    2    0    0  0.64863054961E-01 -0.52679019959E-01  0.38422672567E+01  0.38431757998E+01  0.51109989000E-03 0. -1.
      611    1    1    2    0    0  0.11250253676E-01 -0.65480921355E-02  0.60104169025E+00  0.60118285102E+00  0.51109989000E-03 0. -1.
</event>
<event>
 6   3  0.2312675E+03  0.9118800E+02  0.7818608E-02  0.1180000E+00
       11   -1    0    0    0    0  0.00000000000E+00  0.00000000000E+00  0.54999999763E+01  0.55000000000E+01  0.51109989000E-03 0.  1.
     -623   -1    0    0    0    0  0.00000000000E+00  0.00000000000E+00  0.93234578044E-11  0.17124000000E+03  0.17124000000E+03 0. -1.
       11    1    1    2    0    0  0.87052428442E-01 -0.68455819335E-02  0.46751237933E+00  0.47559759602E+00  0.51109989000E-03 0.  1.
     -623    1    1    2    0    0 -0.13825506864E-01  0.14949584856E-01  0.86271331130E-02  0.17124000143E+03  0.17124000000E+03 0. -1.
     -611    1    1    2    0    0 -0.39923264011E-01 -0.50323683674E-02  0.27737113022E+01  0.27740032158E+01  0.51109989000E-03 0.  1.
      611    1    1    2    0    0 -0.33303657492E-01 -0.30716345471E-02  0.22501491564E+01  0.22503977551E+01  0.51109989000E-03 0. -1.
</event>
<event>
 6   3  0.2312675E+03  0.9118800E+02  0.7818608E-02  0.1180000E+00
       11   -1    0    0    0    0  0.00000000000E+00  0.00000000000E+00  0.54999999763E+01  0.55000000000E+01  0.51109989000E-03 0.  1.
     -623   -1    0    0    0    0  0.00000000000E+00  0.00000000000E+00  0.93234578044E-11  0.17124000000E+03  0.17124000000E+03 0. -1.
       11    1    1    2    0    0 -0.59996014559E-03  0.36375765872E-02  0.84193054641E-01  0.84275284565E-01  0.51109989000E-03 0.  1.
     -623    1    1    2    0    0 -0.19550924875E-02  0.20560804940E-02  0.11705244435E-02  0.17124000003E+03  0.17124000000E+03 0. -1.
     -611    1    1    2    0    0  0.47356513146E-01  0.22293526842E-01  0.20237977548E+01  0.20244745625E+01  0.51109989000E-03 0. -1.
      611    1    1    2    0    0 -0.44801460512E-01 -0.27987183923E-01  0.33908386424E+01  0.33912501254E+01  0.51109989000E-03 0.  1.
</event>
<event>
 6   3  0.2312675E+03  0.9118800E+02  0.7818608E-02  0.1180000E+00
       11   -1    0    0    0    0  0.00000000000E+00  0.00000000000E+00  0.54999999763E+01  0.55000000000E+01  0.51109989000E-03 0.  1.
     -623   -1    0    0    0    0  0.00000000000E+00  0.00000000000E+00  0.93234578044E-11  0.17124000000E+03  0.17124000000E+03 0. -1.
       11    1    1    2    0    0 -0.63465665498E-01 -0.31764922322E-01  0.81174762739E+00  0.81484438562E+00  0.51109989000E-03 0.  1.
     -623    1    1    2    0    0 -0.39665441206E-02 -0.80802262598E-02  0.37521247557E-02  0.17124000028E+03  0.17124000000E+03 0. -1.
     -611    1    1    2    0    0  0.28839262816E-01  0.17711852198E-01  0.19941912023E+01  0.19944784344E+01  0.51109989000E-03 0.  1.
      611    1    1    2    0    0  0.38592946834E-01  0.22133296403E-01  0.26903090241E+01  0.26906769046E+01  0.51109989000E-03 0.  1.
</event>
<event>
 6   3  0.2312675E+03  0.9118800E+02  0.7818608E-02  0.1180000E+00
       11   -1    0    0    0    0  0.00000000000E+00  0.00000000000E+00  0.54999999763E+01  0.55000000000E+01  0.51109989000E-03 0.  1.
     -623   -1    0    0    0    0  0.00000000000E+00  0.00000000000E+00  0.93234578044E-11  0.17124000000E+03  0.17124000000E+03 0. -1.
       11    1    1    2    0    0  0.71918336108E-02  0.12937628954E-01  0.10545064525E+01  0.10546104610E+01  0.51109989000E-03 0.  1.
     -623    1    1    2    0    0 -0.54864650151E-01 -0.75286726443E-01  0.83230420942E-03  0.17124002534E+03  0.17124000000E+03 0. -1.
     -611    1    1    2    0    0  0.42194163856E-01  0.51626823246E-01  0.38970131047E+01  0.38975834918E+01  0.51109989000E-03 0.  1.
      611    1    1    2    0    0  0.54786526176E-02  0.10722274153E-01  0.54764810822E+00  0.54778069924E+00  0.51109989000E-03 0. -1.
</event>
<event>
 6   3  0.2312675E+03  0.9118800E+02  0.7818608E-02  0.1180000E+00
       11   -1    0    0    0    0  0.00000000000E+00  0.00000000000E+00  0.54999999763E+01  0.55000000000E+01  0.51109989000E-03 0. -1.
     -623   -1    0    0    0    0  0.00000000000E+00  0.00000000000E+00  0.93234578044E-11  0.17124000000E+03  0.17124000000E+03 0.  1.
       11    1    1    2    0    0 -0.15114683954E-01  0.10528867376E+00  0.99717233705E+00  0.10028295416E+01  0.51109989000E-03 0. -1.
     -623    1    1    2    0    0 -0.82711919025E-01 -0.15654946393E-01  0.76360995924E-02  0.17124002086E+03  0.17124000000E+03 0.  1.
     -611    1    1    2    0    0  0.44395888883E-01 -0.40890789807E-01  0.20203768977E+01  0.20212783385E+01  0.51109989000E-03 0. -1.
      611    1    1    2    0    0  0.53430714140E-01 -0.48742937601E-01  0.24748146439E+01  0.24758712604E+01  0.51109989000E-03 0. -1.
</event>
<event>
 6   3  0.2312675E+03  0.9118800E+02  0.7818608E-02  0.1180000E+00
       11   -1    0    0    0    0  0.00000000000E+00  0.00000000000E+00  0.54999999763E+01  0.55000000000E+01  0.51109989000E-03 0. -1.
     -623   -1    0    0    0    0  0.00000000000E+00  0.00000000000E+00  0.93234578044E-11  0.17124000000E+03  0.17124000000E+03 0.  1.
       11    1    1    2    0    0  0.11348873293E-02  0.19341156428E-01  0.72386681839E+00  0.72412623228E+00  0.51109989000E-03 0. -1.
     -623    1    1    2    0    0  0.84357929612E-03  0.38970473644E-02  0.21404982078E-02  0.17124000006E+03  0.17124000000E+03 0.  1.
     -611    1    1    2    0    0 -0.49417956453E-01 -0.22780674352E-01  0.93153365563E+00  0.93312180680E+00  0.51109989000E-03 0.  1.
      611    1    1    2    0    0  0.47439489827E-01 -0.45752943996E-03  0.38424590040E+01  0.38427519011E+01  0.51109989000E-03 0. -1.
</event>
<event>
 6   3  0.2312675E+03  0.9118800E+02  0.7818608E-02  0.1180000E+00
       11   -1    0    0    0    0  0.00000000000E+00  0.00000000000E+00  0.54999999763E+01  0.55000000000E+01  0.51109989000E-03 0. -1.
     -623   -1    0    0    0    0  0.00000000000E+00  0.00000000000E+00  0.93234578044E-11  0.17124000000E+03  0.17124000000E+03 0.  1.
       11    1    1    2    0    0 -0.58125964737E-02  0.21347575718E-01  0.20646755525E+00  0.20765022962E+00  0.51109989000E-03 0. -1.
     -623    1    1    2    0    0 -0.10839214319E-02 -0.37465452310E-03  0.27515893391E-02  0.17124000003E+03  0.17124000000E+03 0.  1.
     -611    1    1    2    0    0 -0.48743567587E-01  0.43934270266E-02  0.10624634091E+01  0.10635901440E+01  0.51109989000E-03 0.  1.
      611    1    1    2    0    0  0.55640085493E-01 -0.25366348221E-01  0.42283174225E+01  0.42287596004E+01  0.51109989000E-03 0. -1.
</event>
<event>
 6   3  0.2312675E+03  0.9118800E+02  0.7818608E-02  0.1180000E+00
       11   -1    0    0    0    0  0.00000000000E+00  0.00000000000E+00  0.54999999763E+01  0.55000000000E+01  0.51109989000E-03 0. -1.
     -623   -1    0    0    0    0  0.00000000000E+00  0.00000000000E+00  0.93234578044E-11  0.17124000000E+03  0.17124000000E+03 0. -1.
       11    1    1    2    0    0 -0.21766911175E-02  0.16268796894E-02  0.16067265718E+00  0.16069644897E+00  0.51109989000E-03 0.  1.
     -623    1    1    2    0    0  0.68030699336E-01 -0.43464682016E-01  0.61686717939E-03  0.17124001903E+03  0.17124000000E+03 0. -1.
     -611    1    1    2    0    0 -0.52332868930E-01  0.31378385354E-01  0.43091737985E+01  0.43096058311E+01  0.51109989000E-03 0. -1.
      611    1    1    2    0    0 -0.13521139661E-01  0.10459417211E-01  0.10295366835E+01  0.10296787191E+01  0.51109989000E-03 0. -1.
</event>
<event>
 6   3  0.2312675E+03  0.9118800E+02  0.7818608E-02  0.1180000E+00
       11   -1    0    0    0    0  0.00000000000E+00  0.00000000000E+00  0.54999999763E+01  0.55000000000E+01  0.51109989000E-03 0.  1.
     -623   -1    0    0    0    0  0.00000000000E+00  0.00000000000E+00  0.93234578044E-11  0.17124000000E+03  0.17124000000E+03 0. -1.
       11    1    1    2    0    0  0.77119351120E-02  0.12468450189E-01  0.12047236343E+00  0.12136221721E+00  0.51109989000E-03 0.  1.
     -623    1    1    2    0    0 -0.11162004389E-01  0.20627649848E-02  0.13158713809E-02  0.17124000038E+03  0.17124000000E+03 0. -1.
     -611    1    1    2    0    0  0.29917761511E-01 -0.25127041817E-01  0.29798150854E+01  0.29800712483E+01  0.51109989000E-03 0.  1.
      611    1    1    2    0    0 -0.26467692234E-01  0.10595826643E-01  0.23983966560E+01  0.23985661532E+01  0.51109989000E-03 0. -1.
</event>
<event>
 6   3  0.2312675E+03  0.9118800E+02  0.7818608E-02  0.1180000E+00
       11   -1    0    0    0    0  0.00000000000E+00  0.00000000000E+00  0.54999999763E+01  0.55000000000E+01  0.51109989000E-03 0.  1.
     -623   -1    0    0    0    0  0.00000000000E+00  0.00000000000E+00  0.93234578044E-11  0.17124000000E+03  0.17124000000E+03 0. -1.
       11    1    1    2    0    0  0.16156519683E-01 -0.17410602714E-01  0.31451048704E+00  0.31540651530E+00  0.51109989000E-03 0.  1.
     -623    1    1    2    0    0  0.14401409530E-02  0.68427915322E-02  0.56449165297E-02  0.17124000024E+03  0.17124000000E+03 0. -1.
     -611    1    1    2    0    0 -0.61617884006E-01  0.10154436882E+00  0.31412478327E+01  0.31434926802E+01  0.51109989000E-03 0.  1.
      611    1    1    2    0    0  0.44021223370E-01 -0.90976557639E-01  0.20385967399E+01  0.20411005687E+01  0.51109989000E-03 0. -1.
</event>
<event>
 6   3  0.2312675E+03  0.9118800E+02  0.7818608E-02  0.1180000E+00
       11   -1    0    0    0    0  0.00000000000E+00  0.00000000000E+00  0.54999999763E+01  0.55000000000E+01  0.51109989000E-03 0.  1.
     -623   -1    0    0    0    0  0.00000000000E+00  0.00000000000E+00  0.93234578044E-11  0.17124000000E+03  0.17124000000E+03 0. -1.
       11    1    1    2    0    0 -0.71192459873E-01 -0.67335745269E-01  0.98325413406E+00  0.98812520579E+00  0.51109989000E-03 0.  1.
     -623    1    1    2    0    0  0.18058829501E-02  0.68128712379E-02  0.61216457452E-02  0.17124000025E+03  0.17124000000E+03 0. -1.
     -611    1    1    2    0    0  0.24600806870E-01  0.24161422044E-01  0.73391817190E+00  0.73472792126E+00  0.51109989000E-03 0. -1.
      611    1    1    2    0    0  0.44785770053E-01  0.36361451987E-01  0.37767060245E+01  0.37771466185E+01  0.51109989000E-03 0.  1.
</event>
<event>
 6   3  0.2312675E+03  0.9118800E+02  0.7818608E-02  0.1180000E+00
       11   -1    0    0    0    0  0.00000000000E+00  0.00000000000E+00  0.54999999763E+01  0.55000000000E+01  0.51109989000E-03 0.  1.
     -623   -1    0    0    0    0  0.00000000000E+00  0.00000000000E+00  0.93234578044E-11  0.17124000000E+03  0.17124000000E+03 0. -1.
       11    1    1    2    0    0  0.60252417278E-01 -0.82634801078E-02  0.42249136794E+00  0.42684640809E+00  0.51109989000E-03 0.  1.
     -623    1    1    2    0    0 -0.59229185610E-02 -0.69644728678E-02  0.46693381117E-02  0.17124000031E+03  0.17124000000E+03 0. -1.
     -611    1    1    2    0    0 -0.30586840491E-01  0.91217030666E-02  0.28490896091E+01  0.28492684363E+01  0.51109989000E-03 0.  1.
      611    1    1    2    0    0 -0.23742658283E-01  0.61062499250E-02  0.22237496665E+01  0.22238848532E+01  0.51109989000E-03 0.  1.
</event>
<event>
 6   3  0.2312675E+03  0.9118800E+02  0.7818608E-02  0.1180000E+00
       11   -1    0    0    0    0  0.00000000000E+00  0.00000000000E+00  0.54999999763E+01  0.55000000000E+01  0.51109989000E-03 0. -1.
     -623   -1    0    0    0    0  0.00000000000E+00  0.00000000000E+00  0.93234578044E-11  0.17124000000E+03  0.17124000000E+03 0.  1.
       11    1    1    2    0    0 -0.46946917047E-01 -0.14948645724E-01  0.78320392611E+00  0.78475227054E+00  0.51109989000E-03 0. -1.
     -623    1    1    2    0    0 -0.67323103220E-02 -0.40447990114E-02  0.18924832860E-02  0.17124000019E+03  0.17124000000E+03 0.  1.
     -611    1    1    2    0    0  0.26107823983E-01  0.94556784546E-02  0.22771926649E+01  0.22773620096E+01  0.51109989000E-03 0. -1.
      611    1    1    2    0    0  0.27571403375E-01  0.95377662773E-02  0.24377109010E+01  0.24378855283E+01  0.51109989000E-03 0. -1.
</event>
<event>
 6   3  0.2312675E+03  0.9118800E+02  0.7818608E-02  0.1180000E+00
       11   -1    0    0    0    0  0.00000000000E+00  0.00000000000E+00  0.54999999763E+01  0.55000000000E+01  0.51109989000E-03 0. -1.
     -623   -1    0    0    0    0  0.00000000000E+00  0.00000000000E+00  0.93234578044E-11  0.17124000000E+03  0.17124000000E+03 0.  1.
       11    1    1    2    0    0 -0.46712811682E-01 -0.86041757651E-01  0.71045367949E+00  0.71716801571E+00  0.51109989000E-03 0. -1.
     -623    1    1    2    0    0 -0.20293143146E-01  0.85242195749E-01  0.72073082883E-02  0.17124002257E+03  0.17124000000E+03 0.  1.
     -611    1    1    2    0    0  0.12589898349E-01 -0.57611986885E-03  0.84470501901E+00  0.84479918786E+00  0.51109989000E-03 0.  1.
      611    1    1    2    0    0  0.54416056491E-01  0.13756817708E-02  0.39376339704E+01  0.39380102268E+01  0.51109989000E-03 0. -1.
</event>
<event>
 6   3  0.2312675E+03  0.9118800E+02  0.7818608E-02  0.1180000E+00
       11   -1    0    0    0    0  0.00000000000E+00  0.00000000000E+00  0.54999999763E+01  0.55000000000E+01  0.51109989000E-03 0. -1.
     -623   -1    0    0    0    0  0.00000000000E+00  0.00000000000E+00  0.93234578044E-11  0.17124000000E+03  0.17124000000E+03 0.  1.
       11    1    1    2    0    0  0.47512157868E-01  0.70091702007E-01  0.10769666935E+01  0.10802905961E+01  0.51109989000E-03 0. -1.
     -623    1    1    2    0    0  0.52612948738E-02  0.18824365538E-02  0.43940704333E-02  0.17124000015E+03  0.17124000000E+03 0.  1.
     -611    1    1    2    0    0 -0.23051635010E-01 -0.67726953784E-02  0.14883844362E+01  0.14885784287E+01  0.51109989000E-03 0.  1.
      611    1    1    2    0    0 -0.29721817731E-01 -0.65201443183E-01  0.29302547761E+01  0.29311308276E+01  0.51109989000E-03 0. -1.
</event>
<event>
 6   3  0.2312675E+03  0.9118800E+02  0.7818608E-02  0.1180000E+00
       11   -1    0    0    0    0  0.00000000000E+00  0.00000000000E+00  0.54999999763E+01  0.55000000000E+01  0.51109989000E-03 0.  1.
     -623   -1    0    0    0    0  0.00000000000E+00  0.00000000000E+00  0.93234578044E-11  0.17124000000E+03  0.17124000000E+03 0. -1.
       11    1    1    2    0    0  0.84875739909E-02  0.12896082203E-02  0.18346111897E-01  0.20261861870E-01  0.51109989000E-03 0.  1.
     -623    1    1    2    0    0  0.12503041904E-02 -0.61453976551E-02  0.38782986900E-02  0.17124000016E+03  0.17124000000E+03 0. -1.
     -611    1    1    2    0    0 -0.57867772297E-01  0.38241819510E-01  0.15795140736E+01  0.15810363961E+01  0.51109989000E-03 0.  1.
      611    1    1    2    0    0  0.48129894115E-01 -0.33386030075E-01  0.38982614920E+01  0.38987015832E+01  0.51109989000E-03 0. -1.
</event>
<event>
 6   3  0.2312675E+03  0.9118800E+02  0.7818608E-02  0.1180000E+00
       11   -1    0    0    0    0  0.00000000000E+00  0.00000000000E+00  0.54999999763E+01  0.55000000000E+01  0.51109989000E-03 0.  1.
     -623   -1    0    0    0    0  0.00000000000E+00  0.00000000000E+00  0.93234578044E-11  0.17124000000E+03  0.17124000000E+03 0.  1.
       11    1    1    2    0    0 -0.61398175503E-01 -0.19520047577E-02  0.10957612912E+01  0.10974819428E+01  0.51109989000E-03 0.  1.
     -623    1    1    2    0    0 -0.30304111819E-01  0.27859728494E-01  0.27596628841E-02  0.17124000497E+03  0.17124000000E+03 0.  1.
     -611    1    1    2    0    0  0.28636038326E-01 -0.85316847088E-02  0.12832270476E+01  0.12835749800E+01  0.51109989000E-03 0. -1.
      611    1    1    2    0    0  0.63066248993E-01 -0.17376039027E-01  0.31182519745E+01  0.31189381071E+01  0.51109989000E-03 0.  1.
</event>
<event>
 6   3  0.2312675E+03  0.9118800E+02  0.7818608E-02  0.1180000E+00
       11   -1    0    0    0    0  0.00000000000E+00  0.00000000000E+00  0.54999999763E+01  0.55000000000E+01  0.51109989000E-03 0.  1.
     -623   -1    0    0    0    0  0.00000000000E+00  0.00000000000E+00  0.93234578044E-11  0.17124000000E+03  0.17124000000E+03 0. -1.
       11    1    1    2    0    0 -0.37177112359E-01  0.10414224012E+00  0.71011692526E+00  0.71867520663E+00  0.51109989000E-03 0.  1.
     -623    1    1    2    0    0 -0.26159827104E-01 -0.11437598622E-01  0.98795927225E-02  0.17124000267E+03  0.17124000000E+03 0. -1.
     -611    1    1    2    0    0  0.29134109322E-01 -0.43460368655E-01  0.22440919594E+01  0.22447018919E+01  0.51109989000E-03 0. -1.
      611    1    1    2    0    0  0.34202830170E-01 -0.49244272884E-01  0.25359115011E+01  0.25366202386E+01  0.51109989000E-03 0.  1.
</event>
<event>
 6   3  0.2312675E+03  0.9118800E+02  0.7818608E-02  0.1180000E+00
       11   -1    0    0    0    0  0.00000000000E+00  0.00000000000E+00  0.54999999763E+01  0.55000000000E+01  0.51109989000E-03 0.  1.
     -623   -1    0    0    0    0  0.00000000000E+00  0.00000000000E+00  0.93234578044E-11  0.17124000000E+03  0.17124000000E+03 0.  1.
       11    1    1    2    0    0  0.84236360270E-02  0.18700121338E-01  0.13871832650E+00  0.14022727093E+00  0.51109989000E-03 0.  1.
     -623    1    1    2    0    0  0.43978588228E-02 -0.31747526113E-02  0.47794336025E-02  0.17124000015E+03  0.17124000000E+03 0.  1.
     -611    1    1    2    0    0 -0.72879938189E-01  0.52455468257E-01  0.33760386309E+01  0.33772326186E+01  0.51109989000E-03 0.  1.
      611    1    1    2    0    0  0.60058443339E-01 -0.67980836984E-01  0.19804635853E+01  0.19825399579E+01  0.51109989000E-03 0. -1.
</event>
<event>
 6   3  0.2312675E+03  0.9118800E+02  0.7818608E-02  0.1180000E+00
       11   -1    0    0    0    0  0.00000000000E+00  0.00000000000E+00  0.54999999763E+01  0.55000000000E+01  0.51109989000E-03 0.  1.
     -623   -1    0    0    0    0  0.00000000000E+00  0.00000000000E+00  0.93234578044E-11  0.17124000000E+03  0.17124000000E+03 0. -1.
       11    1    1    2    0    0 -0.37280093110E-02  0.96173610306E-02  0.27792442027E+00  0.27811622803E+00  0.51109989000E-03 0.  1.
     -623    1    1    2    0    0  0.26900793079E-02 -0.11267367703E-01  0.25917886613E-02  0.17124000041E+03  0.17124000000E+03 0. -1.
     -611    1    1    2    0    0 -0.54760330676E-01  0.39640745724E-01  0.39713703436E+01  0.39719457133E+01  0.51109989000E-03 0.  1.
      611    1    1    2    0    0  0.55798260679E-01 -0.37990739051E-01  0.12481134238E+01  0.12499376473E+01  0.51109989000E-03 0. -1.
</event>
<event>
 6   3  0.2312675E+03  0.9118800E+02  0.7818608E-02  0.1180000E+00
       11   -1    0    0    0    0  0.00000000000E+00  0.00000000000E+00  0.54999999763E+01  0.55000000000E+01  0.51109989000E-03 0. -1.
     -623   -1    0    0    0    0  0.00000000000E+00  0.00000000000E+00  0.93234578044E-11  0.17124000000E+03  0.17124000000E+03 0.  1.
       11    1    1    2    0    0 -0.27299717668E-01 -0.84828592336E-02  0.28261711438E+00  0.28405972620E+00  0.51109989000E-03 0. -1.
     -623    1    1    2    0    0 -0.37091492750E-01 -0.89241203932E-03  0.18534960457E-02  0.17124000403E+03  0.17124000000E+03 0.  1.
     -611    1    1    2    0    0  0.40355214518E-01  0.46843265300E-02  0.31842111536E+01  0.31844703513E+01  0.51109989000E-03 0. -1.
      611    1    1    2    0    0  0.24035995908E-01  0.46909447441E-02  0.20313182129E+01  0.20314658937E+01  0.51109989000E-03 0. -1.
</event>
<event>
 6   3  0.2312675E+03  0.9118800E+02  0.7818608E-02  0.1180000E+00
       11   -1    0    0    0    0  0.00000000000E+00  0.00000000000E+00  0.54999999763E+01  0.55000000000E+01  0.51109989000E-03 0. -1.
     -623   -1    0    0    0    0  0.00000000000E+00  0.00000000000E+00  0.93234578044E-11  0.17124000000E+03  0.17124000000E+03 0. -1.
       11    1    1    2    0    0  0.77081646444E-02  0.59148325678E-03  0.38603821610E+00  0.38611595560E+00  0.51109989000E-03 0. -1.
     -623    1    1    2    0    0  0.13926442908E-02 -0.84645571549E-03  0.38981416925E-03  0.17124000001E+03  0.17124000000E+03 0. -1.
     -611    1    1    2    0    0  0.23573340477E-01 -0.19916525499E-02  0.22790120284E+01  0.22791348701E+01  0.51109989000E-03 0. -1.
      611    1    1    2    0    0 -0.32674149412E-01  0.22466250086E-02  0.28345599174E+01  0.28347491660E+01  0.51109989000E-03 0.  1.
</event>
<event>
 6   3  0.2312675E+03  0.9118800E+02  0.7818608E-02  0.1180000E+00
       11   -1    0    0    0    0  0.00000000000E+00  0.00000000000E+00  0.54999999763E+01  0.55000000000E+01  0.51109989000E-03 0. -1.
     -623   -1    0    0    0    0  0.00000000000E+00  0.00000000000E+00  0.93234578044E-11  0.17124000000E+03  0.17124000000E+03 0.  1.
       11    1    1    2    0    0 -0.75970827910E-01  0.57833160480E-01  0.76189925446E+00  0.76785869554E+00  0.51109989000E-03 0. -1.
     -623    1    1    2    0    0 -0.10602521103E-01  0.44835449211E-01  0.79040712049E-02  0.17124000638E+03  0.17124000000E+03 0.  1.
     -611    1    1    2    0    0  0.68804629007E-01 -0.91141046649E-01  0.39453397430E+01  0.39469921100E+01  0.51109989000E-03 0.  1.
      611    1    1    2    0    0  0.17768720006E-01 -0.11527563042E-01  0.78485690763E+00  0.78514281427E+00  0.51109989000E-03 0. -1.
</event>
<event>
 6   3  0.2312675E+03  0.9118800E+02  0.7818608E-02  0.1180000E+00
       11   -1    0    0    0    0  0.00000000000E+00  0.00000000000E+00  0.54999999763E+01  0.55000000000E+01  0.51109989000E-03 0. -1.
     -623   -1    0    0    0    0  0.00000000000E+00  0.00000000000E+00  0.93234578044E-11  0.17124000000E+03  0.17124000000E+03 0.  1.
       11    1    1    2    0    0  0.46109800351E-01  0.28789986755E-01  0.48704046411E+00  0.49006494664E+00  0.51109989000E-03 0. -1.
     -623    1    1    2    0    0  0.13166133160E-01  0.26319944937E-01  0.36812112117E-02  0.17124000257E+03  0.17124000000E+03 0.  1.
     -611    1    1    2    0    0 -0.39774029388E-01 -0.37716791774E-01  0.34226455310E+01  0.34230844603E+01  0.51109989000E-03 0. -1.
      611    1    1    2    0    0 -0.19501904105E-01 -0.17393139901E-01  0.15866327683E+01  0.15868480231E+01  0.51109989000E-03 0.  1.
</event>
<event>
 6   3  0.2312675E+03  0.9118800E+02  0.7818608E-02  0.1180000E+00
       11   -1    0    0    0    0  0.00000000000E+00  0.00000000000E+00  0.54999999763E+01  0.55000000000E+01  0.51109989000E-03 0.  1.
     -623   -1    0    0    0    0  0.00000000000E+00  0.00000000000E+00  0.93234578044E-11  0.17124000000E+03  0.17124000000E+03 0. -1.
       11    1    1    2    0    0 -0.17017401664E-01 -0.27736174443E-01  0.10667775985E+01  0.10672739073E+01  0.51109989000E-03 0.  1.
     -623    1    1    2    0    0 -0.42134479199E-01  0.36420768885E-01  0.91235426849E-03  0.17124000906E+03  0.17124000000E+03 0. -1.
     -611    1    1    2    0    0  0.75914605891E-02  0.67380485268E-04  0.67917245054E+00  0.67921507169E+00  0.51109989000E-03 0. -1.
      611    1    1    2    0    0  0.51560420276E-01 -0.87519749265E-02  0.37531375730E+01  0.37535019617E+01  0.51109989000E-03 0.  1.
</event>
<event>
 6   3  0.2312675E+03  0.9118800E+02  0.7818608E-02  0.1180000E+00
       11   -1    0    0    0    0  0.00000000000E+00  0.00000000000E+00  0.54999999763E+01  0.55000000000E+01  0.51109989000E-03 0. -1.
     -623   -1    0    0    0    0  0.00000000000E+00  0.00000000000E+00  0.93234578044E-11  0.17124000000E+03  0.17124000000E+03 0.  1.
       11    1    1    2    0    0  0.41310797927E-02  0.47419531580E-02  0.16866598294E+00  0.16878396536E+00  0.51109989000E-03 0. -1.
     -623    1    1    2    0    0  0.52198102708E-01  0.28665404400E-01  0.53179935257E-03  0.17124001036E+03  0.17124000000E+03 0.  1.
     -611    1    1    2    0    0 -0.35524421631E-01 -0.22320638054E-01  0.33102007117E+01  0.33104666149E+01  0.51109989000E-03 0. -1.
      611    1    1    2    0    0 -0.20804760871E-01 -0.11086719506E-01  0.20206014825E+01  0.20207390642E+01  0.51109989000E-03 0.  1.
</event>
<event>
 6   3  0.2312675E+03  0.9118800E+02  0.7818608E-02  0.1180000E+00
       11   -1    0    0    0    0  0.00000000000E+00  0.00000000000E+00  0.54999999763E+01  0.55000000000E+01  0.51109989000E-03 0.  1.
     -623   -1    0    0    0    0  0.00000000000E+00  0.00000000000E+00  0.93234578044E-11  0.17124000000E+03  0.17124000000E+03 0.  1.
       11    1    1    2    0    0 -0.25152589586E-01  0.17699704327E-02  0.31372256644E+00  0.31473464296E+00  0.51109989000E-03 0.  1.
     -623    1    1    2    0    0 -0.39981484394E-01 -0.58286948572E-02  0.14339598577E-02  0.17124000477E+03  0.17124000000E+03 0.  1.
     -611    1    1    2    0    0  0.45813523486E-01 -0.54494708696E-03  0.37334184635E+01  0.37336996211E+01  0.51109989000E-03 0.  1.
      611    1    1    2    0    0  0.19320550496E-01  0.46036715116E-02  0.14514249866E+01  0.14515609634E+01  0.51109989000E-03 0. -1.
</event>
<event>
 6   3  0.2312675E+03  0.9118800E+02  0.7818608E-02  0.1180000E+00
       11   -1    0    0    0    0  0.00000000000E+00  0.00000000000E+00  0.54999999763E+01  0.55000000000E+01  0.51109989000E-03 0.  1.
     -623   -1    0    0    0    0  0.00000000000E+00  0.00000000000E+00  0.93234578044E-11  0.17124000000E+03  0.17124000000E+03 0. -1.
       11    1    1    2    0    0 -0.65749911242E-02 -0.56034676885E-01  0.22652973819E+00  0.23345042092E+00  0.51109989000E-03 0.  1.
     -623    1    1    2    0    0 -0.33911970812E-02  0.65205864704E-01  0.19638386751E-01  0.17124001357E+03  0.17124000000E+03 0. -1.
     -611    1    1    2    0    0 -0.13690472544E+00  0.58873852521E-02  0.42190233371E+01  0.42212481264E+01  0.51109989000E-03 0.  1.
      611    1    1    2    0    0  0.14687091365E+00 -0.15058573071E-01  0.10348085143E+01  0.10452878782E+01  0.51109989000E-03 0. -1.
</event>
<event>
 6   3  0.2312675E+03  0.9118800E+02  0.7818608E-02  0.1180000E+00
       11   -1    0    0    0    0  0.00000000000E+00  0.00000000000E+00  0.54999999763E+01  0.55000000000E+01  0.51109989000E-03 0.  1.
     -623   -1    0    0    0    0  0.00000000000E+00  0.00000000000E+00  0.93234578044E-11  0.17124000000E+03  0.17124000000E+03 0. -1.
       11    1    1    2    0    0 -0.40254545799E-02 -0.83698367699E-02  0.12269318985E+00  0.12304527017E+00  0.51109989000E-03 0.  1.
     -623    1    1    2    0    0 -0.49683851898E-02  0.21380541526E-02  0.19861598255E-02  0.17124000010E+03  0.17124000000E+03 0. -1.
     -611    1    1    2    0    0 -0.56934520746E-01  0.19607415124E-02  0.15187963753E+01  0.15198644924E+01  0.51109989000E-03 0.  1.
      611    1    1    2    0    0  0.65928360515E-01  0.42710411049E-02  0.38565242512E+01  0.38570901405E+01  0.51109989000E-03 0. -1.
</event>
<event>
 6   3  0.2312675E+03  0.9118800E+02  0.7818608E-02  0.1180000E+00
       11   -1    0    0    0    0  0.00000000000E+00  0.00000000000E+00  0.54999999763E+01  0.55000000000E+01  0.51109989000E-03 0.  1.
     -623   -1    0    0    0    0  0.00000000000E+00  0.00000000000E+00  0.93234578044E-11  0.17124000000E+03  0.17124000000E+03 0. -1.
       11    1    1    2    0    0  0.21740095716E-01  0.17983853457E-01  0.58654748723E+00  0.58722590777E+00  0.51109989000E-03 0.  1.
     -623    1    1    2    0    0 -0.83598436722E-02 -0.42971698267E-02  0.25534095945E-02  0.17124000028E+03  0.17124000000E+03 0. -1.
     -611    1    1    2    0    0  0.51468391831E-01 -0.21176904557E-01  0.34118539324E+01  0.34123078662E+01  0.51109989000E-03 0.  1.
      611    1    1    2    0    0 -0.64848643875E-01  0.74902209272E-02  0.14990451470E+01  0.15004659489E+01  0.51109989000E-03 0. -1.
</event>
<event>
 6   3  0.2312675E+03  0.9118800E+02  0.7818608E-02  0.1180000E+00
       11   -1    0    0    0    0  0.00000000000E+00  0.00000000000E+00  0.54999999763E+01  0.55000000000E+01  0.51109989000E-03 0. -1.
     -623   -1    0    0    0    0  0.00000000000E+00  0.00000000000E+00  0.93234578044E-11  0.17124000000E+03  0.17124000000E+03 0.  1.
       11    1    1    2    0    0 -0.30063827200E-04  0.78145735412E-03  0.12657536884E-03  0.94277454970E-03  0.51109989000E-03 0. -1.
     -623    1    1    2    0    0 -0.77099670849E-03  0.30767730573E-02  0.31849323192E-02  0.17124000006E+03  0.17124000000E+03 0.  1.
     -611    1    1    2    0    0 -0.56179070658E-01 -0.25299729768E-01  0.45478681092E+01  0.45482854752E+01  0.51109989000E-03 0. -1.
      611    1    1    2    0    0  0.56980131194E-01  0.21441499356E-01  0.94882035939E+00  0.95077169124E+00  0.51109989000E-03 0.  1.
</event>
<event>
 6   3  0.2312675E+03  0.9118800E+02  0.7818608E-02  0.1180000E+00
       11   -1    0    0    0    0  0.00000000000E+00  0.00000000000E+00  0.54999999763E+01  0.55000000000E+01  0.51109989000E-03 0. -1.
     -623   -1    0    0    0    0  0.00000000000E+00  0.00000000000E+00  0.93234578044E-11  0.17124000000E+03  0.17124000000E+03 0. -1.
       11    1    1    2    0    0  0.14748400527E-01 -0.74089114813E-02  0.32267697836E-01  0.36247383825E-01  0.51109989000E-03 0. -1.
     -623    1    1    2    0    0 -0.46459221615E-02 -0.17069325087E-01  0.45481368817E-02  0.17124000097E+03  0.17124000000E+03 0. -1.
     -611    1    1    2    0    0 -0.39545845021E-01 -0.12022764492E-02  0.26065384232E+01  0.26068387239E+01  0.51109989000E-03 0.  1.
      611    1    1    2    0    0  0.29443366655E-01  0.25680513017E-01  0.28566457183E+01  0.28569129181E+01  0.51109989000E-03 0. -1.
</event>
<event>
 6   3  0.2312675E+03  0.9118800E+02  0.7818608E-02  0.1180000E+00
       11   -1    0    0    0    0  0.00000000000E+00  0.00000000000E+00  0.54999999763E+01  0.55000000000E+01  0.51109989000E-03 0.  1.
     -623   -1    0    0    0    0  0.00000000000E+00  0.00000000000E+00  0.93234578044E-11  0.17124000000E+03  0.17124000000E+03 0.  1.
       11    1    1    2    0    0  0.40346425279E-02  0.30223848735E-01  0.62168989359E+00  0.62243742206E+00  0.51109989000E-03 0.  1.
     -623    1    1    2    0    0  0.91573530384E-02 -0.58256058708E-02  0.13185056722E-02  0.17124000035E+03  0.17124000000E+03 0.  1.
     -611    1    1    2    0    0  0.28471039684E-01 -0.88427392127E-02  0.21814488704E+01  0.21816526372E+01  0.51109989000E-03 0. -1.
      611    1    1    2    0    0 -0.41663035250E-01 -0.15555503651E-01  0.26955427066E+01  0.26959095917E+01  0.51109989000E-03 0.  1.
</event>
<event>
 6   3  0.2312675E+03  0.9118800E+02  0.7818608E-02  0.1180000E+00
       11   -1    0    0    0    0  0.00000000000E+00  0.00000000000E+00  0.54999999763E+01  0.55000000000E+01  0.51109989000E-03 0.  1.
     -623   -1    0    0    0    0  0.00000000000E+00  0.00000000000E+00  0.93234578044E-11  0.17124000000E+03  0.17124000000E+03 0.  1.
       11    1    1    2    0    0 -0.81760186842E-01  0.24254859006E-01  0.44902918539E+00  0.45705633886E+00  0.51109989000E-03 0.  1.
     -623    1    1    2    0    0 -0.21761015176E-01 -0.27911200487E-01  0.90976724535E-02  0.17124000390E+03  0.17124000000E+03 0.  1.
     -611    1    1    2    0    0  0.27714755707E-01  0.70242686751E-03  0.12442269773E+01  0.12445359109E+01  0.51109989000E-03 0. -1.
      611    1    1    2    0    0  0.75806446319E-01  0.29539146142E-02  0.37976461414E+01  0.37984038515E+01  0.51109989000E-03 0.  1.
</event>
<event>
 6   3  0.2312675E+03  0.9118800E+02  0.7818608E-02  0.1180000E+00
       11   -1    0    0    0    0  0.00000000000E+00  0.00000000000E+00  0.54999999763E+01  0.55000000000E+01  0.51109989000E-03 0. -1.
     -623   -1    0    0    0    0  0.00000000000E+00  0.00000000000E+00  0.93234578044E-11  0.17124000000E+03  0.17124000000E+03 0.  1.
       11    1    1    2    0    0 -0.10175616698E-01  0.20199330669E-02  0.92812653189E+00  0.92818464958E+00  0.51109989000E-03 0. -1.
     -623    1    1    2    0    0  0.62675253602E-01  0.41837679162E-02  0.37593909375E-03  0.17124001152E+03  0.17124000000E+03 0.  1.
     -611    1    1    2    0    0 -0.18932703621E-01 -0.28768448197E-02  0.15817814509E+01  0.15818974503E+01  0.51109989000E-03 0. -1.
      611    1    1    2    0    0 -0.33566933386E-01 -0.33268561702E-02  0.29897160635E+01  0.29899063879E+01  0.51109989000E-03 0. -1.
</event>
<event>
 6   3  0.2312675E+03  0.9118800E+02  0.7818608E-02  0.1180000E+00
       11   -1    0    0    0    0  0.00000000000E+00  0.00000000000E+00  0.54999999763E+01  0.55000000000E+01  0.51109989000E-03 0.  1.
     -623   -1    0    0    0    0  0.00000000000E+00  0.00000000000E+00  0.93234578044E-11  0.17124000000E+03  0.17124000000E+03 0. -1.
       11    1    1    2    0    0  0.14722447089E+00  0.24539747499E-01  0.32803798722E+00  0.36039759477E+00  0.51109989000E-03 0.  1.
     -623    1    1    2    0    0 -0.58188435729E-01 -0.13096167651E-01  0.33157947490E-01  0.17124001360E+03  0.17124000000E+03 0. -1.
     -611    1    1    2    0    0 -0.17500583586E-01 -0.29825678055E-02  0.10549397319E+01  0.10550892215E+01  0.51109989000E-03 0. -1.
      611    1    1    2    0    0 -0.71535451601E-01 -0.84610120459E-02  0.40838643112E+01  0.40844995879E+01  0.51109989000E-03 0.  1.
</event>
<event>
 6   3  0.2312675E+03  0.9118800E+02  0.7818608E-02  0.1180000E+00
       11   -1    0    0    0    0  0.00000000000E+00  0.00000000000E+00  0.54999999763E+01  0.55000000000E+01  0.51109989000E-03 0.  1.
     -623   -1    0    0    0    0  0.00000000000E+00  0.00000000000E+00  0.93234578044E-11  0.17124000000E+03  0.17124000000E+03 0. -1.
       11    1    1    2    0    0 -0.59044228659E-01  0.42257614203E-01  0.99454581130E+00  0.99719283937E+00  0.51109989000E-03 0.  1.
     -623    1    1    2    0    0 -0.19222537447E-01 -0.35232918050E-01  0.34248344303E-02  0.17124000474E+03  0.17124000000E+03 0. -1.
     -611    1    1    2    0    0  0.36243154183E-01  0.33570784249E-02  0.14089326594E+01  0.14094028296E+01  0.51109989000E-03 0. -1.
      611    1    1    2    0    0  0.42023611923E-01 -0.10381774578E-01  0.30930966712E+01  0.30933995933E+01  0.51109989000E-03 0.  1.
</event>
<event>
 6   3  0.2312675E+03  0.9118800E+02  0.7818608E-02  0.1180000E+00
       11   -1    0    0    0    0  0.00000000000E+00  0.00000000000E+00  0.54999999763E+01  0.55000000000E+01  0.51109989000E-03 0. -1.
     -623   -1    0    0    0    0  0.00000000000E+00  0.00000000000E+00  0.93234578044E-11  0.17124000000E+03  0.17124000000E+03 0. -1.
       11    1    1    2    0    0  0.83646965910E-02  0.88616557705E-02  0.27798926985E+00  0.27825670246E+00  0.51109989000E-03 0. -1.
     -623    1    1    2    0    0 -0.60135149395E-02 -0.52260302056E-02  0.54241100077E-03  0.17124000019E+03  0.17124000000E+03 0. -1.
     -611    1    1    2    0    0  0.25412266890E-01 -0.43197352517E-02  0.24548279839E+01  0.24549633674E+01  0.51109989000E-03 0. -1.
      611    1    1    2    0    0 -0.27763448542E-01  0.68410968678E-03  0.27666403115E+01  0.27667797440E+01  0.51109989000E-03 0.  1.
</event>
<event>
 6   3  0.2312675E+03  0.9118800E+02  0.7818608E-02  0.1180000E+00
       11   -1    0    0    0    0  0.00000000000E+00  0.00000000000E+00  0.54999999763E+01  0.55000000000E+01  0.51109989000E-03 0. -1.
     -623   -1    0    0    0    0  0.00000000000E+00  0.00000000000E+00  0.93234578044E-11  0.17124000000E+03  0.17124000000E+03 0. -1.
       11    1    1    2    0    0  0.20218309683E-01 -0.40303361404E-01  0.68957693123E+00  0.69104974227E+00  0.51109989000E-03 0. -1.
     -623    1    1    2    0    0  0.37496805545E-01  0.35411684302E-01  0.18301387400E-02  0.17124000778E+03  0.17124000000E+03 0. -1.
     -611    1    1    2    0    0 -0.25627309694E-01  0.31989284872E-02  0.20877735100E+01  0.20879333041E+01  0.51109989000E-03 0. -1.
      611    1    1    2    0    0 -0.32087805532E-01  0.16927486145E-02  0.27208193961E+01  0.27210091768E+01  0.51109989000E-03 0. -1.
</event>
<event>
 6   3  0.2312675E+03  0.9118800E+02  0.7818608E-02  0.1180000E+00
       11   -1    0    0    0    0  0.00000000000E+00  0.00000000000E+00  0.54999999763E+01  0.55000000000E+01  0.51109989000E-03 0. -1.
     -623   -1    0    0    0    0  0.00000000000E+00  0.00000000000E+00  0.93234578044E-11  0.17124000000E+03  0.17124000000E+03 0.  1.
       11    1    1    2    0    0 -0.29688852362E-02 -0.16829240864E-02  0.31696851343E+00  0.31698729666E+00  0.51109989000E-03 0. -1.
     -623    1    1    2    0    0 -0.71799837148E-03 -0.70310772179E-02  0.54264063387E-03  0.17124000015E+03  0.17124000000E+03 0.  1.
     -611    1    1    2    0    0 -0.30053031389E-01  0.20611651805E-01  0.21018037515E+01  0.21021197149E+01  0.51109989000E-03 0.  1.
      611    1    1    2    0    0  0.33739914997E-01 -0.11897650500E-01  0.30806850708E+01  0.30808928417E+01  0.51109989000E-03 0. -1.
</event>
<event>
 6   3  0.2312675E+03  0.9118800E+02  0.7818608E-02  0.1180000E+00
       11   -1    0    0    0    0  0.00000000000E+00  0.00000000000E+00  0.54999999763E+01  0.55000000000E+01  0.51109989000E-03 0.  1.
     -623   -1    0    0    0    0  0.00000000000E+00  0.00000000000E+00  0.93234578044E-11  0.17124000000E+03  0.17124000000E+03 0.  1.
       11    1    1    2    0    0  0.45374645307E-01  0.29062156528E-02  0.80542984070E+00  0.80671233661E+00  0.51109989000E-03 0.  1.
     -623    1    1    2    0    0  0.15671626302E-01 -0.83921130741E-02  0.23578342167E-02  0.17124000094E+03  0.17124000000E+03 0.  1.
     -611    1    1    2    0    0 -0.19487751536E-01 -0.35883925918E-01  0.16187531536E+01  0.16192681872E+01  0.51109989000E-03 0.  1.
      611    1    1    2    0    0 -0.41558520073E-01  0.41369823340E-01  0.30734591477E+01  0.30740185371E+01  0.51109989000E-03 0. -1.
</event>
<event>
 6   3  0.2312675E+03  0.9118800E+02  0.7818608E-02  0.1180000E+00
       11   -1    0    0    0    0  0.00000000000E+00  0.00000000000E+00  0.54999999763E+01  0.55000000000E+01  0.51109989000E-03 0.  1.
     -623   -1    0    0    0    0  0.00000000000E+00  0.00000000000E+00  0.93234578044E-11  0.17124000000E+03  0.17124000000E+03 0.  1.
       11    1    1    2    0    0  0.64127105111E-01 -0.79812566336E-01  0.10193733379E+01  0.10245021204E+01  0.51109989000E-03 0.  1.
     -623    1    1    2    0    0  0.11962056792E-01  0.33241418088E-01  0.63695700213E-02  0.17124000376E+03  0.17124000000E+03 0.  1.
     -611    1    1    2    0    0 -0.42955363914E-01  0.38681981114E-02  0.11696212199E+01  0.11704162446E+01  0.51109989000E-03 0. -1.
      611    1    1    2    0    0 -0.33133797990E-01  0.42702950136E-01  0.33046358484E+01  0.33050778723E+01  0.51109989000E-03 0.  1.
</event>
<event>
 6   3  0.2312675E+03  0.9118800E+02  0.7818608E-02  0.1180000E+00
       11   -1    0    0    0    0  0.00000000000E+00  0.00000000000E+00  0.54999999763E+01  0.55000000000E+01  0.51109989000E-03 0. -1.
     -623   -1    0    0    0    0  0.00000000000E+00  0.00000000000E+00  0.93234578044E-11  0.17124000000E+03  0.17124000000E+03 0. -1.
       11    1    1    2    0    0 -0.36217586632E-01  0.36023509200E-01  0.73542694449E+00  0.73719906314E+00  0.51109989000E-03 0. -1.
     -623    1    1    2    0    0 -0.65105674069E-01 -0.58506266627E-01  0.29260401972E-02  0.17124002240E+03  0.17124000000E+03 0. -1.
     -611    1    1    2    0    0  0.21593170687E-01  0.51816423802E-02  0.10522480769E+01  0.10524824896E+01  0.51109989000E-03 0. -1.
      611    1    1    2    0    0  0.79730089954E-01  0.17301115032E-01  0.37093989118E+01  0.37102960480E+01  0.51109989000E-03 0. -1.
</event>
<event>
 6   3  0.2312675E+03  0.9118800E+02  0.7818608E-02  0.1180000E+00
       11   -1    0    0    0    0  0.00000000000E+00  0.00000000000E+00  0.54999999763E+01  0.55000000000E+01  0.51109989000E-03 0.  1.
     -623   -1    0    0    0    0  0.00000000000E+00  0.00000000000E+00  0.93234578044E-11  0.17124000000E+03  0.17124000000E+03 0. -1.
       11    1    1    2    0    0  0.67050135747E-01  0.35175765324E-01  0.85353433582E+00  0.85688632783E+00  0.51109989000E-03 0.  1.
     -623    1    1    2    0    0 -0.54434273491E-02 -0.15465869336E-01  0.38037768907E-02  0.17124000083E+03  0.17124000000E+03 0. -1.
     -611    1    1    2    0    0 -0.48423080268E-01 -0.14835621336E-01  0.36366047420E+01  0.36369574098E+01  0.51109989000E-03 0.  1.
      611    1    1    2    0    0 -0.13183628095E-01 -0.48742746406E-02  0.10060571189E+01  0.10061554325E+01  0.51109989000E-03 0.  1.
</event>
<event>
 6   3  0.2312675E+03  0.9118800E+02  0.7818608E-02  0.1180000E+00
       11   -1    0    0    0    0  0.00000000000E+00  0.00000000000E+00  0.54999999763E+01  0.55000000000E+01  0.51109989000E-03 0.  1.
     -623   -1    0    0    0    0  0.00000000000E+00  0.00000000000E+00  0.93234578044E-11  0.17124000000E+03  0.17124000000E+03 0.  1.
       11    1    1    2    0    0  0.23008329380E-01  0.17783685633E-01  0.43917820064E+00  0.44014020021E+00  0.51109989000E-03 0.  1.
     -623    1    1    2    0    0 -0.16529763222E-02 -0.78609683609E-02  0.22402465656E-02  0.17124000020E+03  0.17124000000E+03 0.  1.
     -611    1    1    2    0    0  0.20381876243E-01 -0.48837919667E-01  0.17979816683E+01  0.17987603798E+01  0.51109989000E-03 0. -1.
      611    1    1    2    0    0 -0.41737229301E-01  0.38915202395E-01  0.32605998608E+01  0.32610992169E+01  0.51109989000E-03 0.  1.
</event>
<event>
 6   3  0.2312675E+03  0.9118800E+02  0.7818608E-02  0.1180000E+00
       11   -1    0    0    0    0  0.00000000000E+00  0.00000000000E+00  0.54999999763E+01  0.55000000000E+01  0.51109989000E-03 0. -1.
     -623   -1    0    0    0    0  0.00000000000E+00  0.00000000000E+00  0.93234578044E-11  0.17124000000E+03  0.17124000000E+03 0. -1.
       11    1    1    2    0    0  0.19616106424E-01  0.53503019711E-02  0.30579571408E+00  0.30647136462E+00  0.51109989000E-03 0. -1.
     -623    1    1    2    0    0  0.40614567673E-03 -0.90053994034E-02  0.14106469214E-02  0.17124000024E+03  0.17124000000E+03 0. -1.
     -611    1    1    2    0    0  0.27094118169E-01 -0.43809667295E-02  0.79271072617E+00  0.79318588030E+00  0.51109989000E-03 0.  1.
      611    1    1    2    0    0 -0.47116370270E-01  0.80360641617E-02  0.44000828891E+01  0.44003425120E+01  0.51109989000E-03 0. -1.
</event>
<event>
 6   3  0.2312675E+03  0.9118800E+02  0.7818608E-02  0.1180000E+00
       11   -1    0    0    0    0  0.00000000000E+00  0.00000000000E+00  0.54999999763E+01  0.55000000000E+01  0.51109989000E-03 0.  1.
     -623   -1    0    0    0    0  0.00000000000E+00  0.00000000000E+00  0.93234578044E-11  0.17124000000E+03  0.17124000000E+03 0. -1.
       11    1    1    2    0    0  0.40406123752E-02 -0.91002743831E-03  0.16945661525E+00  0.16950799501E+00  0.51109989000E-03 0.  1.
     -623    1    1    2    0    0  0.20178937762E-02 -0.19326280882E-01  0.20227230707E-02  0.17124000111E+03  0.17124000000E+03 0. -1.
     -611    1    1    2    0    0 -0.58139201709E-01 -0.35585633922E-01  0.27127682960E+01  0.27136246228E+01  0.51109989000E-03 0.  1.
      611    1    1    2    0    0  0.52080695558E-01  0.55821942243E-01  0.26157523418E+01  0.26168662677E+01  0.51109989000E-03 0. -1.
</event>
<event>
 6   3  0.2312675E+03  0.9118800E+02  0.7818608E-02  0.1180000E+00
       11   -1    0    0    0    0  0.00000000000E+00  0.00000000000E+00  0.54999999763E+01  0.55000000000E+01  0.51109989000E-03 0.  1.
     -623   -1    0    0    0    0  0.00000000000E+00  0.00000000000E+00  0.93234578044E-11  0.17124000000E+03  0.17124000000E+03 0. -1.
       11    1    1    2    0    0  0.16653515060E-01 -0.13410835510E-02  0.75980356897E-02  0.18361084892E-01  0.51109989000E-03 0.  1.
     -623    1    1    2    0    0 -0.20982167538E-01  0.24584656482E-02  0.14278500511E-01  0.17124000190E+03  0.17124000000E+03 0. -1.
     -611    1    1    2    0    0 -0.81839342878E-01  0.45593701701E-02  0.40950373069E+01  0.40958575747E+01  0.51109989000E-03 0. -1.
      611    1    1    2    0    0  0.86167995356E-01 -0.56767522672E-02  0.13830861331E+01  0.13857794420E+01  0.51109989000E-03 0.  1.
</event>
<event>
 6   3  0.2312675E+03  0.9118800E+02  0.7818608E-02  0.1180000E+00
       11   -1    0    0    0    0  0.00000000000E+00  0.00000000000E+00  0.54999999763E+01  0.55000000000E+01  0.51109989000E-03 0. -1.
     -623   -1    0    0    0    0  0.00000000000E+00  0.00000000000E+00  0.93234578044E-11  0.17124000000E+03  0.17124000000E+03 0. -1.
       11    1    1    2    0    0  0.44674909872E-03  0.48509880414E-02  0.79932504477E-01  0.80082446047E-01  0.51109989000E-03 0. -1.
     -623    1    1    2    0    0 -0.38312257470E-02 -0.73325766106E-02  0.13613454174E-02  0.17124000021E+03  0.17124000000E+03 0. -1.
     -611    1    1    2    0    0 -0.42079172360E-01  0.32487186906E-01  0.36089008313E+01  0.36092923885E+01  0.51109989000E-03 0.  1.
      611    1    1    2    0    0  0.45463649008E-01 -0.30005598337E-01  0.18098052951E+01  0.18106249603E+01  0.51109989000E-03 0. -1.
</event>
<event>
 6   3  0.2312675E+03  0.9118800E+02  0.7818608E-02  0.1180000E+00
       11   -1    0    0    0    0  0.00000000000E+00  0.00000000000E+00  0.54999999763E+01  0.55000000000E+01  0.51109989000E-03 0. -1.
     -623   -1    0    0    0    0  0.00000000000E+00  0.00000000000E+00  0.93234578044E-11  0.17124000000E+03  0.17124000000E+03 0.  1.
       11    1    1    2    0    0  0.10605149489E-01 -0.11343552913E-01  0.10093587728E+01  0.10094783498E+01  0.51109989000E-03 0. -1.
     -623    1    1    2    0    0 -0.57954884804E-01  0.27526637264E-01  0.41074888119E-03  0.17124001202E+03  0.17124000000E+03 0.  1.
     -611    1    1    2    0    0  0.28926605825E-01 -0.10318695890E-01  0.28085825802E+01  0.28087505398E+01  0.51109989000E-03 0.  1.
      611    1    1    2    0    0  0.18423129472E-01 -0.58643884509E-02  0.16816478727E+01  0.16817590885E+01  0.51109989000E-03 0. -1.
</event>
<event>
 6   3  0.2312675E+03  0.9118800E+02  0.7818608E-02  0.1180000E+00
       11   -1    0    0    0    0  0.00000000000E+00  0.00000000000E+00  0.54999999763E+01  0.55000000000E+01  0.51109989000E-03 0.  1.
     -623   -1    0    0    0    0  0.00000000000E+00  0.00000000000E+00  0.93234578044E-11  0.17124000000E+03  0.17124000000E+03 0.  1.
       11    1    1    2    0    0 -0.11711922798E+00  0.37913873725E-01  0.64988787338E+00  0.66144454383E+00  0.51109989000E-03 0.  1.
     -623    1    1    2    0    0 -0.18235201637E-01 -0.84450856205E-02  0.13547395416E-01  0.17124000172E+03  0.17124000000E+03 0.  1.
     -611    1    1    2    0    0  0.10449067792E+00 -0.25693753648E-01  0.37168683573E+01  0.37184256235E+01  0.51109989000E-03 0.  1.
      611    1    1    2    0    0  0.30863751691E-01 -0.37750344549E-02  0.11196963501E+01  0.11201281175E+01  0.51109989000E-03 0. -1.
</event>
<event>
 6   3  0.2504193E+03  0.9118800E+02  0.7818608E-02  0.1180000E+00
       11   -1    0    0    0    0  0.00000000000E+00  0.00000000000E+00  0.54999999763E+01  0.55000000000E+01  0.51109989000E-03 0. -1.
     -623   -1    0    0    0    0  0.00000000000E+00  0.00000000000E+00  0.93234578044E-11  0.17124000000E+03  0.17124000000E+03 0.  1.
       11    1    1    2    0    0 -0.29828837573E-03  0.52547710830E-03  0.48733654344E-03  0.92942033041E-03  0.51109989000E-03 0. -1.
     -623    1    1    2    0    0  0.55281837000E-03 -0.10958364443E-03  0.14089460648E-02  0.17124000001E+03  0.17124000000E+03 0.  1.
     -611    1    1    2    0    0  0.47842406785E-01  0.17615184542E-01  0.30727851072E+01  0.30732080579E+01  0.51109989000E-03 0.  1.
      611    1    1    2    0    0 -0.48096936780E-01 -0.18031078006E-01  0.24253185863E+01  0.24258625150E+01  0.51109989000E-03 0. -1.
</event>
<event>
 6   3  0.2312675E+03  0.9118800E+02  0.7818608E-02  0.1180000E+00
       11   -1    0    0    0    0  0.00000000000E+00  0.00000000000E+00  0.54999999763E+01  0.55000000000E+01  0.51109989000E-03 0.  1.
     -623   -1    0    0    0    0  0.00000000000E+00  0.00000000000E+00  0.93234578044E-11  0.17124000000E+03  0.17124000000E+03 0.  1.
       11    1    1    2    0    0  0.92965836240E-03  0.19305174534E-02  0.34043854554E+00  0.34044567214E+00  0.51109989000E-03 0.  1.
     -623    1    1    2    0    0  0.26460283043E-02 -0.17820023791E-02  0.67169643237E-03  0.17124000003E+03  0.17124000000E+03 0.  1.
     -611    1    1    2    0    0 -0.35346235937E-01 -0.23387545903E-01  0.30827823196E+01  0.30830736976E+01  0.51109989000E-03 0. -1.
      611    1    1    2    0    0  0.31770549270E-01  0.23239030829E-01  0.20761074149E+01  0.20764805994E+01  0.51109989000E-03 0.  1.
</event>
<event>
 6   3  0.2312675E+03  0.9118800E+02  0.7818608E-02  0.1180000E+00
       11   -1    0    0    0    0  0.00000000000E+00  0.00000000000E+00  0.54999999763E+01  0.55000000000E+01  0.51109989000E-03 0. -1.
     -623   -1    0    0    0    0  0.00000000000E+00  0.00000000000E+00  0.93234578044E-11  0.17124000000E+03  0.17124000000E+03 0. -1.
       11    1    1    2    0    0  0.28001607515E-02 -0.26832314382E-01  0.42429119818E-01  0.50282257577E-01  0.51109989000E-03 0. -1.
     -623    1    1    2    0    0 -0.14735176186E-01  0.38203868686E-01  0.17405031166E-01  0.17124000578E+03  0.17124000000E+03 0. -1.
     -611    1    1    2    0    0 -0.11567334619E+00 -0.37360425234E-01  0.96155396067E+00  0.96920710114E+00  0.51109989000E-03 0.  1.
      611    1    1    2    0    0  0.12760836163E+00  0.25988870930E-01  0.44786118646E+01  0.44805048611E+01  0.51109989000E-03 0. -1.
</event>
<event>
 6   3  0.2312675E+03  0.9118800E+02  0.7818608E-02  0.1180000E+00
       11   -1    0    0    0    0  0.00000000000E+00  0.00000000000E+00  0.54999999763E+01  0.55000000000E+01  0.51109989000E-03 0.  1.
     -623   -1    0    0    0    0  0.00000000000E+00  0.00000000000E+00  0.93234578044E-11  0.17124000000E+03  0.17124000000E+03 0.  1.
       11    1    1    2    0    0  0.50635799424E-02 -0.34719759399E-03  0.43090206281E+00  0.43093225610E+00  0.51109989000E-03 0.  1.
     -623    1    1    2    0    0 -0.66728818409E-01  0.38812153882E-01  0.56926791504E-03  0.17124001740E+03  0.17124000000E+03 0.  1.
     -611    1    1    2    0    0  0.13422880105E-01 -0.73647924321E-02  0.10903271777E+01  0.10904347892E+01  0.51109989000E-03 0. -1.
      611    1    1    2    0    0  0.48242358307E-01 -0.31100163824E-01  0.39782014634E+01  0.39786155494E+01  0.51109989000E-03 0.  1.
</event>
<event>
 6   3  0.2312675E+03  0.9118800E+02  0.7818608E-02  0.1180000E+00
       11   -1    0    0    0    0  0.00000000000E+00  0.00000000000E+00  0.54999999763E+01  0.55000000000E+01  0.51109989000E-03 0.  1.
     -623   -1    0    0    0    0  0.00000000000E+00  0.00000000000E+00  0.93234578044E-11  0.17124000000E+03  0.17124000000E+03 0. -1.
       11    1    1    2    0    0  0.15883338451E-01  0.11318871349E-01  0.90275136015E+00  0.90296216796E+00  0.51109989000E-03 0.  1.
     -623    1    1    2    0    0  0.13553496862E-02 -0.65882523233E-03  0.61110325649E-03  0.17124000001E+03  0.17124000000E+03 0. -1.
     -611    1    1    2    0    0 -0.35352369153E-01 -0.18554071452E-01  0.34363397584E+01  0.34365717278E+01  0.51109989000E-03 0. -1.
      611    1    1    2    0    0  0.18113681016E-01  0.78940253345E-02  0.11602977545E+01  0.11604660966E+01  0.51109989000E-03 0.  1.
</event>
<event>
 6   3  0.2312675E+03  0.9118800E+02  0.7818608E-02  0.1180000E+00
       11   -1    0    0    0    0  0.00000000000E+00  0.00000000000E+00  0.54999999763E+01  0.55000000000E+01  0.51109989000E-03 0. -1.
     -623   -1    0    0    0    0  0.00000000000E+00  0.00000000000E+00  0.93234578044E-11  0.17124000000E+03  0.17124000000E+03 0. -1.
       11    1    1    2    0    0 -0.64755903518E-01 -0.15988957507E-02  0.29824826406E+00  0.30520185410E+00  0.51109989000E-03 0. -1.
     -623    1    1    2    0    0  0.69047712145E-02  0.14284645890E-01  0.72988576713E-02  0.17124000089E+03  0.17124000000E+03 0. -1.
     -611    1    1    2    0    0  0.23992756706E-01 -0.16285502002E-02  0.22714538125E+01  0.22715811647E+01  0.51109989000E-03 0. -1.
      611    1    1    2    0    0  0.33858375598E-01 -0.11057199939E-01  0.29229990421E+01  0.29232160906E+01  0.51109989000E-03 0.  1.
</event>
<event>
 6   3  0.2312675E+03  0.9118800E+02  0.7818608E-02  0.1180000E+00
       11   -1    0    0    0    0  0.00000000000E+00  0.00000000000E+00  0.54999999763E+01  0.55000000000E+01  0.51109989000E-03 0.  1.
     -623   -1    0    0    0    0  0.00000000000E+00  0.00000000000E+00  0.93234578044E-11  0.17124000000E+03  0.17124000000E+03 0. -1.
       11    1    1    2    0    0  0.46824791279E-02  0.19412983623E-01  0.56738187539E-01  0.60152079700E-01  0.51109989000E-03 0.  1.
     -623    1    1    2    0    0 -0.51798835996E-02 -0.16638781391E-01  0.43305398973E-02  0.17124000094E+03  0.17124000000E+03 0. -1.
     -611    1    1    2    0    0  0.49411590688E-01 -0.23056017556E-02  0.22765892973E+01  0.22771266787E+01  0.51109989000E-03 0.  1.
      611    1    1    2    0    0 -0.48914186216E-01 -0.46860047622E-03  0.31623419515E+01  0.31627203001E+01  0.51109989000E-03 0. -1.
</event>
<event>
 6   3  0.2312675E+03  0.9118800E+02  0.7818608E-02  0.1180000E+00
       11   -1    0    0    0    0  0.00000000000E+00  0.00000000000E+00  0.54999999763E+01  0.55000000000E+01  0.51109989000E-03 0. -1.
     -623   -1    0    0    0    0  0.00000000000E+00  0.00000000000E+00  0.93234578044E-11  0.17124000000E+03  0.17124000000E+03 0.  1.
       11    1    1    2    0    0  0.94108464928E-03 -0.42960918443E-02  0.89187584022E-01  0.89297415485E-01  0.51109989000E-03 0. -1.
     -623    1    1    2    0    0  0.35199424056E-03  0.29373694967E-03  0.50787097829E-03  0.17124000000E+03  0.17124000000E+03 0.  1.
     -611    1    1    2    0    0  0.31374939860E-01 -0.15324708934E-02  0.31233059348E+01  0.31234639359E+01  0.51109989000E-03 0.  1.
      611    1    1    2    0    0 -0.32668018750E-01  0.55348257880E-02  0.22869985864E+01  0.22872386472E+01  0.51109989000E-03 0. -1.
</event>
<event>
 6   3  0.2312675E+03  0.9118800E+02  0.7818608E-02  0.1180000E+00
       11   -1    0    0    0    0  0.00000000000E+00  0.00000000000E+00  0.54999999763E+01  0.55000000000E+01  0.51109989000E-03 0. -1.
     -623   -1    0    0    0    0  0.00000000000E+00  0.00000000000E+00  0.93234578044E-11  0.17124000000E+03  0.17124000000E+03 0. -1.
       11    1    1    2    0    0 -0.43833179024E-02 -0.55106940799E-02  0.88131173480E+00  0.88134001177E+00  0.51109989000E-03 0. -1.
     -623    1    1    2    0    0  0.90445215935E-01 -0.36531674568E-01  0.10496211389E-02  0.17124002779E+03  0.17124000000E+03 0. -1.
     -611    1    1    2    0    0 -0.72682168449E-01  0.35167420027E-01  0.38862381744E+01  0.38870769036E+01  0.51109989000E-03 0. -1.
      611    1    1    2    0    0 -0.13379729557E-01  0.68749486068E-02  0.73140044461E+00  0.73155529776E+00  0.51109989000E-03 0. -1.
</event>
<event>
 6   3  0.2312675E+03  0.9118800E+02  0.7818608E-02  0.1180000E+00
       11   -1    0    0    0    0  0.00000000000E+00  0.00000000000E+00  0.54999999763E+01  0.55000000000E+01  0.51109989000E-03 0. -1.
     -623   -1    0    0    0    0  0.00000000000E+00  0.00000000000E+00  0.93234578044E-11  0.17124000000E+03  0.17124000000E+03 0. -1.
       11    1    1    2    0    0 -0.48924522135E-03  0.10274473484E-01  0.72592947898E-01  0.73319857296E-01  0.51109989000E-03 0. -1.
     -623    1    1    2    0    0  0.11231731891E-02  0.13519476242E-02  0.21083007939E-02  0.17124000002E+03  0.17124000000E+03 0. -1.
     -611    1    1    2    0    0 -0.49216754547E-01 -0.41727140094E-01  0.31755204352E+01  0.31761759615E+01  0.51109989000E-03 0. -1.
      611    1    1    2    0    0  0.48582826579E-01  0.30100718986E-01  0.22497782924E+01  0.22505041592E+01  0.51109989000E-03 0.  1.
</event>
<event>
 6   3  0.2312675E+03  0.9118800E+02  0.7818608E-02  0.1180000E+00
       11   -1    0    0    0    0  0.00000000000E+00  0.00000000000E+00  0.54999999763E+01  0.55000000000E+01  0.51109989000E-03 0. -1.
     -623   -1    0    0    0    0  0.00000000000E+00  0.00000000000E+00  0.93234578044E-11  0.17124000000E+03  0.17124000000E+03 0. -1.
       11    1    1    2    0    0  0.16649448252E-02 -0.23175143072E-01  0.85559151311E-01  0.88659398226E-01  0.51109989000E-03 0. -1.
     -623    1    1    2    0    0 -0.96292960281E-02  0.67876162427E-02  0.10583635655E-01  0.17124000073E+03  0.17124000000E+03 0. -1.
     -611    1    1    2    0    0  0.66858130995E-01  0.13374919824E+00  0.33030672455E+01  0.33064501126E+01  0.51109989000E-03 0.  1.
      611    1    1    2    0    0 -0.58893779792E-01 -0.11736167141E+00  0.21007899438E+01  0.21048897568E+01  0.51109989000E-03 0. -1.
</event>
<event>
 6   3  0.2312675E+03  0.9118800E+02  0.7818608E-02  0.1180000E+00
       11   -1    0    0    0    0  0.00000000000E+00  0.00000000000E+00  0.54999999763E+01  0.55000000000E+01  0.51109989000E-03 0.  1.
     -623   -1    0    0    0    0  0.00000000000E+00  0.00000000000E+00  0.93234578044E-11  0.17124000000E+03  0.17124000000E+03 0.  1.
       11    1    1    2    0    0  0.50676398593E-01 -0.59629922858E-01  0.59999178450E+00  0.60507373747E+00  0.51109989000E-03 0.  1.
     -623    1    1    2    0    0  0.11271767772E-01 -0.35352734045E-01  0.64979397137E-02  0.17124000414E+03  0.17124000000E+03 0.  1.
     -611    1    1    2    0    0 -0.14458193187E-01  0.31517261127E-01  0.99024258591E+00  0.99084964413E+00  0.51109989000E-03 0. -1.
      611    1    1    2    0    0 -0.47489973178E-01  0.63465395776E-01  0.39032676661E+01  0.39040724748E+01  0.51109989000E-03 0.  1.
</event>
<event>
 6   3  0.2312675E+03  0.9118800E+02  0.7818608E-02  0.1180000E+00
       11   -1    0    0    0    0  0.00000000000E+00  0.00000000000E+00  0.54999999763E+01  0.55000000000E+01  0.51109989000E-03 0. -1.
     -623   -1    0    0    0    0  0.00000000000E+00  0.00000000000E+00  0.93234578044E-11  0.17124000000E+03  0.17124000000E+03 0. -1.
       11    1    1    2    0    0 -0.13622176646E-01 -0.33212560175E-01  0.10216547862E+01  0.10222853815E+01  0.51109989000E-03 0. -1.
     -623    1    1    2    0    0  0.96439021901E-03  0.13581264192E-01  0.16845542934E-02  0.17124000055E+03  0.17124000000E+03 0. -1.
     -611    1    1    2    0    0 -0.28036497041E-01 -0.18550319856E-01  0.26180110514E+01  0.26182269356E+01  0.51109989000E-03 0. -1.
      611    1    1    2    0    0  0.40694283468E-01  0.38181615838E-01  0.18586495844E+01  0.18594871334E+01  0.51109989000E-03 0.  1.
</event>
<event>
 6   3  0.2312675E+03  0.9118800E+02  0.7818608E-02  0.1180000E+00
       11   -1    0    0    0    0  0.00000000000E+00  0.00000000000E+00  0.54999999763E+01  0.55000000000E+01  0.51109989000E-03 0.  1.
     -623   -1    0    0    0    0  0.00000000000E+00  0.00000000000E+00  0.93234578044E-11  0.17124000000E+03  0.17124000000E+03 0. -1.
       11    1    1    2    0    0  0.42125203142E-02  0.11124947383E-02  0.95210442300E-01  0.95311450088E-01  0.51109989000E-03 0.  1.
     -623    1    1    2    0    0 -0.11115540450E-02  0.24876216275E-03  0.70443734745E-03  0.17124000001E+03  0.17124000000E+03 0. -1.
     -611    1    1    2    0    0  0.38793913972E-01 -0.13255164917E-02  0.26885176331E+01  0.26887978818E+01  0.51109989000E-03 0. -1.
      611    1    1    2    0    0 -0.41894880241E-01 -0.35740409383E-04  0.27155674638E+01  0.27158906631E+01  0.51109989000E-03 0.  1.
</event>
<event>
 6   3  0.2312675E+03  0.9118800E+02  0.7818608E-02  0.1180000E+00
       11   -1    0    0    0    0  0.00000000000E+00  0.00000000000E+00  0.54999999763E+01  0.55000000000E+01  0.51109989000E-03 0. -1.
     -623   -1    0    0    0    0  0.00000000000E+00  0.00000000000E+00  0.93234578044E-11  0.17124000000E+03  0.17124000000E+03 0. -1.
       11    1    1    2    0    0  0.10505462360E-01  0.26645993157E-02  0.82456494719E+00  0.82463633087E+00  0.51109989000E-03 0. -1.
     -623    1    1    2    0    0 -0.60721126559E-01 -0.23528813287E-01  0.40014635862E-03  0.17124001238E+03  0.17124000000E+03 0. -1.
     -611    1    1    2    0    0  0.15101828419E-01  0.60170799320E-02  0.14069769871E+01  0.14070709911E+01  0.51109989000E-03 0. -1.
      611    1    1    2    0    0  0.35113835957E-01  0.14847134105E-01  0.32680579115E+01  0.32682803112E+01  0.51109989000E-03 0. -1.
</event>
<event>
 6   3  0.2312675E+03  0.9118800E+02  0.7818608E-02  0.1180000E+00
       11   -1    0    0    0    0  0.00000000000E+00  0.00000000000E+00  0.54999999763E+01  0.55000000000E+01  0.51109989000E-03 0.  1.
     -623   -1    0    0    0    0  0.00000000000E+00  0.00000000000E+00  0.93234578044E-11  0.17124000000E+03  0.17124000000E+03 0. -1.
       11    1    1    2    0    0 -0.20465295377E+00  0.15179182062E+00  0.54947132470E+00  0.60567531416E+00  0.51109989000E-03 0.  1.
     -623    1    1    2    0    0  0.37376052599E-01 -0.56077289526E-01  0.60026277152E-01  0.17124002378E+03  0.17124000000E+03 0. -1.
     -611    1    1    2    0    0  0.47836504382E-01 -0.26007200284E-01  0.14289496453E+01  0.14299867326E+01  0.51109989000E-03 0.  1.
      611    1    1    2    0    0  0.11944039678E+00 -0.69707330805E-01  0.34615527289E+01  0.34643141711E+01  0.51109989000E-03 0.  1.
</event>
<event>
 6   3  0.2312675E+03  0.9118800E+02  0.7818608E-02  0.1180000E+00
       11   -1    0    0    0    0  0.00000000000E+00  0.00000000000E+00  0.54999999763E+01  0.55000000000E+01  0.51109989000E-03 0.  1.
     -623   -1    0    0    0    0  0.00000000000E+00  0.00000000000E+00  0.93234578044E-11  0.17124000000E+03  0.17124000000E+03 0.  1.
       11    1    1    2    0    0  0.41870281684E-01 -0.31334802926E-01  0.99236229092E+00  0.99373948700E+00  0.51109989000E-03 0.  1.
     -623    1    1    2    0    0  0.78513766240E-02 -0.68465985699E-02  0.18291304400E-02  0.17124000033E+03  0.17124000000E+03 0.  1.
     -611    1    1    2    0    0 -0.34112043786E-01  0.31835951680E-01  0.31154302654E+01  0.31157797032E+01  0.51109989000E-03 0. -1.
      611    1    1    2    0    0 -0.15609614522E-01  0.63454498150E-02  0.13903782896E+01  0.13904804832E+01  0.51109989000E-03 0.  1.
</event>
<event>
 6   3  0.2312675E+03  0.9118800E+02  0.7818608E-02  0.1180000E+00
       11   -1    0    0    0    0  0.00000000000E+00  0.00000000000E+00  0.54999999763E+01  0.55000000000E+01  0.51109989000E-03 0.  1.
     -623   -1    0    0    0    0  0.00000000000E+00  0.00000000000E+00  0.93234578044E-11  0.17124000000E+03  0.17124000000E+03 0. -1.
       11    1    1    2    0    0 -0.82057431978E-02 -0.48903265966E-02 -0.57323056528E-03  0.95832839898E-02  0.51109989000E-03 0.  1.
     -623    1    1    2    0    0  0.13212578145E-01 -0.11002634168E-02  0.12360605443E-01  0.17124000096E+03  0.17124000000E+03 0. -1.
     -611    1    1    2    0    0  0.52522792438E-01 -0.25956120497E-02  0.45999236993E+01  0.46002243077E+01  0.51109989000E-03 0.  1.
      611    1    1    2    0    0 -0.57529627386E-01  0.85862020631E-02  0.88828890211E+00  0.89019144892E+00  0.51109989000E-03 0. -1.
</event>
<event>
 6   3  0.2312675E+03  0.9118800E+02  0.7818608E-02  0.1180000E+00
       11   -1    0    0    0    0  0.00000000000E+00  0.00000000000E+00  0.54999999763E+01  0.55000000000E+01  0.51109989000E-03 0. -1.
     -623   -1    0    0    0    0  0.00000000000E+00  0.00000000000E+00  0.93234578044E-11  0.17124000000E+03  0.17124000000E+03 0. -1.
       11    1    1    2    0    0 -0.55608609128E-03 -0.12093451291E-01  0.22351598154E+00  0.22384417800E+00  0.51109989000E-03 0. -1.
     -623    1    1    2    0    0  0.32823857117E-02 -0.26416942216E-02  0.33657152672E-02  0.17124000008E+03  0.17124000000E+03 0. -1.
     -611    1    1    2    0    0  0.71192889826E-01  0.34060127873E-01  0.13576285663E+01  0.13599206246E+01  0.51109989000E-03 0.  1.
      611    1    1    2    0    0 -0.73919189447E-01 -0.19324982361E-01  0.39154897131E+01  0.39162351125E+01  0.51109989000E-03 0. -1.
</event>
<event>
 6   3  0.2312675E+03  0.9118800E+02  0.7818608E-02  0.1180000E+00
       11   -1    0    0    0    0  0.00000000000E+00  0.00000000000E+00  0.54999999763E+01  0.55000000000E+01  0.51109989000E-03 0.  1.
     -623   -1    0    0    0    0  0.00000000000E+00  0.00000000000E+00  0.93234578044E-11  0.17124000000E+03  0.17124000000E+03 0.  1.
       11    1    1    2    0    0  0.15137277228E-01  0.11909830026E-01  0.39466300428E+00  0.39513305276E+00  0.51109989000E-03 0.  1.
     -623    1    1    2    0    0 -0.34916849299E-02  0.68355411435E-03  0.13066268706E-02  0.17124000004E+03  0.17124000000E+03 0.  1.
     -611    1    1    2    0    0 -0.47667985844E-01 -0.95788970627E-02  0.18611388414E+01  0.18617738962E+01  0.51109989000E-03 0. -1.
      611    1    1    2    0    0  0.36022393545E-01 -0.30144870774E-02  0.32428915037E+01  0.32430930092E+01  0.51109989000E-03 0.  1.
</event>
<event>
 6   3  0.2312675E+03  0.9118800E+02  0.7818608E-02  0.1180000E+00
       11   -1    0    0    0    0  0.00000000000E+00  0.00000000000E+00  0.54999999763E+01  0.55000000000E+01  0.51109989000E-03 0.  1.
     -623   -1    0    0    0    0  0.00000000000E+00  0.00000000000E+00  0.93234578044E-11  0.17124000000E+03  0.17124000000E+03 0.  1.
       11    1    1    2    0    0  0.23243901977E-01 -0.16076592256E-01  0.62550198226E+00  0.62614034116E+00  0.51109989000E-03 0.  1.
     -623    1    1    2    0    0  0.27101202098E-01  0.92037312857E-02  0.90574745702E-03  0.17124000239E+03  0.17124000000E+03 0.  1.
     -611    1    1    2    0    0 -0.33811213566E-01  0.44757643048E-02  0.32859242259E+01  0.32861012629E+01  0.51109989000E-03 0.  1.
      611    1    1    2    0    0 -0.16533890463E-01  0.23970966598E-02  0.15876680163E+01  0.15877559972E+01  0.51109989000E-03 0.  1.
</event>
<event>
 6   3  0.2312675E+03  0.9118800E+02  0.7818608E-02  0.1180000E+00
       11   -1    0    0    0    0  0.00000000000E+00  0.00000000000E+00  0.54999999763E+01  0.55000000000E+01  0.51109989000E-03 0. -1.
     -623   -1    0    0    0    0  0.00000000000E+00  0.00000000000E+00  0.93234578044E-11  0.17124000000E+03  0.17124000000E+03 0. -1.
       11    1    1    2    0    0  0.36131867078E-02 -0.26337093597E-01  0.57464775920E+00  0.57526255396E+00  0.51109989000E-03 0. -1.
     -623    1    1    2    0    0  0.68661659221E-02  0.18566447737E-01  0.91256056513E-03  0.17124000115E+03  0.17124000000E+03 0. -1.
     -611    1    1    2    0    0  0.21394858909E-01  0.12673852661E-02  0.18270023335E+01  0.18271281110E+01  0.51109989000E-03 0.  1.
      611    1    1    2    0    0 -0.31874211539E-01  0.65032605938E-02  0.30974373229E+01  0.30976081883E+01  0.51109989000E-03 0. -1.
</event>
<event>
 6   3  0.2312675E+03  0.9118800E+02  0.7818608E-02  0.1180000E+00
       11   -1    0    0    0    0  0.00000000000E+00  0.00000000000E+00  0.54999999763E+01  0.55000000000E+01  0.51109989000E-03 0.  1.
     -623   -1    0    0    0    0  0.00000000000E+00  0.00000000000E+00  0.93234578044E-11  0.17124000000E+03  0.17124000000E+03 0.  1.
       11    1    1    2    0    0  0.22862248687E-03 -0.13872417019E-01  0.16992348854E+00  0.17048973401E+00  0.51109989000E-03 0.  1.
     -623    1    1    2    0    0 -0.10840509668E+00 -0.17430367663E-01  0.19814483253E-02  0.17124003521E+03  0.17124000000E+03 0.  1.
     -611    1    1    2    0    0  0.75658458732E-01  0.31656403170E-01  0.44902942072E+01  0.44910431593E+01  0.51109989000E-03 0.  1.
      611    1    1    2    0    0  0.32518015458E-01 -0.35361848710E-03  0.83780083216E+00  0.83843189465E+00  0.51109989000E-03 0. -1.
</event>
<event>
 6   3  0.2312675E+03  0.9118800E+02  0.7818608E-02  0.1180000E+00
       11   -1    0    0    0    0  0.00000000000E+00  0.00000000000E+00  0.54999999763E+01  0.55000000000E+01  0.51109989000E-03 0. -1.
     -623   -1    0    0    0    0  0.00000000000E+00  0.00000000000E+00  0.93234578044E-11  0.17124000000E+03  0.17124000000E+03 0. -1.
       11    1    1    2    0    0  0.14820763886E-01 -0.52699665579E-01  0.60474255078E+00  0.60721554965E+00  0.51109989000E-03 0. -1.
     -623    1    1    2    0    0 -0.68050193680E-01  0.88720106503E-01  0.29330675374E-02  0.17124003653E+03  0.17124000000E+03 0. -1.
     -611    1    1    2    0    0  0.23604010054E-01 -0.17372813715E-01  0.23319788845E+01  0.23321631038E+01  0.51109989000E-03 0.  1.
      611    1    1    2    0    0  0.29625419742E-01 -0.18647627211E-01  0.25603454737E+01  0.25605848170E+01  0.51109989000E-03 0. -1.
</event>
<event>
 6   3  0.2312675E+03  0.9118800E+02  0.7818608E-02  0.1180000E+00
       11   -1    0    0    0    0  0.00000000000E+00  0.00000000000E+00  0.54999999763E+01  0.55000000000E+01  0.51109989000E-03 0.  1.
     -623   -1    0    0    0    0  0.00000000000E+00  0.00000000000E+00  0.93234578044E-11  0.17124000000E+03  0.17124000000E+03 0.  1.
       11    1    1    2    0    0 -0.11445075080E-01 -0.25992064685E-01  0.89685773722E+00  0.89730743851E+00  0.51109989000E-03 0.  1.
     -623    1    1    2    0    0 -0.42176995545E-02  0.22758534327E-01  0.14372820791E-02  0.17124000157E+03  0.17124000000E+03 0.  1.
     -611    1    1    2    0    0 -0.34746817097E-01  0.14661609315E-01  0.11980870496E+01  0.11986805846E+01  0.51109989000E-03 0. -1.
      611    1    1    2    0    0  0.50409591731E-01 -0.11428078957E-01  0.34036179072E+01  0.34040104065E+01  0.51109989000E-03 0.  1.
</event>
<event>
 6   3  0.2312675E+03  0.9118800E+02  0.7818608E-02  0.1180000E+00
       11   -1    0    0    0    0  0.00000000000E+00  0.00000000000E+00  0.54999999763E+01  0.55000000000E+01  0.51109989000E-03 0. -1.
     -623   -1    0    0    0    0  0.00000000000E+00  0.00000000000E+00  0.93234578044E-11  0.17124000000E+03  0.17124000000E+03 0. -1.
       11    1    1    2    0    0 -0.28954443833E-02 -0.58080195014E-04  0.33622656698E-01  0.33751018326E-01  0.51109989000E-03 0. -1.
     -623    1    1    2    0    0  0.38015207129E-02 -0.82979522903E-03  0.10444790228E-02  0.17124000005E+03  0.17124000000E+03 0. -1.
     -611    1    1    2    0    0 -0.43414929932E-01  0.20846328986E-01  0.19153437036E+01  0.19159491616E+01  0.51109989000E-03 0.  1.
      611    1    1    2    0    0  0.42508853602E-01 -0.19958453562E-01  0.35499891369E+01  0.35502997727E+01  0.51109989000E-03 0. -1.
</event>
<event>
 6   3  0.2312675E+03  0.9118800E+02  0.7818608E-02  0.1180000E+00
       11   -1    0    0    0    0  0.00000000000E+00  0.00000000000E+00  0.54999999763E+01  0.55000000000E+01  0.51109989000E-03 0.  1.
     -623   -1    0    0    0    0  0.00000000000E+00  0.00000000000E+00  0.93234578044E-11  0.17124000000E+03  0.17124000000E+03 0. -1.
       11    1    1    2    0    0 -0.35431098956E-01 -0.17668288135E-01  0.84617334928E+00  0.84709924415E+00  0.51109989000E-03 0.  1.
     -623    1    1    2    0    0  0.24547133915E-01 -0.13593648344E-01  0.15860902977E-02  0.17124000231E+03  0.17124000000E+03 0. -1.
     -611    1    1    2    0    0 -0.29912390777E-01  0.19727824447E-01  0.21656308510E+01  0.21659273261E+01  0.51109989000E-03 0.  1.
      611    1    1    2    0    0  0.40796355818E-01  0.11534112033E-01  0.24866096857E+01  0.24869711234E+01  0.51109989000E-03 0. -1.
</event>
<event>
 6   3  0.2312675E+03  0.9118800E+02  0.7818608E-02  0.1180000E+00
       11   -1    0    0    0    0  0.00000000000E+00  0.00000000000E+00  0.54999999763E+01  0.55000000000E+01  0.51109989000E-03 0.  1.
     -623   -1    0    0    0    0  0.00000000000E+00  0.00000000000E+00  0.93234578044E-11  0.17124000000E+03  0.17124000000E+03 0.  1.
       11    1    1    2    0    0 -0.16377821284E-01 -0.42442243572E-02  0.14762452464E+00  0.14859174933E+00  0.51109989000E-03 0.  1.
     -623    1    1    2    0    0 -0.64839413843E-02 -0.13245854389E-01  0.14185670069E-02  0.17124000064E+03  0.17124000000E+03 0.  1.
     -611    1    1    2    0    0  0.44689932175E-01  0.14777302589E-01  0.33755579350E+01  0.33758861344E+01  0.51109989000E-03 0. -1.
      611    1    1    2    0    0 -0.21828169507E-01  0.27127761569E-02  0.19753989495E+01  0.19755214752E+01  0.51109989000E-03 0.  1.
</event>
<event>
 6   3  0.2312675E+03  0.9118800E+02  0.7818608E-02  0.1180000E+00
       11   -1    0    0    0    0  0.00000000000E+00  0.00000000000E+00  0.54999999763E+01  0.55000000000E+01  0.51109989000E-03 0.  1.
     -623   -1    0    0    0    0  0.00000000000E+00  0.00000000000E+00  0.93234578044E-11  0.17124000000E+03  0.17124000000E+03 0.  1.
       11    1    1    2    0    0 -0.11688487373E+00 -0.51906595443E-01  0.71952806844E+00  0.73080590505E+00  0.51109989000E-03 0.  1.
     -623    1    1    2    0    0 -0.33082566313E-01  0.66773420883E-02  0.13857029743E-01  0.17124000389E+03  0.17124000000E+03 0.  1.
     -611    1    1    2    0    0  0.10516477798E+00  0.33814008908E-01  0.33443673016E+01  0.33461912568E+01  0.51109989000E-03 0.  1.
      611    1    1    2    0    0  0.44802662079E-01  0.11415244450E-01  0.14222475769E+01  0.14229989521E+01  0.51109989000E-03 0. -1.
</event>
<event>
 6   3  0.2312675E+03  0.9118800E+02  0.7818608E-02  0.1180000E+00
       11   -1    0    0    0    0  0.00000000000E+00  0.00000000000E+00  0.54999999763E+01  0.55000000000E+01  0.51109989000E-03 0. -1.
     -623   -1    0    0    0    0  0.00000000000E+00  0.00000000000E+00  0.93234578044E-11  0.17124000000E+03  0.17124000000E+03 0. -1.
       11    1    1    2    0    0 -0.19043698482E-01  0.15905942995E-01  0.21639188602E+00  0.21781040157E+00  0.51109989000E-03 0. -1.
     -623    1    1    2    0    0  0.10341965026E-01 -0.80265900666E-04  0.22567880183E-02  0.17124000033E+03  0.17124000000E+03 0. -1.
     -611    1    1    2    0    0  0.46689888229E-01  0.19679077375E-02  0.36478217355E+01  0.36481210909E+01  0.51109989000E-03 0.  1.
      611    1    1    2    0    0 -0.37988154772E-01 -0.17793584832E-01  0.16335295666E+01  0.16340681803E+01  0.51109989000E-03 0. -1.
</event>
<event>
 6   3  0.2312675E+03  0.9118800E+02  0.7818608E-02  0.1180000E+00
       11   -1    0    0    0    0  0.00000000000E+00  0.00000000000E+00  0.54999999763E+01  0.55000000000E+01  0.51109989000E-03 0. -1.
     -623   -1    0    0    0    0  0.00000000000E+00  0.00000000000E+00  0.93234578044E-11  0.17124000000E+03  0.17124000000E+03 0.  1.
       11    1    1    2    0    0 -0.63699072057E-01  0.96411462820E-02  0.84364372313E+00  0.84610018099E+00  0.51109989000E-03 0. -1.
     -623    1    1    2    0    0  0.69739405973E-02 -0.85884832551E-02  0.28028057510E-02  0.17124000038E+03  0.17124000000E+03 0.  1.
     -611    1    1    2    0    0  0.33387119038E-01 -0.59607206673E-03  0.27142704058E+01  0.27144758522E+01  0.51109989000E-03 0. -1.
      611    1    1    2    0    0  0.23338012352E-01 -0.45659095897E-03  0.19392830358E+01  0.19394235807E+01  0.51109989000E-03 0. -1.
</event>
<event>
 6   3  0.2312675E+03  0.9118800E+02  0.7818608E-02  0.1180000E+00
       11   -1    0    0    0    0  0.00000000000E+00  0.00000000000E+00  0.54999999763E+01  0.55000000000E+01  0.51109989000E-03 0. -1.
     -623   -1    0    0    0    0  0.00000000000E+00  0.00000000000E+00  0.93234578044E-11  0.17124000000E+03  0.17124000000E+03 0. -1.
       11    1    1    2    0    0  0.18111868838E-02 -0.34089220640E-02  0.38345957582E-01  0.38543155470E-01  0.51109989000E-03 0. -1.
     -623    1    1    2    0    0  0.98881774314E-01 -0.26257012914E-01  0.12368987948E-02  0.17124003057E+03  0.17124000000E+03 0. -1.
     -611    1    1    2    0    0 -0.29422486951E-01  0.92160567528E-02  0.16124913097E+01  0.16127861307E+01  0.51109989000E-03 0. -1.
      611    1    1    2    0    0 -0.71270474229E-01  0.20449878221E-01  0.38479258093E+01  0.38486401460E+01  0.51109989000E-03 0. -1.
</event>
<event>
 6   3  0.2312675E+03  0.9118800E+02  0.7818608E-02  0.1180000E+00
       11   -1    0    0    0    0  0.00000000000E+00  0.00000000000E+00  0.54999999763E+01  0.55000000000E+01  0.51109989000E-03 0.  1.
     -623   -1    0    0    0    0  0.00000000000E+00  0.00000000000E+00  0.93234578044E-11  0.17124000000E+03  0.17124000000E+03 0. -1.
       11    1    1    2    0    0 -0.66848868004E-01 -0.38242480849E-02  0.10894245822E+01  0.10914804522E+01  0.51109989000E-03 0.  1.
     -623    1    1    2    0    0  0.18407734849E-01  0.91978960892E-02  0.23321586470E-02  0.17124000125E+03  0.17124000000E+03 0. -1.
     -611    1    1    2    0    0  0.36548426313E-01 -0.63612974729E-02  0.34959980271E+01  0.34961948917E+01  0.51109989000E-03 0.  1.
      611    1    1    2    0    0  0.11892706845E-01  0.98764946835E-03  0.91224520857E+00  0.91232340412E+00  0.51109989000E-03 0. -1.
</event>
<event>
 6   3  0.2312675E+03  0.9118800E+02  0.7818608E-02  0.1180000E+00
       11   -1    0    0    0    0  0.00000000000E+00  0.00000000000E+00  0.54999999763E+01  0.55000000000E+01  0.51109989000E-03 0.  1.
     -623   -1    0    0    0    0  0.00000000000E+00  0.00000000000E+00  0.93234578044E-11  0.17124000000E+03  0.17124000000E+03 0.  1.
       11    1    1    2    0    0 -0.13895487194E-01 -0.53087133028E-02  0.26386314137E+00  0.26428258664E+00  0.51109989000E-03 0.  1.
     -623    1    1    2    0    0  0.65536137127E-02  0.26096721693E-01  0.12816289908E-02  0.17124000212E+03  0.17124000000E+03 0.  1.
     -611    1    1    2    0    0 -0.32765809494E-01 -0.24528727293E-01  0.12787241406E+01  0.12793791251E+01  0.51109989000E-03 0. -1.
      611    1    1    2    0    0  0.40107682976E-01  0.37407189028E-02  0.39561310653E+01  0.39563361695E+01  0.51109989000E-03 0.  1.
</event>
<event>
 6   3  0.2312675E+03  0.9118800E+02  0.7818608E-02  0.1180000E+00
       11   -1    0    0    0    0  0.00000000000E+00  0.00000000000E+00  0.54999999763E+01  0.55000000000E+01  0.51109989000E-03 0.  1.
     -623   -1    0    0    0    0  0.00000000000E+00  0.00000000000E+00  0.93234578044E-11  0.17124000000E+03  0.17124000000E+03 0.  1.
       11    1    1    2    0    0  0.36775744305E-01 -0.61059840376E-03  0.20964613698E+00  0.21284875422E+00  0.51109989000E-03 0.  1.
     -623    1    1    2    0    0  0.20451395753E-01  0.41481887448E-02  0.35247980110E-02  0.17124000131E+03  0.17124000000E+03 0.  1.
     -611    1    1    2    0    0 -0.80162685745E-02  0.13915901623E-02  0.51414879052E+00  0.51421341591E+00  0.51109989000E-03 0. -1.
      611    1    1    2    0    0 -0.49210871484E-01 -0.49291805035E-02  0.47726802508E+01  0.47729365221E+01  0.51109989000E-03 0.  1.
</event>
<event>
 6   3  0.2312675E+03  0.9118800E+02  0.7818608E-02  0.1180000E+00
       11   -1    0    0    0    0  0.00000000000E+00  0.00000000000E+00  0.54999999763E+01  0.55000000000E+01  0.51109989000E-03 0. -1.
     -623   -1    0    0    0    0  0.00000000000E+00  0.00000000000E+00  0.93234578044E-11  0.17124000000E+03  0.17124000000E+03 0. -1.
       11    1    1    2    0    0  0.30338347245E-02  0.50804907834E-03  0.48600014833E+00  0.48601015181E+00  0.51109989000E-03 0. -1.
     -623    1    1    2    0    0  0.52521555012E-01  0.17977988088E-01  0.36403623898E-03  0.17124000900E+03  0.17124000000E+03 0. -1.
     -611    1    1    2    0    0 -0.40258938441E-01 -0.10843379102E-01  0.34968466308E+01  0.34970952206E+01  0.51109989000E-03 0. -1.
      611    1    1    2    0    0 -0.15296451293E-01 -0.76426580633E-02  0.15167891605E+01  0.15168856286E+01  0.51109989000E-03 0.  1.
</event>
<event>
 6   3  0.2312675E+03  0.9118800E+02  0.7818608E-02  0.1180000E+00
       11   -1    0    0    0    0  0.00000000000E+00  0.00000000000E+00  0.54999999763E+01  0.55000000000E+01  0.51109989000E-03 0. -1.
     -623   -1    0    0    0    0  0.00000000000E+00  0.00000000000E+00  0.93234578044E-11  0.17124000000E+03  0.17124000000E+03 0.  1.
       11    1    1    2    0    0  0.29920462134E-01  0.56439819429E-02  0.68195646909E+00  0.68263604911E+00  0.51109989000E-03 0. -1.
     -623    1    1    2    0    0  0.46717223060E-01 -0.43483641416E-01  0.15531148961E-02  0.17124001190E+03  0.17124000000E+03 0.  1.
     -611    1    1    2    0    0 -0.16300189630E-01  0.12245446666E-01  0.58767627087E+00  0.58803002279E+00  0.51109989000E-03 0. -1.
      611    1    1    2    0    0 -0.60337495565E-01  0.25594212809E-01  0.42288141215E+01  0.42293220276E+01  0.51109989000E-03 0.  1.
</event>
<event>
 6   3  0.2312675E+03  0.9118800E+02  0.7818608E-02  0.1180000E+00
       11   -1    0    0    0    0  0.00000000000E+00  0.00000000000E+00  0.54999999763E+01  0.55000000000E+01  0.51109989000E-03 0.  1.
     -623   -1    0    0    0    0  0.00000000000E+00  0.00000000000E+00  0.93234578044E-11  0.17124000000E+03  0.17124000000E+03 0.  1.
       11    1    1    2    0    0 -0.46779316233E-02  0.59126784891E-02  0.11124088774E+00  0.11149726068E+00  0.51109989000E-03 0.  1.
     -623    1    1    2    0    0  0.23038777847E-02 -0.48310889069E-02  0.14777696945E-02  0.17124000009E+03  0.17124000000E+03 0.  1.
     -611    1    1    2    0    0  0.49618028299E-01  0.29102935864E-03  0.12979695370E+01  0.12989177086E+01  0.51109989000E-03 0. -1.
      611    1    1    2    0    0 -0.47243974460E-01 -0.13726189408E-02  0.40893117818E+01  0.40895849407E+01  0.51109989000E-03 0.  1.
</event>
<event>
 6   3  0.2312675E+03  0.9118800E+02  0.7818608E-02  0.1180000E+00
       11   -1    0    0    0    0  0.00000000000E+00  0.00000000000E+00  0.54999999763E+01  0.55000000000E+01  0.51109989000E-03 0.  1.
     -623   -1    0    0    0    0  0.00000000000E+00  0.00000000000E+00  0.93234578044E-11  0.17124000000E+03  0.17124000000E+03 0. -1.
       11    1    1    2    0    0  0.36321870509E-01 -0.58413103552E-02  0.53343323950E+00  0.53470055303E+00  0.51109989000E-03 0.  1.
     -623    1    1    2    0    0 -0.77309572599E-02 -0.24586034589E-02  0.16029765866E-02  0.17124000020E+03  0.17124000000E+03 0. -1.
     -611    1    1    2    0    0  0.13608388907E-01 -0.30866539719E-02  0.12870620683E+01  0.12871378110E+01  0.51109989000E-03 0. -1.
      611    1    1    2    0    0 -0.42199302156E-01  0.11386567786E-01  0.36779016920E+01  0.36781614364E+01  0.51109989000E-03 0.  1.
</event>
<event>
 6   3  0.2312675E+03  0.9118800E+02  0.7818608E-02  0.1180000E+00
       11   -1    0    0    0    0  0.00000000000E+00  0.00000000000E+00  0.54999999763E+01  0.55000000000E+01  0.51109989000E-03 0. -1.
     -623   -1    0    0    0    0  0.00000000000E+00  0.00000000000E+00  0.93234578044E-11  0.17124000000E+03  0.17124000000E+03 0.  1.
       11    1    1    2    0    0  0.32386684635E-01  0.63930340868E-02  0.62792327052E+00  0.62879063536E+00  0.51109989000E-03 0. -1.
     -623    1    1    2    0    0  0.23553443905E-01  0.32910191713E-02  0.12016669936E-02  0.17124000166E+03  0.17124000000E+03 0.  1.
     -611    1    1    2    0    0 -0.21502378242E-01 -0.17294033828E-02  0.18228134200E+01  0.18229411314E+01  0.51109989000E-03 0.  1.
      611    1    1    2    0    0 -0.34437750308E-01 -0.79546498771E-02  0.30480616197E+01  0.30482665786E+01  0.51109989000E-03 0. -1.
</event>
<event>
 6   3  0.2312675E+03  0.9118800E+02  0.7818608E-02  0.1180000E+00
       11   -1    0    0    0    0  0.00000000000E+00  0.00000000000E+00  0.54999999763E+01  0.55000000000E+01  0.51109989000E-03 0.  1.
     -623   -1    0    0    0    0  0.00000000000E+00  0.00000000000E+00  0.93234578044E-11  0.17124000000E+03  0.17124000000E+03 0. -1.
       11    1    1    2    0    0 -0.30081724288E-02 -0.55574680765E-02  0.16796101677E+00  0.16808063223E+00  0.51109989000E-03 0.  1.
     -623    1    1    2    0    0  0.31949137135E-02  0.75622378754E-02  0.14216133556E-02  0.17124000020E+03  0.17124000000E+03 0. -1.
     -611    1    1    2    0    0 -0.46816765779E-01 -0.29370888912E-01  0.36834179199E+01  0.36838325549E+01  0.51109989000E-03 0.  1.
      611    1    1    2    0    0  0.46630024494E-01  0.27366119113E-01  0.16471994263E+01  0.16480866103E+01  0.51109989000E-03 0. -1.
</event>
<event>
 6   3  0.2312675E+03  0.9118800E+02  0.7818608E-02  0.1180000E+00
       11   -1    0    0    0    0  0.00000000000E+00  0.00000000000E+00  0.54999999763E+01  0.55000000000E+01  0.51109989000E-03 0.  1.
     -623   -1    0    0    0    0  0.00000000000E+00  0.00000000000E+00  0.93234578044E-11  0.17124000000E+03  0.17124000000E+03 0. -1.
       11    1    1    2    0    0 -0.41615541257E-01 -0.14050031159E-01  0.40837081221E+00  0.41072647607E+00  0.51109989000E-03 0.  1.
     -623    1    1    2    0    0 -0.24698764687E-01 -0.11268833986E-02  0.28135866169E-02  0.17124000181E+03  0.17124000000E+03 0. -1.
     -611    1    1    2    0    0  0.56877692774E-01  0.12220023447E-01  0.44188778345E+01  0.44192607954E+01  0.51109989000E-03 0.  1.
      611    1    1    2    0    0  0.94366131670E-02  0.29568911091E-02  0.66993774264E+00  0.67001092014E+00  0.51109989000E-03 0. -1.
</event>
<event>
 6   3  0.2312675E+03  0.9118800E+02  0.7818608E-02  0.1180000E+00
       11   -1    0    0    0    0  0.00000000000E+00  0.00000000000E+00  0.54999999763E+01  0.55000000000E+01  0.51109989000E-03 0. -1.
     -623   -1    0    0    0    0  0.00000000000E+00  0.00000000000E+00  0.93234578044E-11  0.17124000000E+03  0.17124000000E+03 0. -1.
       11    1    1    2    0    0  0.43573939365E-02 -0.16379145716E-01  0.37166960554E+00  0.37205620570E+00  0.51109989000E-03 0. -1.
     -623    1    1    2    0    0 -0.27176097437E-02  0.43999483667E-02  0.32016493871E-02  0.17124000011E+03  0.17124000000E+03 0. -1.
     -611    1    1    2    0    0 -0.42831931015E-01 -0.62529090980E-01  0.32492939405E+01  0.32501778158E+01  0.51109989000E-03 0. -1.
      611    1    1    2    0    0  0.41192146822E-01  0.74508288329E-01  0.18758347808E+01  0.18777658705E+01  0.51109989000E-03 0.  1.
</event>
<event>
 6   3  0.2312675E+03  0.9118800E+02  0.7818608E-02  0.1180000E+00
       11   -1    0    0    0    0  0.00000000000E+00  0.00000000000E+00  0.54999999763E+01  0.55000000000E+01  0.51109989000E-03 0. -1.
     -623   -1    0    0    0    0  0.00000000000E+00  0.00000000000E+00  0.93234578044E-11  0.17124000000E+03  0.17124000000E+03 0. -1.
       11    1    1    2    0    0  0.34320072746E-03 -0.29785602848E-02  0.47381415278E+00  0.47382391477E+00  0.51109989000E-03 0. -1.
     -623    1    1    2    0    0 -0.54206199673E-01 -0.64132686748E-02  0.31621063721E-03  0.17124000870E+03  0.17124000000E+03 0. -1.
     -611    1    1    2    0    0  0.46429421733E-01  0.80493230152E-02  0.42893118691E+01  0.42895707308E+01  0.51109989000E-03 0. -1.
      611    1    1    2    0    0  0.74335771984E-02  0.13425059415E-02  0.73655774254E+00  0.73659665334E+00  0.51109989000E-03 0.  1.
</event>
<event>
 6   3  0.2312675E+03  0.9118800E+02  0.7818608E-02  0.1180000E+00
       11   -1    0    0    0    0  0.00000000000E+00  0.00000000000E+00  0.54999999763E+01  0.55000000000E+01  0.51109989000E-03 0. -1.
     -623   -1    0    0    0    0  0.00000000000E+00  0.00000000000E+00  0.93234578044E-11  0.17124000000E+03  0.17124000000E+03 0. -1.
       11    1    1    2    0    0 -0.55679640609E-01  0.13576536731E-01  0.92075890493E+00  0.92254092970E+00  0.51109989000E-03 0. -1.
     -623    1    1    2    0    0  0.34501617202E-02 -0.21009628191E-01  0.21045920416E-02  0.17124000134E+03  0.17124000000E+03 0. -1.
     -611    1    1    2    0    0  0.15296912051E-01  0.72202542159E-02  0.12014181436E+01  0.12015373255E+01  0.51109989000E-03 0.  1.
      611    1    1    2    0    0  0.36932566839E-01  0.21283724481E-03  0.33757183357E+01  0.33759204083E+01  0.51109989000E-03 0. -1.
</event>
<event>
 6   3  0.2312675E+03  0.9118800E+02  0.7818608E-02  0.1180000E+00
       11   -1    0    0    0    0  0.00000000000E+00  0.00000000000E+00  0.54999999763E+01  0.55000000000E+01  0.51109989000E-03 0. -1.
     -623   -1    0    0    0    0  0.00000000000E+00  0.00000000000E+00  0.93234578044E-11  0.17124000000E+03  0.17124000000E+03 0.  1.
       11    1    1    2    0    0 -0.58173272873E-03  0.10909744444E-01  0.95609370971E-01  0.96232915249E-01  0.51109989000E-03 0. -1.
     -623    1    1    2    0    0 -0.10484808104E-03 -0.83471754917E-02  0.23701100222E-02  0.17124000022E+03  0.17124000000E+03 0.  1.
     -611    1    1    2    0    0  0.52834965891E-01 -0.15201168473E-01  0.43750168397E+01  0.43753622957E+01  0.51109989000E-03 0. -1.
      611    1    1    2    0    0 -0.52148385082E-01  0.12638599520E-01  0.10270036556E+01  0.10284045692E+01  0.51109989000E-03 0.  1.
</event>
<event>
 6   3  0.2312675E+03  0.9118800E+02  0.7818608E-02  0.1180000E+00
       11   -1    0    0    0    0  0.00000000000E+00  0.00000000000E+00  0.54999999763E+01  0.55000000000E+01  0.51109989000E-03 0. -1.
     -623   -1    0    0    0    0  0.00000000000E+00  0.00000000000E+00  0.93234578044E-11  0.17124000000E+03  0.17124000000E+03 0. -1.
       11    1    1    2    0    0  0.15532405782E-01  0.42798071815E-01  0.10207527772E+01  0.10217677935E+01  0.51109989000E-03 0. -1.
     -623    1    1    2    0    0  0.36363152037E-01 -0.25019601440E-01  0.13570877920E-02  0.17124000569E+03  0.17124000000E+03 0. -1.
     -611    1    1    2    0    0 -0.82594372489E-02 -0.23448201231E-02  0.70852456592E+00  0.70857676946E+00  0.51109989000E-03 0. -1.
      611    1    1    2    0    0 -0.43636120603E-01 -0.15433650263E-01  0.37693655483E+01  0.37696497459E+01  0.51109989000E-03 0. -1.
</event>
<event>
 6   3  0.2312675E+03  0.9118800E+02  0.7818608E-02  0.1180000E+00
       11   -1    0    0    0    0  0.00000000000E+00  0.00000000000E+00  0.54999999763E+01  0.55000000000E+01  0.51109989000E-03 0.  1.
     -623   -1    0    0    0    0  0.00000000000E+00  0.00000000000E+00  0.93234578044E-11  0.17124000000E+03  0.17124000000E+03 0.  1.
       11    1    1    2    0    0  0.22296038161E-01  0.26190191021E-01  0.19594379901E+00  0.19894037553E+00  0.51109989000E-03 0.  1.
     -623    1    1    2    0    0 -0.72884379729E-02 -0.53773883755E-01  0.40391441453E-02  0.17124000865E+03  0.17124000000E+03 0.  1.
     -611    1    1    2    0    0 -0.49788982666E-01  0.13135581652E-01  0.43251687136E+01  0.43254752512E+01  0.51109989000E-03 0.  1.
      611    1    1    2    0    0  0.34781382478E-01  0.14448111082E-01  0.97484831944E+00  0.97557572726E+00  0.51109989000E-03 0. -1.
</event>
<event>
 6   3  0.2312675E+03  0.9118800E+02  0.7818608E-02  0.1180000E+00
       11   -1    0    0    0    0  0.00000000000E+00  0.00000000000E+00  0.54999999763E+01  0.55000000000E+01  0.51109989000E-03 0.  1.
     -623   -1    0    0    0    0  0.00000000000E+00  0.00000000000E+00  0.93234578044E-11  0.17124000000E+03  0.17124000000E+03 0.  1.
       11    1    1    2    0    0 -0.21471995670E-01 -0.18526758270E-01  0.44327792343E+00  0.44418449545E+00  0.51109989000E-03 0.  1.
     -623    1    1    2    0    0  0.91933804181E-02  0.35217492562E-01  0.17812657145E-02  0.17124000388E+03  0.17124000000E+03 0.  1.
     -611    1    1    2    0    0 -0.38737361574E-01 -0.26362377685E-02  0.16325103968E+01  0.16329721338E+01  0.51109989000E-03 0. -1.
      611    1    1    2    0    0  0.51015976826E-01 -0.14054496524E-01  0.34224303902E+01  0.34228394932E+01  0.51109989000E-03 0.  1.
</event>
<event>
 6   3  0.2312675E+03  0.9118800E+02  0.7818608E-02  0.1180000E+00
       11   -1    0    0    0    0  0.00000000000E+00  0.00000000000E+00  0.54999999763E+01  0.55000000000E+01  0.51109989000E-03 0. -1.
     -623   -1    0    0    0    0  0.00000000000E+00  0.00000000000E+00  0.93234578044E-11  0.17124000000E+03  0.17124000000E+03 0.  1.
       11    1    1    2    0    0 -0.58346579612E-02  0.10048767029E-02  0.19590280377E+00  0.19599291508E+00  0.51109989000E-03 0. -1.
     -623    1    1    2    0    0 -0.86614272910E-04  0.78037142984E-03  0.50391579717E-03  0.17124000000E+03  0.17124000000E+03 0.  1.
     -611    1    1    2    0    0  0.32603476554E-01 -0.15564682602E-01  0.30319090357E+01  0.30321243226E+01  0.51109989000E-03 0. -1.
      611    1    1    2    0    0 -0.26682204320E-01  0.13779434469E-01  0.22716842206E+01  0.22718827593E+01  0.51109989000E-03 0.  1.
</event>
<event>
 6   3  0.2312675E+03  0.9118800E+02  0.7818608E-02  0.1180000E+00
       11   -1    0    0    0    0  0.00000000000E+00  0.00000000000E+00  0.54999999763E+01  0.55000000000E+01  0.51109989000E-03 0.  1.
     -623   -1    0    0    0    0  0.00000000000E+00  0.00000000000E+00  0.93234578044E-11  0.17124000000E+03  0.17124000000E+03 0.  1.
       11    1    1    2    0    0 -0.15998262842E-01  0.35651792012E-01  0.35487758676E+00  0.35702290892E+00  0.51109989000E-03 0.  1.
     -623    1    1    2    0    0 -0.75310102860E-01 -0.28548797172E-01  0.29800281367E-02  0.17124001897E+03  0.17124000000E+03 0.  1.
     -611    1    1    2    0    0  0.61615551228E-01 -0.48191212028E-02  0.34392740689E+01  0.34398293682E+01  0.51109989000E-03 0.  1.
      611    1    1    2    0    0  0.29692814538E-01 -0.22838736428E-02  0.17028682961E+01  0.17031287603E+01  0.51109989000E-03 0. -1.
</event>
<event>
 6   3  0.2312675E+03  0.9118800E+02  0.7818608E-02  0.1180000E+00
       11   -1    0    0    0    0  0.00000000000E+00  0.00000000000E+00  0.54999999763E+01  0.55000000000E+01  0.51109989000E-03 0. -1.
     -623   -1    0    0    0    0  0.00000000000E+00  0.00000000000E+00  0.93234578044E-11  0.17124000000E+03  0.17124000000E+03 0.  1.
       11    1    1    2    0    0 -0.91741488320E-03 -0.75055938333E-02  0.66281659072E-01  0.66713530422E-01  0.51109989000E-03 0. -1.
     -623    1    1    2    0    0  0.41134323906E-02  0.58862456535E-02  0.32729239604E-02  0.17124000018E+03  0.17124000000E+03 0.  1.
     -611    1    1    2    0    0 -0.85983608621E-01 -0.23531103527E-01  0.27333586348E+01  0.27348119828E+01  0.51109989000E-03 0. -1.
      611    1    1    2    0    0  0.82787591113E-01  0.25150451706E-01  0.26970867585E+01  0.26984743049E+01  0.51109989000E-03 0.  1.
</event>
<event>
 6   3  0.2312675E+03  0.9118800E+02  0.7818608E-02  0.1180000E+00
       11   -1    0    0    0    0  0.00000000000E+00  0.00000000000E+00  0.54999999763E+01  0.55000000000E+01  0.51109989000E-03 0.  1.
     -623   -1    0    0    0    0  0.00000000000E+00  0.00000000000E+00  0.93234578044E-11  0.17124000000E+03  0.17124000000E+03 0.  1.
       11    1    1    2    0    0 -0.12627598699E-01  0.33292812679E-01  0.60717890424E+00  0.60822228717E+00  0.51109989000E-03 0.  1.
     -623    1    1    2    0    0  0.40960023167E-02 -0.87635006789E-02  0.25328692548E-02  0.17124000029E+03  0.17124000000E+03 0.  1.
     -611    1    1    2    0    0  0.47752688398E-01 -0.28583645776E-01  0.12113646805E+01  0.12126425666E+01  0.51109989000E-03 0. -1.
      611    1    1    2    0    0 -0.39221092016E-01  0.40543337761E-02  0.36789235223E+01  0.36791348543E+01  0.51109989000E-03 0.  1.
</event>
<event>
 6   3  0.2312675E+03  0.9118800E+02  0.7818608E-02  0.1180000E+00
       11   -1    0    0    0    0  0.00000000000E+00  0.00000000000E+00  0.54999999763E+01  0.55000000000E+01  0.51109989000E-03 0.  1.
     -623   -1    0    0    0    0  0.00000000000E+00  0.00000000000E+00  0.93234578044E-11  0.17124000000E+03  0.17124000000E+03 0.  1.
       11    1    1    2    0    0  0.11472788023E-03 -0.70781689496E-03  0.17698794113E+00  0.17699013163E+00  0.51109989000E-03 0.  1.
     -623    1    1    2    0    0 -0.65212895233E-01  0.18261656092E-01  0.44282485572E-03  0.17124001339E+03  0.17124000000E+03 0.  1.
     -611    1    1    2    0    0  0.27072994287E-01 -0.71889623475E-02  0.21645170358E+01  0.21646983364E+01  0.51109989000E-03 0. -1.
      611    1    1    2    0    0  0.38025173060E-01 -0.10364876847E-01  0.31580521738E+01  0.31582981395E+01  0.51109989000E-03 0.  1.
</event>
<event>
 6   3  0.2312675E+03  0.9118800E+02  0.7818608E-02  0.1180000E+00
       11   -1    0    0    0    0  0.00000000000E+00  0.00000000000E+00  0.54999999763E+01  0.55000000000E+01  0.51109989000E-03 0.  1.
     -623   -1    0    0    0    0  0.00000000000E+00  0.00000000000E+00  0.93234578044E-11  0.17124000000E+03  0.17124000000E+03 0. -1.
       11    1    1    2    0    0  0.25519388871E-01  0.36620950040E-01  0.17410479133E+00  0.17973611984E+00  0.51109989000E-03 0.  1.
     -623    1    1    2    0    0 -0.10969139958E-01  0.26948823583E-01  0.69556060606E-02  0.17124000261E+03  0.17124000000E+03 0. -1.
     -611    1    1    2    0    0 -0.55291335324E-01 -0.52286542644E-01  0.35661598268E+01  0.35669717108E+01  0.51109989000E-03 0.  1.
      611    1    1    2    0    0  0.40741086411E-01 -0.11283230979E-01  0.17527797521E+01  0.17532895562E+01  0.51109989000E-03 0. -1.
</event>
<event>
 6   3  0.2312675E+03  0.9118800E+02  0.7818608E-02  0.1180000E+00
       11   -1    0    0    0    0  0.00000000000E+00  0.00000000000E+00  0.54999999763E+01  0.55000000000E+01  0.51109989000E-03 0.  1.
     -623   -1    0    0    0    0  0.00000000000E+00  0.00000000000E+00  0.93234578044E-11  0.17124000000E+03  0.17124000000E+03 0.  1.
       11    1    1    2    0    0  0.58123864353E-01 -0.14643371054E-01  0.65592030367E+00  0.65865356441E+00  0.51109989000E-03 0.  1.
     -623    1    1    2    0    0 -0.86890318780E-02  0.13222858452E-02  0.30055110557E-02  0.17124000025E+03  0.17124000000E+03 0.  1.
     -611    1    1    2    0    0 -0.16362162095E-01  0.29148936281E-02  0.16301595870E+01  0.16302443858E+01  0.51109989000E-03 0.  1.
      611    1    1    2    0    0 -0.33072670375E-01  0.10406191580E-01  0.32109145740E+01  0.32111017974E+01  0.51109989000E-03 0.  1.
</event>
<event>
 6   3  0.2312675E+03  0.9118800E+02  0.7818608E-02  0.1180000E+00
       11   -1    0    0    0    0  0.00000000000E+00  0.00000000000E+00  0.54999999763E+01  0.55000000000E+01  0.51109989000E-03 0.  1.
     -623   -1    0    0    0    0  0.00000000000E+00  0.00000000000E+00  0.93234578044E-11  0.17124000000E+03  0.17124000000E+03 0.  1.
       11    1    1    2    0    0  0.28462178317E-01  0.32412132611E-01  0.62822478788E+00  0.62970412676E+00  0.51109989000E-03 0.  1.
     -623    1    1    2    0    0 -0.23822199013E-01 -0.35786813393E-02  0.25733697925E-02  0.17124000171E+03  0.17124000000E+03 0.  1.
     -611    1    1    2    0    0  0.42071591644E-01  0.17740654107E-02  0.13711462857E+01  0.13717928284E+01  0.51109989000E-03 0.  1.
      611    1    1    2    0    0 -0.46711570949E-01 -0.30607516683E-01  0.34980555329E+01  0.34985013310E+01  0.51109989000E-03 0. -1.
</event>
<event>
 6   3  0.2312675E+03  0.9118800E+02  0.7818608E-02  0.1180000E+00
       11   -1    0    0    0    0  0.00000000000E+00  0.00000000000E+00  0.54999999763E+01  0.55000000000E+01  0.51109989000E-03 0. -1.
     -623   -1    0    0    0    0  0.00000000000E+00  0.00000000000E+00  0.93234578044E-11  0.17124000000E+03  0.17124000000E+03 0. -1.
       11    1    1    2    0    0 -0.61957418395E-01 -0.47888256862E-01  0.66784261800E+00  0.67241804741E+00  0.51109989000E-03 0. -1.
     -623    1    1    2    0    0  0.75088859319E-02  0.62142204660E-02  0.50628412156E-02  0.17124000035E+03  0.17124000000E+03 0. -1.
     -611    1    1    2    0    0  0.25255903662E-01  0.19463396427E-01  0.22303494731E+01  0.22305774404E+01  0.51109989000E-03 0. -1.
      611    1    1    2    0    0  0.29192628715E-01  0.22210639904E-01  0.25967450364E+01  0.25970041523E+01  0.51109989000E-03 0. -1.
</event>
<event>
 6   3  0.2312675E+03  0.9118800E+02  0.7818608E-02  0.1180000E+00
       11   -1    0    0    0    0  0.00000000000E+00  0.00000000000E+00  0.54999999763E+01  0.55000000000E+01  0.51109989000E-03 0. -1.
     -623   -1    0    0    0    0  0.00000000000E+00  0.00000000000E+00  0.93234578044E-11  0.17124000000E+03  0.17124000000E+03 0. -1.
       11    1    1    2    0    0  0.44076117531E-01 -0.30582219027E-01  0.46486484115E+00  0.46795037987E+00  0.51109989000E-03 0. -1.
     -623    1    1    2    0    0  0.41657423353E-01 -0.29101110442E-01  0.42073382859E-02  0.17124000759E+03  0.17124000000E+03 0. -1.
     -611    1    1    2    0    0 -0.42007931924E-01  0.27909021786E-01  0.20232935785E+01  0.20239221195E+01  0.51109989000E-03 0. -1.
      611    1    1    2    0    0 -0.43725608961E-01  0.31774307684E-01  0.30076342184E+01  0.30081199092E+01  0.51109989000E-03 0.  1.
</event>
<event>
 6   3  0.2312675E+03  0.9118800E+02  0.7818608E-02  0.1180000E+00
       11   -1    0    0    0    0  0.00000000000E+00  0.00000000000E+00  0.54999999763E+01  0.55000000000E+01  0.51109989000E-03 0.  1.
     -623   -1    0    0    0    0  0.00000000000E+00  0.00000000000E+00  0.93234578044E-11  0.17124000000E+03  0.17124000000E+03 0.  1.
       11    1    1    2    0    0  0.29377571426E-01  0.36311976744E-01  0.89833246228E+00  0.89954603849E+00  0.51109989000E-03 0.  1.
     -623    1    1    2    0    0  0.20626044464E-02  0.99917927467E-02  0.20535218153E-02  0.17124000032E+03  0.17124000000E+03 0.  1.
     -611    1    1    2    0    0  0.20648711764E-01 -0.10384349352E-01  0.16430861618E+01  0.16432487944E+01  0.51109989000E-03 0.  1.
      611    1    1    2    0    0 -0.52088887637E-01 -0.35919420138E-01  0.29565278304E+01  0.29572048509E+01  0.51109989000E-03 0. -1.
</event>
<event>
 6   3  0.2312675E+03  0.9118800E+02  0.7818608E-02  0.1180000E+00
       11   -1    0    0    0    0  0.00000000000E+00  0.00000000000E+00  0.54999999763E+01  0.55000000000E+01  0.51109989000E-03 0.  1.
     -623   -1    0    0    0    0  0.00000000000E+00  0.00000000000E+00  0.93234578044E-11  0.17124000000E+03  0.17124000000E+03 0. -1.
       11    1    1    2    0    0  0.20142579720E-02 -0.75863739899E-01  0.89740825135E+00  0.90061156726E+00  0.51109989000E-03 0.  1.
     -623    1    1    2    0    0 -0.91963817878E-03  0.28196614376E-01  0.57696178987E-02  0.17124000242E+03  0.17124000000E+03 0. -1.
     -611    1    1    2    0    0 -0.55696644914E-01  0.42823692567E-01  0.38139043283E+01  0.38145514115E+01  0.51109989000E-03 0.  1.
      611    1    1    2    0    0  0.54602025121E-01  0.48434329566E-02  0.78291777874E+00  0.78483460007E+00  0.51109989000E-03 0. -1.
</event>
<event>
 6   3  0.2312675E+03  0.9118800E+02  0.7818608E-02  0.1180000E+00
       11   -1    0    0    0    0  0.00000000000E+00  0.00000000000E+00  0.54999999763E+01  0.55000000000E+01  0.51109989000E-03 0. -1.
     -623   -1    0    0    0    0  0.00000000000E+00  0.00000000000E+00  0.93234578044E-11  0.17124000000E+03  0.17124000000E+03 0. -1.
       11    1    1    2    0    0  0.11816428552E-01  0.44451990168E-02  0.58750455813E+00  0.58764041286E+00  0.51109989000E-03 0. -1.
     -623    1    1    2    0    0  0.50663677644E-01 -0.71072279768E-02  0.54178621805E-03  0.17124000764E+03  0.17124000000E+03 0. -1.
     -611    1    1    2    0    0 -0.38605065075E-01  0.17015688832E-02  0.29935672010E+01  0.29938166434E+01  0.51109989000E-03 0. -1.
      611    1    1    2    0    0 -0.23875041204E-01  0.96046008061E-03  0.19183864376E+01  0.19185353072E+01  0.51109989000E-03 0. -1.
</event>
<event>
 6   3  0.2312675E+03  0.9118800E+02  0.7818608E-02  0.1180000E+00
       11   -1    0    0    0    0  0.00000000000E+00  0.00000000000E+00  0.54999999763E+01  0.55000000000E+01  0.51109989000E-03 0. -1.
     -623   -1    0    0    0    0  0.00000000000E+00  0.00000000000E+00  0.93234578044E-11  0.17124000000E+03  0.17124000000E+03 0. -1.
       11    1    1    2    0    0 -0.54853533570E-01  0.98960998612E-02  0.86387533088E+00  0.86567181510E+00  0.51109989000E-03 0. -1.
     -623    1    1    2    0    0 -0.11749888273E-02  0.76144572609E-02  0.21965034753E-02  0.17124000019E+03  0.17124000000E+03 0. -1.
     -611    1    1    2    0    0  0.37161039017E-01 -0.11081240448E-01  0.35898706110E+01  0.35900800829E+01  0.51109989000E-03 0. -1.
      611    1    1    2    0    0  0.18867483379E-01 -0.64293166745E-02  0.10440575309E+01  0.10442479145E+01  0.51109989000E-03 0.  1.
</event>
<event>
 6   3  0.2312675E+03  0.9118800E+02  0.7818608E-02  0.1180000E+00
       11   -1    0    0    0    0  0.00000000000E+00  0.00000000000E+00  0.54999999763E+01  0.55000000000E+01  0.51109989000E-03 0. -1.
     -623   -1    0    0    0    0  0.00000000000E+00  0.00000000000E+00  0.93234578044E-11  0.17124000000E+03  0.17124000000E+03 0. -1.
       11    1    1    2    0    0 -0.10516476004E-01  0.15101064029E-02  0.39863093581E-01  0.41257776743E-01  0.51109989000E-03 0. -1.
     -623    1    1    2    0    0 -0.56701299292E-01  0.21403237348E-01  0.18675397295E-02  0.17124001074E+03  0.17124000000E+03 0. -1.
     -611    1    1    2    0    0  0.45648661960E-01 -0.15225748492E-01  0.37187655605E+01  0.37190769256E+01  0.51109989000E-03 0. -1.
      611    1    1    2    0    0  0.21569113371E-01 -0.76875952706E-02  0.17395037853E+01  0.17396545652E+01  0.51109989000E-03 0. -1.
</event>
<event>
 6   3  0.2312675E+03  0.9118800E+02  0.7818608E-02  0.1180000E+00
       11   -1    0    0    0    0  0.00000000000E+00  0.00000000000E+00  0.54999999763E+01  0.55000000000E+01  0.51109989000E-03 0. -1.
     -623   -1    0    0    0    0  0.00000000000E+00  0.00000000000E+00  0.93234578044E-11  0.17124000000E+03  0.17124000000E+03 0. -1.
       11    1    1    2    0    0  0.33919194065E-02  0.56291758458E-02  0.25232492676E-01  0.26079352901E-01  0.51109989000E-03 0. -1.
     -623    1    1    2    0    0 -0.31715143134E-02 -0.24099254145E-01  0.16910157512E-02  0.17124000173E+03  0.17124000000E+03 0. -1.
     -611    1    1    2    0    0 -0.46306155773E-01  0.20073818408E-03  0.24929542858E+01  0.24933843732E+01  0.51109989000E-03 0.  1.
      611    1    1    2    0    0  0.46085750680E-01  0.18269340115E-01  0.29801221821E+01  0.29805345404E+01  0.51109989000E-03 0. -1.
</event>
<event>
 6   3  0.2312675E+03  0.9118800E+02  0.7818608E-02  0.1180000E+00
       11   -1    0    0    0    0  0.00000000000E+00  0.00000000000E+00  0.54999999763E+01  0.55000000000E+01  0.51109989000E-03 0.  1.
     -623   -1    0    0    0    0  0.00000000000E+00  0.00000000000E+00  0.93234578044E-11  0.17124000000E+03  0.17124000000E+03 0.  1.
       11    1    1    2    0    0  0.18110465274E-01 -0.42847894905E-02  0.10192737437E+01  0.10194437573E+01  0.51109989000E-03 0.  1.
     -623    1    1    2    0    0  0.25148261437E-02 -0.13380672044E-01  0.20994454148E-02  0.17124000055E+03  0.17124000000E+03 0.  1.
     -611    1    1    2    0    0  0.42961144715E-01  0.41629204246E-01  0.15793043189E+01  0.15804369786E+01  0.51109989000E-03 0. -1.
      611    1    1    2    0    0 -0.63586436133E-01 -0.23963742711E-01  0.28993224683E+01  0.29001187100E+01  0.51109989000E-03 0.  1.
</event>
<event>
 6   3  0.2312675E+03  0.9118800E+02  0.7818608E-02  0.1180000E+00
       11   -1    0    0    0    0  0.00000000000E+00  0.00000000000E+00  0.54999999763E+01  0.55000000000E+01  0.51109989000E-03 0. -1.
     -623   -1    0    0    0    0  0.00000000000E+00  0.00000000000E+00  0.93234578044E-11  0.17124000000E+03  0.17124000000E+03 0.  1.
       11    1    1    2    0    0  0.44394965274E-02  0.87877595049E-02  0.10153381627E+01  0.10153860250E+01  0.51109989000E-03 0. -1.
     -623    1    1    2    0    0 -0.50378521054E-01  0.11041055639E-01  0.33490635775E-03  0.17124000777E+03  0.17124000000E+03 0.  1.
     -611    1    1    2    0    0  0.14035508066E-01 -0.62449130392E-02  0.13648425868E+01  0.13649291346E+01  0.51109989000E-03 0.  1.
      611    1    1    2    0    0  0.31903516456E-01 -0.13583902103E-01  0.31194843199E+01  0.31196770731E+01  0.51109989000E-03 0. -1.
</event>
<event>
 6   3  0.2312675E+03  0.9118800E+02  0.7818608E-02  0.1180000E+00
       11   -1    0    0    0    0  0.00000000000E+00  0.00000000000E+00  0.54999999763E+01  0.55000000000E+01  0.51109989000E-03 0.  1.
     -623   -1    0    0    0    0  0.00000000000E+00  0.00000000000E+00  0.93234578044E-11  0.17124000000E+03  0.17124000000E+03 0. -1.
       11    1    1    2    0    0  0.33591483678E-01  0.15205781645E-01  0.36174038461E+00  0.36361514085E+00  0.51109989000E-03 0.  1.
     -623    1    1    2    0    0  0.21625514760E-01  0.31019789731E-02  0.22062409218E-02  0.17124000141E+03  0.17124000000E+03 0. -1.
     -611    1    1    2    0    0 -0.15665932024E-01 -0.62798139274E-02  0.14636477043E+01  0.14637451011E+01  0.51109989000E-03 0.  1.
      611    1    1    2    0    0 -0.39551066409E-01 -0.12027946689E-01  0.36724056460E+01  0.36726383498E+01  0.51109989000E-03 0.  1.
</event>
<event>
 6   3  0.2312675E+03  0.9118800E+02  0.7818608E-02  0.1180000E+00
       11   -1    0    0    0    0  0.00000000000E+00  0.00000000000E+00  0.54999999763E+01  0.55000000000E+01  0.51109989000E-03 0.  1.
     -623   -1    0    0    0    0  0.00000000000E+00  0.00000000000E+00  0.93234578044E-11  0.17124000000E+03  0.17124000000E+03 0.  1.
       11    1    1    2    0    0 -0.15503732483E-02  0.14276916762E-03  0.51389899307E-01  0.51416019042E-01  0.51109989000E-03 0. -1.
     -623    1    1    2    0    0  0.10571407710E+00  0.40117905563E-01  0.12130972291E-02  0.17124003733E+03  0.17124000000E+03 0.  1.
     -611    1    1    2    0    0 -0.23680270360E-01 -0.74987936800E-02  0.10872569741E+01  0.10875407929E+01  0.51109989000E-03 0. -1.
      611    1    1    2    0    0 -0.80483433812E-01 -0.32761881173E-01  0.43601400224E+01  0.43610058702E+01  0.51109989000E-03 0.  1.
</event>
<event>
 6   3  0.2312675E+03  0.9118800E+02  0.7818608E-02  0.1180000E+00
       11   -1    0    0    0    0  0.00000000000E+00  0.00000000000E+00  0.54999999763E+01  0.55000000000E+01  0.51109989000E-03 0.  1.
     -623   -1    0    0    0    0  0.00000000000E+00  0.00000000000E+00  0.93234578044E-11  0.17124000000E+03  0.17124000000E+03 0.  1.
       11    1    1    2    0    0  0.10874236904E-01  0.15883342885E-01  0.23482379614E+00  0.23561198201E+00  0.51109989000E-03 0.  1.
     -623    1    1    2    0    0 -0.10360761993E+00 -0.91568479074E-02  0.16410953186E-02  0.17124003160E+03  0.17124000000E+03 0.  1.
     -611    1    1    2    0    0  0.57919166924E-01 -0.36995880465E-02  0.32907201924E+01  0.32912319825E+01  0.51109989000E-03 0.  1.
      611    1    1    2    0    0  0.34814216076E-01 -0.30269069287E-02  0.19728148906E+01  0.19731244375E+01  0.51109989000E-03 0.  1.
</event>
<event>
 6   3  0.2312675E+03  0.9118800E+02  0.7818608E-02  0.1180000E+00
       11   -1    0    0    0    0  0.00000000000E+00  0.00000000000E+00  0.54999999763E+01  0.55000000000E+01  0.51109989000E-03 0. -1.
     -623   -1    0    0    0    0  0.00000000000E+00  0.00000000000E+00  0.93234578044E-11  0.17124000000E+03  0.17124000000E+03 0.  1.
       11    1    1    2    0    0  0.48672280766E-02 -0.45868016673E-03  0.55184400125E+00  0.55186589243E+00  0.51109989000E-03 0. -1.
     -623    1    1    2    0    0  0.54138222338E-01 -0.18821835379E-01  0.42316551068E-03  0.17124000959E+03  0.17124000000E+03 0.  1.
     -611    1    1    2    0    0 -0.47023133733E-01  0.14051323938E-01  0.37901260200E+01  0.37904437898E+01  0.51109989000E-03 0. -1.
      611    1    1    2    0    0 -0.11982316690E-01  0.52291916109E-02  0.11576067905E+01  0.11576807259E+01  0.51109989000E-03 0.  1.
</event>
<event>
 6   3  0.2312675E+03  0.9118800E+02  0.7818608E-02  0.1180000E+00
       11   -1    0    0    0    0  0.00000000000E+00  0.00000000000E+00  0.54999999763E+01  0.55000000000E+01  0.51109989000E-03 0.  1.
     -623   -1    0    0    0    0  0.00000000000E+00  0.00000000000E+00  0.93234578044E-11  0.17124000000E+03  0.17124000000E+03 0. -1.
       11    1    1    2    0    0  0.14425244319E-01  0.15034876753E-01  0.22187436900E+00  0.22285114322E+00  0.51109989000E-03 0.  1.
     -623    1    1    2    0    0  0.55200938387E-01 -0.60282338102E-01  0.16506174883E-02  0.17124001952E+03  0.17124000000E+03 0. -1.
     -611    1    1    2    0    0 -0.32200714449E-01  0.20061770470E-01  0.24970566450E+01  0.24973448921E+01  0.51109989000E-03 0. -1.
      611    1    1    2    0    0 -0.37425468253E-01  0.25185690876E-01  0.27794183445E+01  0.27797844484E+01  0.51109989000E-03 0.  1.
</event>
<event>
 6   3  0.2312675E+03  0.9118800E+02  0.7818608E-02  0.1180000E+00
       11   -1    0    0    0    0  0.00000000000E+00  0.00000000000E+00  0.54999999763E+01  0.55000000000E+01  0.51109989000E-03 0. -1.
     -623   -1    0    0    0    0  0.00000000000E+00  0.00000000000E+00  0.93234578044E-11  0.17124000000E+03  0.17124000000E+03 0. -1.
       11    1    1    2    0    0  0.57067351172E-02  0.73479440601E-02  0.21327348953E+00  0.21347693474E+00  0.51109989000E-03 0. -1.
     -623    1    1    2    0    0  0.79446692370E-02 -0.36963839776E-02  0.93711543623E-03  0.17124000023E+03  0.17124000000E+03 0. -1.
     -611    1    1    2    0    0  0.26245534241E-01  0.24505811648E-01  0.15591825779E+01  0.15595960808E+01  0.51109989000E-03 0.  1.
      611    1    1    2    0    0 -0.39896938595E-01 -0.28157371730E-01  0.37266067935E+01  0.37269267578E+01  0.51109989000E-03 0. -1.
</event>
<event>
 6   3  0.3788580E+03  0.9118800E+02  0.7818608E-02  0.1180000E+00
       11   -1    0    0    0    0  0.00000000000E+00  0.00000000000E+00  0.54999999763E+01  0.55000000000E+01  0.51109989000E-03 0. -1.
     -623   -1    0    0    0    0  0.00000000000E+00  0.00000000000E+00  0.93234578044E-11  0.17124000000E+03  0.17124000000E+03 0.  1.
       11    1    1    2    0    0 -0.24562728974E-03 -0.13597112573E-02  0.11323502037E-01  0.11418934668E-01  0.51109989000E-03 0. -1.
     -623    1    1    2    0    0 -0.63209538656E-03  0.88777648161E-03  0.51094360369E-03  0.17124000000E+03  0.17124000000E+03 0.  1.
     -611    1    1    2    0    0  0.33230190458E-01 -0.62337935612E-02  0.31630893388E+01  0.31632700695E+01  0.51109989000E-03 0.  1.
      611    1    1    2    0    0 -0.32352467782E-01  0.67057283369E-02  0.23250761920E+01  0.23253109918E+01  0.51109989000E-03 0. -1.
</event>
<event>
 6   3  0.2312675E+03  0.9118800E+02  0.7818608E-02  0.1180000E+00
       11   -1    0    0    0    0  0.00000000000E+00  0.00000000000E+00  0.54999999763E+01  0.55000000000E+01  0.51109989000E-03 0. -1.
     -623   -1    0    0    0    0  0.00000000000E+00  0.00000000000E+00  0.93234578044E-11  0.17124000000E+03  0.17124000000E+03 0. -1.
       11    1    1    2    0    0 -0.73970531018E-02 -0.26910161121E-03  0.96174905113E+00  0.96177767045E+00  0.51109989000E-03 0. -1.
     -623    1    1    2    0    0  0.37893241001E-03  0.77636628687E-03  0.72079402442E-03  0.17124000000E+03  0.17124000000E+03 0. -1.
     -611    1    1    2    0    0  0.40202569769E-01  0.12461441314E-01  0.28930863485E+01  0.28933925442E+01  0.51109989000E-03 0. -1.
      611    1    1    2    0    0 -0.33184449077E-01 -0.12968705990E-01  0.16444437826E+01  0.16448297815E+01  0.51109989000E-03 0.  1.
</event>
<event>
 6   3  0.2312675E+03  0.9118800E+02  0.7818608E-02  0.1180000E+00
       11   -1    0    0    0    0  0.00000000000E+00  0.00000000000E+00  0.54999999763E+01  0.55000000000E+01  0.51109989000E-03 0. -1.
     -623   -1    0    0    0    0  0.00000000000E+00  0.00000000000E+00  0.93234578044E-11  0.17124000000E+03  0.17124000000E+03 0. -1.
       11    1    1    2    0    0 -0.63791725870E-03  0.11128178605E-04  0.17441108089E-04  0.81767325694E-03  0.51109989000E-03 0. -1.
     -623    1    1    2    0    0 -0.10259221658E-03 -0.45895958995E-03  0.24959814262E-02  0.17124000002E+03  0.17124000000E+03 0. -1.
     -611    1    1    2    0    0 -0.34461048451E-01  0.58892058070E-01  0.26478652036E+01  0.26487442753E+01  0.51109989000E-03 0.  1.
      611    1    1    2    0    0  0.35201557926E-01 -0.58444226659E-01  0.28496213501E+01  0.28504380325E+01  0.51109989000E-03 0. -1.
</event>
<event>
 6   3  0.2312675E+03  0.9118800E+02  0.7818608E-02  0.1180000E+00
       11   -1    0    0    0    0  0.00000000000E+00  0.00000000000E+00  0.54999999763E+01  0.55000000000E+01  0.51109989000E-03 0. -1.
     -623   -1    0    0    0    0  0.00000000000E+00  0.00000000000E+00  0.93234578044E-11  0.17124000000E+03  0.17124000000E+03 0.  1.
       11    1    1    2    0    0  0.25467007456E-02  0.22975358312E-02  0.19894353226E-01  0.20194327644E-01  0.51109989000E-03 0. -1.
     -623    1    1    2    0    0  0.59324986754E-02 -0.42306278045E-03  0.60381161997E-03  0.17124000010E+03  0.17124000000E+03 0.  1.
     -611    1    1    2    0    0  0.23856666234E-01  0.55679140840E-02  0.22802121110E+01  0.22803437623E+01  0.51109989000E-03 0.  1.
      611    1    1    2    0    0 -0.32335865655E-01 -0.74423871347E-02  0.31992897006E+01  0.31994618058E+01  0.51109989000E-03 0. -1.
</event>
<event>
 6   3  0.2312675E+03  0.9118800E+02  0.7818608E-02  0.1180000E+00
       11   -1    0    0    0    0  0.00000000000E+00  0.00000000000E+00  0.54999999763E+01  0.55000000000E+01  0.51109989000E-03 0. -1.
     -623   -1    0    0    0    0  0.00000000000E+00  0.00000000000E+00  0.93234578044E-11  0.17124000000E+03  0.17124000000E+03 0. -1.
       11    1    1    2    0    0  0.10449799486E-01 -0.25333377192E-01  0.99233024078E-01  0.10294868916E+00  0.51109989000E-03 0. -1.
     -623    1    1    2    0    0 -0.18109589446E-02  0.32063916506E-02  0.41332300176E-02  0.17124000009E+03  0.17124000000E+03 0. -1.
     -611    1    1    2    0    0  0.27063545243E-01  0.81017951918E-02  0.26242644242E+01  0.26244165263E+01  0.51109989000E-03 0.  1.
      611    1    1    2    0    0 -0.35702385784E-01  0.14025190350E-01  0.27723692980E+01  0.27726346950E+01  0.51109989000E-03 0. -1.
</event>
<event>
 6   3  0.2312675E+03  0.9118800E+02  0.7818608E-02  0.1180000E+00
       11   -1    0    0    0    0  0.00000000000E+00  0.00000000000E+00  0.54999999763E+01  0.55000000000E+01  0.51109989000E-03 0. -1.
     -623   -1    0    0    0    0  0.00000000000E+00  0.00000000000E+00  0.93234578044E-11  0.17124000000E+03  0.17124000000E+03 0. -1.
       11    1    1    2    0    0  0.12212627743E-01  0.46866368331E-02  0.14350384526E+00  0.14409971433E+00  0.51109989000E-03 0. -1.
     -623    1    1    2    0    0  0.49201579050E-03 -0.35715643585E-02  0.17462776175E-02  0.17124000005E+03  0.17124000000E+03 0. -1.
     -611    1    1    2    0    0 -0.59861813143E-01  0.48744890135E-02  0.23165893501E+01  0.23173678335E+01  0.51109989000E-03 0.  1.
      611    1    1    2    0    0  0.47157169610E-01 -0.59895614882E-02  0.30381605031E+01  0.30385324052E+01  0.51109989000E-03 0. -1.
</event>
<event>
 6   3  0.2312675E+03  0.9118800E+02  0.7818608E-02  0.1180000E+00
       11   -1    0    0    0    0  0.00000000000E+00  0.00000000000E+00  0.54999999763E+01  0.55000000000E+01  0.51109989000E-03 0. -1.
     -623   -1    0    0    0    0  0.00000000000E+00  0.00000000000E+00  0.93234578044E-11  0.17124000000E+03  0.17124000000E+03 0. -1.
       11    1    1    2    0    0 -0.55274743844E-01 -0.24506037867E-01  0.84345158268E+00  0.84561615214E+00  0.51109989000E-03 0. -1.
     -623    1    1    2    0    0  0.22262009842E-02 -0.65644699777E-04  0.25319756282E-02  0.17124000003E+03  0.17124000000E+03 0. -1.
     -611    1    1    2    0    0  0.18858406439E-01  0.82647944011E-02  0.16440877368E+01  0.16442167418E+01  0.51109989000E-03 0.  1.
      611    1    1    2    0    0  0.34190136413E-01  0.16306888162E-01  0.30099286805E+01  0.30101670723E+01  0.51109989000E-03 0. -1.
</event>
<event>
 6   3  0.2312675E+03  0.9118800E+02  0.7818608E-02  0.1180000E+00
       11   -1    0    0    0    0  0.00000000000E+00  0.00000000000E+00  0.54999999763E+01  0.55000000000E+01  0.51109989000E-03 0.  1.
     -623   -1    0    0    0    0  0.00000000000E+00  0.00000000000E+00  0.93234578044E-11  0.17124000000E+03  0.17124000000E+03 0. -1.
       11    1    1    2    0    0  0.18452922919E-02  0.18499710629E-02  0.24111710303E+00  0.24113180232E+00  0.51109989000E-03 0.  1.
     -623    1    1    2    0    0 -0.10075023403E-02  0.85825545190E-03  0.80217645934E-03  0.17124000001E+03  0.17124000000E+03 0. -1.
     -611    1    1    2    0    0  0.43669256496E-01 -0.12478533129E-01  0.26739461247E+01  0.26743318524E+01  0.51109989000E-03 0. -1.
      611    1    1    2    0    0 -0.44507046447E-01  0.97703066147E-02  0.25841345720E+01  0.25845363382E+01  0.51109989000E-03 0.  1.
</event>
<event>
 6   3  0.2312675E+03  0.9118800E+02  0.7818608E-02  0.1180000E+00
       11   -1    0    0    0    0  0.00000000000E+00  0.00000000000E+00  0.54999999763E+01  0.55000000000E+01  0.51109989000E-03 0. -1.
     -623   -1    0    0    0    0  0.00000000000E+00  0.00000000000E+00  0.93234578044E-11  0.17124000000E+03  0.17124000000E+03 0. -1.
       11    1    1    2    0    0  0.38701922117E-02  0.38300932404E-02  0.84675108730E-01  0.84851536601E-01  0.51109989000E-03 0. -1.
     -623    1    1    2    0    0  0.34933478073E-03 -0.82885292862E-04  0.50317868714E-03  0.17124000000E+03  0.17124000000E+03 0. -1.
     -611    1    1    2    0    0 -0.31146559885E-01 -0.80120621231E-02  0.28120252730E+01  0.28122092203E+01  0.51109989000E-03 0.  1.
      611    1    1    2    0    0  0.26927032892E-01  0.42648541756E-02  0.26027964161E+01  0.26029392423E+01  0.51109989000E-03 0. -1.
</event>
<event>
 6   3  0.2312675E+03  0.9118800E+02  0.7818608E-02  0.1180000E+00
       11   -1    0    0    0    0  0.00000000000E+00  0.00000000000E+00  0.54999999763E+01  0.55000000000E+01  0.51109989000E-03 0.  1.
     -623   -1    0    0    0    0  0.00000000000E+00  0.00000000000E+00  0.93234578044E-11  0.17124000000E+03  0.17124000000E+03 0. -1.
       11    1    1    2    0    0 -0.65547423545E-02  0.35014463587E-01 -0.10486551158E-02  0.35641804223E-01  0.51109989000E-03 0.  1.
     -623    1    1    2    0    0 -0.61834748748E-02 -0.26974347577E-01  0.41289373766E-01  0.17124000721E+03  0.17124000000E+03 0. -1.
     -611    1    1    2    0    0  0.92953413933E-01  0.57483686511E-01  0.36451357869E+01  0.36467739000E+01  0.51109989000E-03 0.  1.
      611    1    1    2    0    0 -0.80215196704E-01 -0.65523802522E-01  0.18146234707E+01  0.18175770818E+01  0.51109989000E-03 0. -1.
</event>
<event>
 6   3  0.2312675E+03  0.9118800E+02  0.7818608E-02  0.1180000E+00
       11   -1    0    0    0    0  0.00000000000E+00  0.00000000000E+00  0.54999999763E+01  0.55000000000E+01  0.51109989000E-03 0.  1.
     -623   -1    0    0    0    0  0.00000000000E+00  0.00000000000E+00  0.93234578044E-11  0.17124000000E+03  0.17124000000E+03 0. -1.
       11    1    1    2    0    0  0.21808528370E-01 -0.91871770427E-03  0.10580111236E+01  0.10582363889E+01  0.51109989000E-03 0.  1.
     -623    1    1    2    0    0 -0.70912834243E-01  0.32841463426E-02  0.51218980641E-03  0.17124001472E+03  0.17124000000E+03 0. -1.
     -611    1    1    2    0    0  0.33281551940E-01 -0.17834727417E-02  0.29951585258E+01  0.29953440033E+01  0.51109989000E-03 0.  1.
      611    1    1    2    0    0  0.15822753857E-01 -0.58195589302E-03  0.14463181306E+01  0.14464048860E+01  0.51109989000E-03 0.  1.
</event>
<event>
 6   3  0.2312675E+03  0.9118800E+02  0.7818608E-02  0.1180000E+00
       11   -1    0    0    0    0  0.00000000000E+00  0.00000000000E+00  0.54999999763E+01  0.55000000000E+01  0.51109989000E-03 0.  1.
     -623   -1    0    0    0    0  0.00000000000E+00  0.00000000000E+00  0.93234578044E-11  0.17124000000E+03  0.17124000000E+03 0. -1.
       11    1    1    2    0    0 -0.28164342552E-01  0.12377673593E-01  0.58548314293E+00  0.58629106157E+00  0.51109989000E-03 0.  1.
     -623    1    1    2    0    0 -0.24578822403E-01 -0.70828534665E-03  0.11069751850E-02  0.17124000177E+03  0.17124000000E+03 0. -1.
     -611    1    1    2    0    0  0.39443977268E-01 -0.80470075346E-02  0.36613502653E+01  0.36615716036E+01  0.51109989000E-03 0.  1.
      611    1    1    2    0    0  0.13299187635E-01 -0.36223806998E-02  0.12520595881E+01  0.12521355612E+01  0.51109989000E-03 0.  1.
</event>
<event>
 6   3  0.2312675E+03  0.9118800E+02  0.7818608E-02  0.1180000E+00
       11   -1    0    0    0    0  0.00000000000E+00  0.00000000000E+00  0.54999999763E+01  0.55000000000E+01  0.51109989000E-03 0.  1.
     -623   -1    0    0    0    0  0.00000000000E+00  0.00000000000E+00  0.93234578044E-11  0.17124000000E+03  0.17124000000E+03 0. -1.
       11    1    1    2    0    0  0.17823184007E-01  0.13082244603E-01  0.97345669282E+00  0.97370786432E+00  0.51109989000E-03 0.  1.
     -623    1    1    2    0    0  0.25004596844E-02  0.34736716367E-03  0.19634623614E-02  0.17124000003E+03  0.17124000000E+03 0. -1.
     -611    1    1    2    0    0 -0.52614309052E-01  0.74883854887E-02  0.39799284028E+01  0.39802832430E+01  0.51109989000E-03 0.  1.
      611    1    1    2    0    0  0.32290665360E-01 -0.20917997256E-01  0.54465141825E+00  0.54600886284E+00  0.51109989000E-03 0. -1.
</event>
<event>
 6   3  0.2312675E+03  0.9118800E+02  0.7818608E-02  0.1180000E+00
       11   -1    0    0    0    0  0.00000000000E+00  0.00000000000E+00  0.54999999763E+01  0.55000000000E+01  0.51109989000E-03 0. -1.
     -623   -1    0    0    0    0  0.00000000000E+00  0.00000000000E+00  0.93234578044E-11  0.17124000000E+03  0.17124000000E+03 0.  1.
       11    1    1    2    0    0  0.23232533004E-01 -0.28414917287E-01  0.10793450579E+01  0.10799690613E+01  0.51109989000E-03 0. -1.
     -623    1    1    2    0    0  0.29173896588E-01  0.17307518197E-01  0.95212725363E-03  0.17124000336E+03  0.17124000000E+03 0.  1.
     -611    1    1    2    0    0 -0.23720111325E-01  0.52203709009E-02  0.20003656223E+01  0.20005131292E+01  0.51109989000E-03 0. -1.
      611    1    1    2    0    0 -0.28686318262E-01  0.58870281881E-02  0.24193371684E+01  0.24195144467E+01  0.51109989000E-03 0. -1.
</event>
<event>
 6   3  0.2312675E+03  0.9118800E+02  0.7818608E-02  0.1180000E+00
       11   -1    0    0    0    0  0.00000000000E+00  0.00000000000E+00  0.54999999763E+01  0.55000000000E+01  0.51109989000E-03 0. -1.
     -623   -1    0    0    0    0  0.00000000000E+00  0.00000000000E+00  0.93234578044E-11  0.17124000000E+03  0.17124000000E+03 0.  1.
       11    1    1    2    0    0  0.75824819117E-01 -0.15936049471E+00  0.73905795333E+00  0.75983688386E+00  0.51109989000E-03 0. -1.
     -623    1    1    2    0    0  0.51949028265E-01 -0.23721688063E-01  0.26267094857E-01  0.17124001154E+03  0.17124000000E+03 0.  1.
     -611    1    1    2    0    0 -0.11292507715E+00  0.17718396214E+00  0.42185850305E+01  0.42238141709E+01  0.51109989000E-03 0. -1.
      611    1    1    2    0    0 -0.14848770231E-01  0.58982206334E-02  0.51608989758E+00  0.51633740770E+00  0.51109989000E-03 0.  1.
</event>
<event>
 6   3  0.2312675E+03  0.9118800E+02  0.7818608E-02  0.1180000E+00
       11   -1    0    0    0    0  0.00000000000E+00  0.00000000000E+00  0.54999999763E+01  0.55000000000E+01  0.51109989000E-03 0.  1.
     -623   -1    0    0    0    0  0.00000000000E+00  0.00000000000E+00  0.93234578044E-11  0.17124000000E+03  0.17124000000E+03 0. -1.
       11    1    1    2    0    0 -0.66670478832E-02 -0.20831734853E-01  0.63180047223E+00  0.63217917448E+00  0.51109989000E-03 0.  1.
     -623    1    1    2    0    0  0.32580701785E-02 -0.79716055699E-02  0.10276162969E-02  0.17124000022E+03  0.17124000000E+03 0. -1.
     -611    1    1    2    0    0 -0.33303933826E-01  0.17283681240E-02  0.17919355107E+01  0.17922458746E+01  0.51109989000E-03 0. -1.
      611    1    1    2    0    0  0.36712911530E-01  0.27074972299E-01  0.30752363771E+01  0.30755747314E+01  0.51109989000E-03 0.  1.
</event>
<event>
 6   3  0.2312675E+03  0.9118800E+02  0.7818608E-02  0.1180000E+00
       11   -1    0    0    0    0  0.00000000000E+00  0.00000000000E+00  0.54999999763E+01  0.55000000000E+01  0.51109989000E-03 0.  1.
     -623   -1    0    0    0    0  0.00000000000E+00  0.00000000000E+00  0.93234578044E-11  0.17124000000E+03  0.17124000000E+03 0. -1.
       11    1    1    2    0    0 -0.22048668085E-01  0.31627591335E-02  0.75423445835E+00  0.75456346731E+00  0.51109989000E-03 0.  1.
     -623    1    1    2    0    0 -0.27266874978E-01  0.30699745291E-01  0.71116015476E-03  0.17124000492E+03  0.17124000000E+03 0. -1.
     -611    1    1    2    0    0  0.34359985375E-01 -0.23925172038E-01  0.33199011124E+01  0.33201651585E+01  0.51109989000E-03 0.  1.
      611    1    1    2    0    0  0.14955557608E-01 -0.99373323314E-02  0.14251532377E+01  0.14252664422E+01  0.51109989000E-03 0.  1.
</event>
<event>
 6   3  0.2312675E+03  0.9118800E+02  0.7818608E-02  0.1180000E+00
       11   -1    0    0    0    0  0.00000000000E+00  0.00000000000E+00  0.54999999763E+01  0.55000000000E+01  0.51109989000E-03 0.  1.
     -623   -1    0    0    0    0  0.00000000000E+00  0.00000000000E+00  0.93234578044E-11  0.17124000000E+03  0.17124000000E+03 0.  1.
       11    1    1    2    0    0 -0.33614611229E-01  0.38344545635E-01  0.58266369295E+00  0.58489100401E+00  0.51109989000E-03 0.  1.
     -623    1    1    2    0    0 -0.25451447497E-01  0.78222320290E-03  0.27399904796E-02  0.17124000192E+03  0.17124000000E+03 0.  1.
     -611    1    1    2    0    0  0.37822662453E-01 -0.25092904615E-01  0.31559536653E+01  0.31562800900E+01  0.51109989000E-03 0.  1.
      611    1    1    2    0    0  0.21243396253E-01 -0.14033864210E-01  0.17586426259E+01  0.17588269892E+01  0.51109989000E-03 0.  1.
</event>
<event>
 6   3  0.2312675E+03  0.9118800E+02  0.7818608E-02  0.1180000E+00
       11   -1    0    0    0    0  0.00000000000E+00  0.00000000000E+00  0.54999999763E+01  0.55000000000E+01  0.51109989000E-03 0. -1.
     -623   -1    0    0    0    0  0.00000000000E+00  0.00000000000E+00  0.93234578044E-11  0.17124000000E+03  0.17124000000E+03 0. -1.
       11    1    1    2    0    0 -0.57474238222E-01  0.11941444308E-01  0.21733841109E+00  0.22512692489E+00  0.51109989000E-03 0. -1.
     -623    1    1    2    0    0 -0.30247949836E-02 -0.17231723143E-01  0.81509819736E-02  0.17124000109E+03  0.17124000000E+03 0. -1.
     -611    1    1    2    0    0  0.29962233346E-01  0.79788571575E-02  0.25211130933E+01  0.25213038071E+01  0.51109989000E-03 0. -1.
      611    1    1    2    0    0  0.30536799858E-01 -0.26885783224E-02  0.27533974898E+01  0.27535681802E+01  0.51109989000E-03 0.  1.
</event>
<event>
 6   3  0.2312675E+03  0.9118800E+02  0.7818608E-02  0.1180000E+00
       11   -1    0    0    0    0  0.00000000000E+00  0.00000000000E+00  0.54999999763E+01  0.55000000000E+01  0.51109989000E-03 0. -1.
     -623   -1    0    0    0    0  0.00000000000E+00  0.00000000000E+00  0.93234578044E-11  0.17124000000E+03  0.17124000000E+03 0.  1.
       11    1    1    2    0    0  0.35639434029E-02  0.83986543228E-02  0.30358460273E+00  0.30372209555E+00  0.51109989000E-03 0. -1.
     -623    1    1    2    0    0  0.49642276236E-01  0.53116589878E-02  0.43543251357E-03  0.17124000728E+03  0.17124000000E+03 0.  1.
     -611    1    1    2    0    0 -0.15169950542E-01 -0.42675278601E-02  0.15060293085E+01  0.15061118413E+01  0.51109989000E-03 0. -1.
      611    1    1    2    0    0 -0.38036269147E-01 -0.94427854640E-02  0.36899506373E+01  0.36901587894E+01  0.51109989000E-03 0. -1.
</event>
<event>
 6   3  0.2312675E+03  0.9118800E+02  0.7818608E-02  0.1180000E+00
       11   -1    0    0    0    0  0.00000000000E+00  0.00000000000E+00  0.54999999763E+01  0.55000000000E+01  0.51109989000E-03 0.  1.
     -623   -1    0    0    0    0  0.00000000000E+00  0.00000000000E+00  0.93234578044E-11  0.17124000000E+03  0.17124000000E+03 0.  1.
       11    1    1    2    0    0 -0.27940477816E-01 -0.14388094114E-01  0.78374448312E-01  0.84442305299E-01  0.51109989000E-03 0.  1.
     -623    1    1    2    0    0 -0.27601642163E-01  0.31199582482E-01  0.63847259157E-02  0.17124000519E+03  0.17124000000E+03 0.  1.
     -611    1    1    2    0    0  0.46112193112E-01 -0.14157657658E-01  0.45848792702E+01  0.45851330359E+01  0.51109989000E-03 0.  1.
      611    1    1    2    0    0  0.94299268514E-02 -0.26538307051E-02  0.83036153037E+00  0.83041947152E+00  0.51109989000E-03 0. -1.
</event>
<event>
 6   3  0.2312675E+03  0.9118800E+02  0.7818608E-02  0.1180000E+00
       11   -1    0    0    0    0  0.00000000000E+00  0.00000000000E+00  0.54999999763E+01  0.55000000000E+01  0.51109989000E-03 0.  1.
     -623   -1    0    0    0    0  0.00000000000E+00  0.00000000000E+00  0.93234578044E-11  0.17124000000E+03  0.17124000000E+03 0. -1.
       11    1    1    2    0    0 -0.29813934172E-02 -0.28502848994E-02 -0.96829583315E-03  0.42675110584E-02  0.51109989000E-03 0.  1.
     -623    1    1    2    0    0  0.75850879799E-02 -0.31302657484E-03  0.88755356459E-02  0.17124000040E+03  0.17124000000E+03 0. -1.
     -611    1    1    2    0    0 -0.93531315668E-01 -0.85650365823E-02  0.17113862775E+01  0.17139617029E+01  0.51109989000E-03 0. -1.
      611    1    1    2    0    0  0.88927621105E-01  0.11728348057E-01  0.37807064589E+01  0.37817703878E+01  0.51109989000E-03 0.  1.
</event>
<event>
 6   3  0.2312675E+03  0.9118800E+02  0.7818608E-02  0.1180000E+00
       11   -1    0    0    0    0  0.00000000000E+00  0.00000000000E+00  0.54999999763E+01  0.55000000000E+01  0.51109989000E-03 0.  1.
     -623   -1    0    0    0    0  0.00000000000E+00  0.00000000000E+00  0.93234578044E-11  0.17124000000E+03  0.17124000000E+03 0. -1.
       11    1    1    2    0    0 -0.87010298055E-02 -0.89235915457E-02  0.52039998221E+00  0.52054946077E+00  0.51109989000E-03 0.  1.
     -623    1    1    2    0    0 -0.57958427310E-01  0.58615434638E-02  0.65581312151E-03  0.17124000991E+03  0.17124000000E+03 0. -1.
     -611    1    1    2    0    0  0.16801013248E-01  0.69672865058E-02  0.85767256144E+00  0.85786554949E+00  0.51109989000E-03 0. -1.
      611    1    1    2    0    0  0.49858443870E-01 -0.39052384242E-02  0.41212716197E+01  0.41215750800E+01  0.51109989000E-03 0.  1.
</event>
<event>
 6   3  0.2312675E+03  0.9118800E+02  0.7818608E-02  0.1180000E+00
       11   -1    0    0    0    0  0.00000000000E+00  0.00000000000E+00  0.54999999763E+01  0.55000000000E+01  0.51109989000E-03 0.  1.
     -623   -1    0    0    0    0  0.00000000000E+00  0.00000000000E+00  0.93234578044E-11  0.17124000000E+03  0.17124000000E+03 0.  1.
       11    1    1    2    0    0  0.77482254212E-01  0.33542388498E-01  0.72532136300E+00  0.73021909889E+00  0.51109989000E-03 0.  1.
     -623    1    1    2    0    0  0.10358207559E-02 -0.45717001996E-01  0.67146011988E-02  0.17124000624E+03  0.17124000000E+03 0.  1.
     -611    1    1    2    0    0 -0.37538837339E-01 -0.43382404981E-01  0.15310645673E+01  0.15321390824E+01  0.51109989000E-03 0. -1.
      611    1    1    2    0    0 -0.40979237629E-01  0.55557018479E-01  0.32368994448E+01  0.32376355813E+01  0.51109989000E-03 0.  1.
</event>
<event>
 6   3  0.2312675E+03  0.9118800E+02  0.7818608E-02  0.1180000E+00
       11   -1    0    0    0    0  0.00000000000E+00  0.00000000000E+00  0.54999999763E+01  0.55000000000E+01  0.51109989000E-03 0. -1.
     -623   -1    0    0    0    0  0.00000000000E+00  0.00000000000E+00  0.93234578044E-11  0.17124000000E+03  0.17124000000E+03 0. -1.
       11    1    1    2    0    0 -0.68048535260E-02 -0.15460742231E-01  0.10664812540E+01  0.10666151447E+01  0.51109989000E-03 0. -1.
     -623    1    1    2    0    0  0.45753848117E-02 -0.29387109022E-02  0.58793016570E-03  0.17124000009E+03  0.17124000000E+03 0. -1.
     -611    1    1    2    0    0 -0.27939652081E-01  0.63629674061E-02  0.14974679144E+01  0.14977421432E+01  0.51109989000E-03 0.  1.
      611    1    1    2    0    0  0.30169120796E-01  0.12036485727E-01  0.29354628776E+01  0.29356426247E+01  0.51109989000E-03 0. -1.
</event>
<event>
 6   3  0.2312675E+03  0.9118800E+02  0.7818608E-02  0.1180000E+00
       11   -1    0    0    0    0  0.00000000000E+00  0.00000000000E+00  0.54999999763E+01  0.55000000000E+01  0.51109989000E-03 0.  1.
     -623   -1    0    0    0    0  0.00000000000E+00  0.00000000000E+00  0.93234578044E-11  0.17124000000E+03  0.17124000000E+03 0.  1.
       11    1    1    2    0    0  0.12152467434E-01 -0.99862033760E-03  0.10515172274E+01  0.10515880469E+01  0.51109989000E-03 0.  1.
     -623    1    1    2    0    0 -0.64417660299E-01 -0.51046772031E-02  0.39468225017E-03  0.17124001219E+03  0.17124000000E+03 0.  1.
     -611    1    1    2    0    0  0.42097401954E-01  0.54620237701E-02  0.35620609381E+01  0.35623139128E+01  0.51109989000E-03 0.  1.
      611    1    1    2    0    0  0.10167791601E-01  0.64127382456E-03  0.88602718740E+00  0.88608590625E+00  0.51109989000E-03 0. -1.
</event>
<event>
 6   3  0.2312675E+03  0.9118800E+02  0.7818608E-02  0.1180000E+00
       11   -1    0    0    0    0  0.00000000000E+00  0.00000000000E+00  0.54999999763E+01  0.55000000000E+01  0.51109989000E-03 0.  1.
     -623   -1    0    0    0    0  0.00000000000E+00  0.00000000000E+00  0.93234578044E-11  0.17124000000E+03  0.17124000000E+03 0.  1.
       11    1    1    2    0    0 -0.28909431569E-01 -0.17590727406E-01  0.66844039674E+00  0.66929665630E+00  0.51109989000E-03 0.  1.
     -623    1    1    2    0    0 -0.24300482966E-01 -0.10717346669E-02  0.11873348712E-02  0.17124000173E+03  0.17124000000E+03 0.  1.
     -611    1    1    2    0    0  0.15200794397E-01  0.48194988733E-02  0.13606202159E+01  0.13607137557E+01  0.51109989000E-03 0.  1.
      611    1    1    2    0    0  0.38009120173E-01  0.13842963212E-01  0.34697520319E+01  0.34699878595E+01  0.51109989000E-03 0.  1.
</event>
<event>
 6   3  0.2312675E+03  0.9118800E+02  0.7818608E-02  0.1180000E+00
       11   -1    0    0    0    0  0.00000000000E+00  0.00000000000E+00  0.54999999763E+01  0.55000000000E+01  0.51109989000E-03 0.  1.
     -623   -1    0    0    0    0  0.00000000000E+00  0.00000000000E+00  0.93234578044E-11  0.17124000000E+03  0.17124000000E+03 0. -1.
       11    1    1    2    0    0  0.88847048467E-03 -0.85371329754E-02  0.52646358261E-01  0.53343905748E-01  0.51109989000E-03 0.  1.
     -623    1    1    2    0    0  0.35117157923E-02 -0.36825300606E-03  0.11621455650E-02  0.17124000004E+03  0.17124000000E+03 0. -1.
     -611    1    1    2    0    0  0.30992453487E-01 -0.75798565681E-02  0.22573926746E+01  0.22576181996E+01  0.51109989000E-03 0.  1.
      611    1    1    2    0    0 -0.35392639764E-01  0.16485242550E-01  0.31887987979E+01  0.31890378544E+01  0.51109989000E-03 0. -1.
</event>
<event>
 6   3  0.2312675E+03  0.9118800E+02  0.7818608E-02  0.1180000E+00
       11   -1    0    0    0    0  0.00000000000E+00  0.00000000000E+00  0.54999999763E+01  0.55000000000E+01  0.51109989000E-03 0.  1.
     -623   -1    0    0    0    0  0.00000000000E+00  0.00000000000E+00  0.93234578044E-11  0.17124000000E+03  0.17124000000E+03 0. -1.
       11    1    1    2    0    0  0.10214945072E+00 -0.19194402368E-01  0.92885936189E+00  0.93465657370E+00  0.51109989000E-03 0.  1.
     -623    1    1    2    0    0 -0.47779327049E-01 -0.70736643617E-01  0.72198660167E-02  0.17124002143E+03  0.17124000000E+03 0. -1.
     -611    1    1    2    0    0 -0.36598665189E-01  0.85845094935E-01  0.34955530161E+01  0.34967985347E+01  0.51109989000E-03 0.  1.
      611    1    1    2    0    0 -0.17771458484E-01  0.40859510511E-02  0.10683677322E+01  0.10685234636E+01  0.51109989000E-03 0. -1.
</event>
<event>
 6   3  0.2312675E+03  0.9118800E+02  0.7818608E-02  0.1180000E+00
       11   -1    0    0    0    0  0.00000000000E+00  0.00000000000E+00  0.54999999763E+01  0.55000000000E+01  0.51109989000E-03 0. -1.
     -623   -1    0    0    0    0  0.00000000000E+00  0.00000000000E+00  0.93234578044E-11  0.17124000000E+03  0.17124000000E+03 0.  1.
       11    1    1    2    0    0  0.48936301124E-02 -0.60821424098E-02  0.99017247471E-02  0.12619249107E-01  0.51109989000E-03 0. -1.
     -623    1    1    2    0    0 -0.31745261079E-01  0.15044202202E-02  0.31588360197E-02  0.17124000298E+03  0.17124000000E+03 0.  1.
     -611    1    1    2    0    0 -0.16605369061E-01 -0.13814294549E-01  0.14159086595E+01  0.14160735032E+01  0.51109989000E-03 0.  1.
      611    1    1    2    0    0  0.43457000027E-01  0.18392016739E-01  0.40710307560E+01  0.40713042695E+01  0.51109989000E-03 0. -1.
</event>
<event>
 6   3  0.2312675E+03  0.9118800E+02  0.7818608E-02  0.1180000E+00
       11   -1    0    0    0    0  0.00000000000E+00  0.00000000000E+00  0.54999999763E+01  0.55000000000E+01  0.51109989000E-03 0.  1.
     -623   -1    0    0    0    0  0.00000000000E+00  0.00000000000E+00  0.93234578044E-11  0.17124000000E+03  0.17124000000E+03 0.  1.
       11    1    1    2    0    0 -0.51959997909E-01  0.25821962023E-02  0.56182683945E+00  0.56423059813E+00  0.51109989000E-03 0.  1.
     -623    1    1    2    0    0 -0.24291632987E-01 -0.41009430167E-01  0.31651507720E-02  0.17124000666E+03  0.17124000000E+03 0.  1.
     -611    1    1    2    0    0  0.13261391580E-01  0.25960716532E-02  0.63337170206E+00  0.63351604422E+00  0.51109989000E-03 0. -1.
      611    1    1    2    0    0  0.62990239318E-01  0.35831162312E-01  0.43016362841E+01  0.43022466950E+01  0.51109989000E-03 0.  1.
</event>
<event>
 6   3  0.2312675E+03  0.9118800E+02  0.7818608E-02  0.1180000E+00
       11   -1    0    0    0    0  0.00000000000E+00  0.00000000000E+00  0.54999999763E+01  0.55000000000E+01  0.51109989000E-03 0.  1.
     -623   -1    0    0    0    0  0.00000000000E+00  0.00000000000E+00  0.93234578044E-11  0.17124000000E+03  0.17124000000E+03 0. -1.
       11    1    1    2    0    0  0.46636055018E-02 -0.18302922775E-01  0.72522716826E+00  0.72547326140E+00  0.51109989000E-03 0.  1.
     -623    1    1    2    0    0  0.54670449082E-01  0.71342827599E-02  0.63777228529E-03  0.17124000888E+03  0.17124000000E+03 0. -1.
     -611    1    1    2    0    0 -0.14378097575E-01  0.15677900820E-02  0.10974279374E+01  0.10975233604E+01  0.51109989000E-03 0. -1.
      611    1    1    2    0    0 -0.44955957022E-01  0.96008499356E-02  0.36767070994E+01  0.36769945023E+01  0.51109989000E-03 0.  1.
</event>
<event>
 6   3  0.2312675E+03  0.9118800E+02  0.7818608E-02  0.1180000E+00
       11   -1    0    0    0    0  0.00000000000E+00  0.00000000000E+00  0.54999999763E+01  0.55000000000E+01  0.51109989000E-03 0.  1.
     -623   -1    0    0    0    0  0.00000000000E+00  0.00000000000E+00  0.93234578044E-11  0.17124000000E+03  0.17124000000E+03 0. -1.
       11    1    1    2    0    0  0.77737805398E-02  0.69299460710E-02  0.97308574815E-01  0.97865600555E-01  0.51109989000E-03 0.  1.
     -623    1    1    2    0    0  0.78463808408E-01 -0.15804734343E-01  0.14230253950E-02  0.17124001871E+03  0.17124000000E+03 0. -1.
     -611    1    1    2    0    0 -0.46031609296E-01 -0.23506753628E-02  0.17439401204E+01  0.17445491795E+01  0.51109989000E-03 0. -1.
      611    1    1    2    0    0 -0.40205979653E-01  0.11225463635E-01  0.36573282557E+01  0.36575665083E+01  0.51109989000E-03 0.  1.
</event>
<event>
 6   3  0.2312675E+03  0.9118800E+02  0.7818608E-02  0.1180000E+00
       11   -1    0    0    0    0  0.00000000000E+00  0.00000000000E+00  0.54999999763E+01  0.55000000000E+01  0.51109989000E-03 0. -1.
     -623   -1    0    0    0    0  0.00000000000E+00  0.00000000000E+00  0.93234578044E-11  0.17124000000E+03  0.17124000000E+03 0.  1.
       11    1    1    2    0    0 -0.21007964024E-01  0.23419177655E-01  0.15407255536E+00  0.15725268193E+00  0.51109989000E-03 0. -1.
     -623    1    1    2    0    0 -0.95420172924E-02 -0.89700512354E-02  0.47828265522E-02  0.17124000057E+03  0.17124000000E+03 0.  1.
     -611    1    1    2    0    0  0.78317745385E-01 -0.34521037758E-02  0.38456253042E+01  0.38464242911E+01  0.51109989000E-03 0. -1.
      611    1    1    2    0    0 -0.47767764069E-01 -0.10997022644E-01  0.14955192902E+01  0.14963224593E+01  0.51109989000E-03 0.  1.
</event>
<event>
 6   3  0.2312675E+03  0.9118800E+02  0.7818608E-02  0.1180000E+00
       11   -1    0    0    0    0  0.00000000000E+00  0.00000000000E+00  0.54999999763E+01  0.55000000000E+01  0.51109989000E-03 0. -1.
     -623   -1    0    0    0    0  0.00000000000E+00  0.00000000000E+00  0.93234578044E-11  0.17124000000E+03  0.17124000000E+03 0. -1.
       11    1    1    2    0    0  0.48134554725E-01 -0.80390716292E-01  0.95007770053E+00  0.95468712199E+00  0.51109989000E-03 0. -1.
     -623    1    1    2    0    0  0.80954198652E-02 -0.89169223119E-03  0.56847424722E-02  0.17124000029E+03  0.17124000000E+03 0. -1.
     -611    1    1    2    0    0 -0.84846284285E-02  0.12907192176E-01  0.71690339385E+00  0.71706995605E+00  0.51109989000E-03 0. -1.
      611    1    1    2    0    0 -0.47745346192E-01  0.68375216391E-01  0.38273341419E+01  0.38282426364E+01  0.51109989000E-03 0. -1.
</event>
<event>
 6   3  0.2312675E+03  0.9118800E+02  0.7818608E-02  0.1180000E+00
       11   -1    0    0    0    0  0.00000000000E+00  0.00000000000E+00  0.54999999763E+01  0.55000000000E+01  0.51109989000E-03 0.  1.
     -623   -1    0    0    0    0  0.00000000000E+00  0.00000000000E+00  0.93234578044E-11  0.17124000000E+03  0.17124000000E+03 0.  1.
       11    1    1    2    0    0 -0.15308693560E-02 -0.10732735344E-01  0.25118321125E+00  0.25141758491E+00  0.51109989000E-03 0.  1.
     -623    1    1    2    0    0  0.15918837442E-01 -0.11531821965E-01  0.76964079931E-03  0.17124000113E+03  0.17124000000E+03 0.  1.
     -611    1    1    2    0    0 -0.39943545853E-01  0.26328872496E-01  0.29429275499E+01  0.29433164155E+01  0.51109989000E-03 0. -1.
      611    1    1    2    0    0  0.25555577767E-01 -0.40643151870E-02  0.23051195741E+01  0.23052648695E+01  0.51109989000E-03 0.  1.
</event>
<event>
 6   3  0.2312675E+03  0.9118800E+02  0.7818608E-02  0.1180000E+00
       11   -1    0    0    0    0  0.00000000000E+00  0.00000000000E+00  0.54999999763E+01  0.55000000000E+01  0.51109989000E-03 0.  1.
     -623   -1    0    0    0    0  0.00000000000E+00  0.00000000000E+00  0.93234578044E-11  0.17124000000E+03  0.17124000000E+03 0.  1.
       11    1    1    2    0    0  0.53384183187E-01 -0.43085648027E-02  0.59132220089E+00  0.59374290837E+00  0.51109989000E-03 0.  1.
     -623    1    1    2    0    0  0.27081716261E-01  0.55115428612E-02  0.30831723541E-02  0.17124000226E+03  0.17124000000E+03 0.  1.
     -611    1    1    2    0    0 -0.61239385859E-01 -0.63281840095E-03  0.37323565130E+01  0.37328589666E+01  0.51109989000E-03 0.  1.
      611    1    1    2    0    0 -0.19226513633E-01 -0.57015965817E-03  0.11732380927E+01  0.11733958698E+01  0.51109989000E-03 0.  1.
</event>
<event>
 6   3  0.2312675E+03  0.9118800E+02  0.7818608E-02  0.1180000E+00
       11   -1    0    0    0    0  0.00000000000E+00  0.00000000000E+00  0.54999999763E+01  0.55000000000E+01  0.51109989000E-03 0. -1.
     -623   -1    0    0    0    0  0.00000000000E+00  0.00000000000E+00  0.93234578044E-11  0.17124000000E+03  0.17124000000E+03 0.  1.
       11    1    1    2    0    0  0.68550602735E-03 -0.79976424009E-02  0.24121104092E-01  0.25426778959E-01  0.51109989000E-03 0. -1.
     -623    1    1    2    0    0 -0.54233610843E-02 -0.30501203435E-02  0.21558233751E-02  0.17124000013E+03  0.17124000000E+03 0.  1.
     -611    1    1    2    0    0 -0.39197505947E-01  0.29027600031E-01  0.25900338790E+01  0.25904931580E+01  0.51109989000E-03 0. -1.
      611    1    1    2    0    0  0.43935361004E-01 -0.17979837287E-01  0.28836891699E+01  0.28840799365E+01  0.51109989000E-03 0.  1.
</event>
<event>
 6   3  0.2312675E+03  0.9118800E+02  0.7818608E-02  0.1180000E+00
       11   -1    0    0    0    0  0.00000000000E+00  0.00000000000E+00  0.54999999763E+01  0.55000000000E+01  0.51109989000E-03 0. -1.
     -623   -1    0    0    0    0  0.00000000000E+00  0.00000000000E+00  0.93234578044E-11  0.17124000000E+03  0.17124000000E+03 0.  1.
       11    1    1    2    0    0  0.31983646987E-01 -0.17379365896E-01  0.63882419436E+00  0.63986061651E+00  0.51109989000E-03 0. -1.
     -623    1    1    2    0    0  0.22824280527E-01  0.37086115766E-01  0.14022573481E-02  0.17124000554E+03  0.17124000000E+03 0.  1.
     -611    1    1    2    0    0 -0.90554636326E-02 -0.30116468175E-02  0.52780174380E+00  0.52788825846E+00  0.51109989000E-03 0.  1.
      611    1    1    2    0    0 -0.45752463880E-01 -0.16695103051E-01  0.43319717807E+01  0.43322455821E+01  0.51109989000E-03 0. -1.
</event>
<event>
 6   3  0.2312675E+03  0.9118800E+02  0.7818608E-02  0.1180000E+00
       11   -1    0    0    0    0  0.00000000000E+00  0.00000000000E+00  0.54999999763E+01  0.55000000000E+01  0.51109989000E-03 0. -1.
     -623   -1    0    0    0    0  0.00000000000E+00  0.00000000000E+00  0.93234578044E-11  0.17124000000E+03  0.17124000000E+03 0. -1.
       11    1    1    2    0    0  0.90503665515E-01  0.45907824151E-01  0.80728324006E+00  0.81363685554E+00  0.51109989000E-03 0. -1.
     -623    1    1    2    0    0 -0.26862676578E-01 -0.45628757506E-02  0.69723790818E-02  0.17124000231E+03  0.17124000000E+03 0. -1.
     -611    1    1    2    0    0 -0.30796438892E-01 -0.21550255642E-01  0.24187131572E+01  0.24190052567E+01  0.51109989000E-03 0. -1.
      611    1    1    2    0    0 -0.32844550038E-01 -0.19794692754E-01  0.22670311994E+01  0.22673555775E+01  0.51109989000E-03 0.  1.
</event>
<event>
 6   3  0.2312675E+03  0.9118800E+02  0.7818608E-02  0.1180000E+00
       11   -1    0    0    0    0  0.00000000000E+00  0.00000000000E+00  0.54999999763E+01  0.55000000000E+01  0.51109989000E-03 0. -1.
     -623   -1    0    0    0    0  0.00000000000E+00  0.00000000000E+00  0.93234578044E-11  0.17124000000E+03  0.17124000000E+03 0. -1.
       11    1    1    2    0    0 -0.40162223962E-01 -0.26067903305E-01  0.55779261412E+00  0.55984408669E+00  0.51109989000E-03 0. -1.
     -623    1    1    2    0    0  0.50901565381E-01  0.39591729372E-01  0.35277561265E-02  0.17124001218E+03  0.17124000000E+03 0. -1.
     -611    1    1    2    0    0  0.32301325249E-01 -0.52691935732E-01  0.23804222751E+01  0.23812245347E+01  0.51109989000E-03 0.  1.
      611    1    1    2    0    0 -0.43040666668E-01  0.39168109665E-01  0.25582573310E+01  0.25589192001E+01  0.51109989000E-03 0. -1.
</event>
<event>
 6   3  0.2312675E+03  0.9118800E+02  0.7818608E-02  0.1180000E+00
       11   -1    0    0    0    0  0.00000000000E+00  0.00000000000E+00  0.54999999763E+01  0.55000000000E+01  0.51109989000E-03 0. -1.
     -623   -1    0    0    0    0  0.00000000000E+00  0.00000000000E+00  0.93234578044E-11  0.17124000000E+03  0.17124000000E+03 0.  1.
       11    1    1    2    0    0  0.45336301683E-01 -0.67701153520E-02  0.48553490334E+00  0.48769418522E+00  0.51109989000E-03 0. -1.
     -623    1    1    2    0    0  0.13594800345E-01 -0.56773127517E-02  0.25260672249E-02  0.17124000065E+03  0.17124000000E+03 0.  1.
     -611    1    1    2    0    0 -0.41412540312E-01  0.59538223456E-02  0.35590616149E+01  0.35593075572E+01  0.51109989000E-03 0. -1.
      611    1    1    2    0    0 -0.17518561716E-01  0.64936057579E-02  0.14528773907E+01  0.14529976051E+01  0.51109989000E-03 0.  1.
</event>
<event>
 6   3  0.2312675E+03  0.9118800E+02  0.7818608E-02  0.1180000E+00
       11   -1    0    0    0    0  0.00000000000E+00  0.00000000000E+00  0.54999999763E+01  0.55000000000E+01  0.51109989000E-03 0.  1.
     -623   -1    0    0    0    0  0.00000000000E+00  0.00000000000E+00  0.93234578044E-11  0.17124000000E+03  0.17124000000E+03 0.  1.
       11    1    1    2    0    0 -0.23597098746E-01 -0.66056648180E-02  0.42771259174E+00  0.42841426241E+00  0.51109989000E-03 0.  1.
     -623    1    1    2    0    0 -0.36336243860E-01  0.16780919531E-01  0.10708061466E-02  0.17124000468E+03  0.17124000000E+03 0.  1.
     -611    1    1    2    0    0  0.26060301169E-01 -0.41858592416E-02  0.22003433621E+01  0.22005017230E+01  0.51109989000E-03 0.  1.
      611    1    1    2    0    0  0.33873041347E-01 -0.59893954558E-02  0.28708732086E+01  0.28710793261E+01  0.51109989000E-03 0.  1.
</event>
<event>
 6   3  0.2312675E+03  0.9118800E+02  0.7818608E-02  0.1180000E+00
       11   -1    0    0    0    0  0.00000000000E+00  0.00000000000E+00  0.54999999763E+01  0.55000000000E+01  0.51109989000E-03 0. -1.
     -623   -1    0    0    0    0  0.00000000000E+00  0.00000000000E+00  0.93234578044E-11  0.17124000000E+03  0.17124000000E+03 0.  1.
       11    1    1    2    0    0 -0.76473052686E-01  0.38413667897E-01  0.95121254010E+00  0.95505460333E+00  0.51109989000E-03 0. -1.
     -623    1    1    2    0    0 -0.42733421078E-01 -0.37534750846E-02  0.55627817271E-02  0.17124000546E+03  0.17124000000E+03 0.  1.
     -611    1    1    2    0    0  0.45385739852E-01 -0.16693794403E-01  0.19725762811E+01  0.19731690232E+01  0.51109989000E-03 0. -1.
      611    1    1    2    0    0  0.73820733912E-01 -0.17966398409E-01  0.25706483733E+01  0.25717709098E+01  0.51109989000E-03 0.  1.
</event>
<event>
 6   3  0.2312675E+03  0.9118800E+02  0.7818608E-02  0.1180000E+00
       11   -1    0    0    0    0  0.00000000000E+00  0.00000000000E+00  0.54999999763E+01  0.55000000000E+01  0.51109989000E-03 0.  1.
     -623   -1    0    0    0    0  0.00000000000E+00  0.00000000000E+00  0.93234578044E-11  0.17124000000E+03  0.17124000000E+03 0.  1.
       11    1    1    2    0    0  0.42834084830E-01  0.50501274340E-01  0.34824764449E+00  0.35448811073E+00  0.51109989000E-03 0.  1.
     -623    1    1    2    0    0  0.23541857759E-02 -0.56681973740E-01  0.93260839424E-02  0.17124000965E+03  0.17124000000E+03 0.  1.
     -611    1    1    2    0    0 -0.93923615140E-01  0.51951828211E-01  0.26360669078E+01  0.26382512468E+01  0.51109989000E-03 0. -1.
      611    1    1    2    0    0  0.48735344534E-01 -0.45771128811E-01  0.25063593401E+01  0.25072509912E+01  0.51109989000E-03 0.  1.
</event>
<event>
 6   3  0.2312675E+03  0.9118800E+02  0.7818608E-02  0.1180000E+00
       11   -1    0    0    0    0  0.00000000000E+00  0.00000000000E+00  0.54999999763E+01  0.55000000000E+01  0.51109989000E-03 0. -1.
     -623   -1    0    0    0    0  0.00000000000E+00  0.00000000000E+00  0.93234578044E-11  0.17124000000E+03  0.17124000000E+03 0. -1.
       11    1    1    2    0    0  0.22018163844E-01  0.21693545031E-01  0.96279808258E+00  0.96329425332E+00  0.51109989000E-03 0. -1.
     -623    1    1    2    0    0  0.21838717503E-01 -0.41184512777E-01  0.16136925214E-02  0.17124000635E+03  0.17124000000E+03 0. -1.
     -611    1    1    2    0    0 -0.67375046728E-01  0.23987378174E-01  0.39080110995E+01  0.39086654763E+01  0.51109989000E-03 0.  1.
      611    1    1    2    0    0  0.23518165381E-01 -0.44964104288E-02  0.62757710160E+00  0.62803391746E+00  0.51109989000E-03 0. -1.
</event>
<event>
 6   3  0.2312675E+03  0.9118800E+02  0.7818608E-02  0.1180000E+00
       11   -1    0    0    0    0  0.00000000000E+00  0.00000000000E+00  0.54999999763E+01  0.55000000000E+01  0.51109989000E-03 0. -1.
     -623   -1    0    0    0    0  0.00000000000E+00  0.00000000000E+00  0.93234578044E-11  0.17124000000E+03  0.17124000000E+03 0.  1.
       11    1    1    2    0    0 -0.38796514241E-01  0.33403094440E-01  0.47876727151E+00  0.48149693429E+00  0.51109989000E-03 0. -1.
     -623    1    1    2    0    0 -0.51792181103E-01 -0.13667864497E-01  0.35950784829E-02  0.17124000842E+03  0.17124000000E+03 0.  1.
     -611    1    1    2    0    0  0.18473329614E-01 -0.32583464246E-02  0.10276658356E+01  0.10278371522E+01  0.51109989000E-03 0. -1.
      611    1    1    2    0    0  0.72115365719E-01 -0.16476883517E-01  0.39899717901E+01  0.39906574973E+01  0.51109989000E-03 0. -1.
</event>
<event>
 6   3  0.2312675E+03  0.9118800E+02  0.7818608E-02  0.1180000E+00
       11   -1    0    0    0    0  0.00000000000E+00  0.00000000000E+00  0.54999999763E+01  0.55000000000E+01  0.51109989000E-03 0. -1.
     -623   -1    0    0    0    0  0.00000000000E+00  0.00000000000E+00  0.93234578044E-11  0.17124000000E+03  0.17124000000E+03 0. -1.
       11    1    1    2    0    0  0.16898808038E-01  0.47962367696E-03  0.43931420018E+00  0.43963965638E+00  0.51109989000E-03 0. -1.
     -623    1    1    2    0    0  0.25413664536E-03 -0.19457354239E-02  0.12232036710E-02  0.17124000002E+03  0.17124000000E+03 0. -1.
     -611    1    1    2    0    0 -0.46881958306E-01 -0.24581698859E-01  0.34828107638E+01  0.34832130649E+01  0.51109989000E-03 0. -1.
      611    1    1    2    0    0  0.29729013622E-01  0.26047810606E-01  0.15766518086E+01  0.15771472631E+01  0.51109989000E-03 0.  1.
</event>
<event>
 6   3  0.2312675E+03  0.9118800E+02  0.7818608E-02  0.1180000E+00
       11   -1    0    0    0    0  0.00000000000E+00  0.00000000000E+00  0.54999999763E+01  0.55000000000E+01  0.51109989000E-03 0.  1.
     -623   -1    0    0    0    0  0.00000000000E+00  0.00000000000E+00  0.93234578044E-11  0.17124000000E+03  0.17124000000E+03 0.  1.
       11    1    1    2    0    0  0.66346086808E-01  0.11710465481E-01  0.32821430176E+00  0.33505794624E+00  0.51109989000E-03 0.  1.
     -623    1    1    2    0    0 -0.18821350315E-02  0.21093256397E-01  0.76235773824E-02  0.17124000148E+03  0.17124000000E+03 0.  1.
     -611    1    1    2    0    0 -0.28429447118E-01 -0.41086533204E-01  0.23192440094E+01  0.23197821823E+01  0.51109989000E-03 0. -1.
      611    1    1    2    0    0 -0.36034504659E-01  0.82828113269E-02  0.28449180877E+01  0.28451583923E+01  0.51109989000E-03 0.  1.
</event>
<event>
 6   3  0.2312675E+03  0.9118800E+02  0.7818608E-02  0.1180000E+00
       11   -1    0    0    0    0  0.00000000000E+00  0.00000000000E+00  0.54999999763E+01  0.55000000000E+01  0.51109989000E-03 0.  1.
     -623   -1    0    0    0    0  0.00000000000E+00  0.00000000000E+00  0.93234578044E-11  0.17124000000E+03  0.17124000000E+03 0.  1.
       11    1    1    2    0    0 -0.48727654012E-01  0.27771039587E-01  0.29335057636E+00  0.29866442168E+00  0.51109989000E-03 0.  1.
     -623    1    1    2    0    0 -0.12953100466E-01  0.83466080994E-02  0.58059414574E-02  0.17124000079E+03  0.17124000000E+03 0.  1.
     -611    1    1    2    0    0  0.12966881808E-01 -0.76545529656E-02  0.11122917122E+01  0.11123937461E+01  0.51109989000E-03 0.  1.
      611    1    1    2    0    0  0.48713872591E-01 -0.28463094675E-01  0.40885517396E+01  0.40889410338E+01  0.51109989000E-03 0.  1.
</event>
<event>
 6   3  0.2312675E+03  0.9118800E+02  0.7818608E-02  0.1180000E+00
       11   -1    0    0    0    0  0.00000000000E+00  0.00000000000E+00  0.54999999763E+01  0.55000000000E+01  0.51109989000E-03 0. -1.
     -623   -1    0    0    0    0  0.00000000000E+00  0.00000000000E+00  0.93234578044E-11  0.17124000000E+03  0.17124000000E+03 0.  1.
       11    1    1    2    0    0 -0.72523006709E-02 -0.93096427204E-02  0.87946290938E+00  0.87954223065E+00  0.51109989000E-03 0. -1.
     -623    1    1    2    0    0 -0.60475771245E-01  0.17315452118E-01  0.60721347996E-03  0.17124001156E+03  0.17124000000E+03 0.  1.
     -611    1    1    2    0    0  0.42956997269E-01 -0.31263723751E-03  0.30349462590E+01  0.30352503122E+01  0.51109989000E-03 0. -1.
      611    1    1    2    0    0  0.24771074642E-01 -0.76931721591E-02  0.15849835940E+01  0.15851959013E+01  0.51109989000E-03 0.  1.
</event>
<event>
 6   3  0.2312675E+03  0.9118800E+02  0.7818608E-02  0.1180000E+00
       11   -1    0    0    0    0  0.00000000000E+00  0.00000000000E+00  0.54999999763E+01  0.55000000000E+01  0.51109989000E-03 0.  1.
     -623   -1    0    0    0    0  0.00000000000E+00  0.00000000000E+00  0.93234578044E-11  0.17124000000E+03  0.17124000000E+03 0.  1.
       11    1    1    2    0    0  0.89475277820E-01  0.30711727642E-01  0.68152463376E+00  0.68805895329E+00  0.51109989000E-03 0.  1.
     -623    1    1    2    0    0  0.63232741684E-02  0.87084626585E-03  0.75922957923E-02  0.17124000029E+03  0.17124000000E+03 0.  1.
     -611    1    1    2    0    0 -0.12114198323E-01 -0.38013028853E-02  0.59298632218E+00  0.59312245213E+00  0.51109989000E-03 0. -1.
      611    1    1    2    0    0 -0.83684353603E-01 -0.27781271002E-01  0.42178967214E+01  0.42188183042E+01  0.51109989000E-03 0.  1.
</event>
<event>
 6   3  0.2312675E+03  0.9118800E+02  0.7818608E-02  0.1180000E+00
       11   -1    0    0    0    0  0.00000000000E+00  0.00000000000E+00  0.54999999763E+01  0.55000000000E+01  0.51109989000E-03 0. -1.
     -623   -1    0    0    0    0  0.00000000000E+00  0.00000000000E+00  0.93234578044E-11  0.17124000000E+03  0.17124000000E+03 0. -1.
       11    1    1    2    0    0  0.75504151197E-02 -0.25948342625E-03  0.53191287081E-01  0.53727556660E-01  0.51109989000E-03 0. -1.
     -623    1    1    2    0    0 -0.66409322015E-02  0.21153296742E-02  0.17771403084E-02  0.17124000015E+03  0.17124000000E+03 0. -1.
     -611    1    1    2    0    0  0.52514941642E-01 -0.22342494089E-01  0.32163417682E+01  0.32168480904E+01  0.51109989000E-03 0.  1.
      611    1    1    2    0    0 -0.53424424560E-01  0.20486647841E-01  0.22286897808E+01  0.22294242019E+01  0.51109989000E-03 0. -1.
</event>
<event>
 6   3  0.2312675E+03  0.9118800E+02  0.7818608E-02  0.1180000E+00
       11   -1    0    0    0    0  0.00000000000E+00  0.00000000000E+00  0.54999999763E+01  0.55000000000E+01  0.51109989000E-03 0. -1.
     -623   -1    0    0    0    0  0.00000000000E+00  0.00000000000E+00  0.93234578044E-11  0.17124000000E+03  0.17124000000E+03 0. -1.
       11    1    1    2    0    0 -0.13265678824E-01 -0.14437253855E-01  0.38384991735E+00  0.38435066385E+00  0.51109989000E-03 0. -1.
     -623    1    1    2    0    0  0.26478295287E-01  0.18073580757E-01  0.33729057324E-02  0.17124000303E+03  0.17124000000E+03 0. -1.
     -611    1    1    2    0    0  0.32919881635E-01 -0.38327026336E-01  0.50783009311E+00  0.51033748073E+00  0.51109989000E-03 0.  1.
      611    1    1    2    0    0 -0.46132498097E-01  0.34690699435E-01  0.46049470601E+01  0.46053088213E+01  0.51109989000E-03 0. -1.
</event>
<event>
 6   3  0.2312675E+03  0.9118800E+02  0.7818608E-02  0.1180000E+00
       11   -1    0    0    0    0  0.00000000000E+00  0.00000000000E+00  0.54999999763E+01  0.55000000000E+01  0.51109989000E-03 0.  1.
     -623   -1    0    0    0    0  0.00000000000E+00  0.00000000000E+00  0.93234578044E-11  0.17124000000E+03  0.17124000000E+03 0.  1.
       11    1    1    2    0    0  0.44691809342E-02  0.42182029290E-03  0.85214160614E+00  0.85215358337E+00  0.51109989000E-03 0.  1.
     -623    1    1    2    0    0  0.47144759992E-03  0.75058607719E-03  0.40212005178E-03  0.17124000000E+03  0.17124000000E+03 0.  1.
     -611    1    1    2    0    0 -0.31794609511E-01 -0.35030030834E-02  0.29870657173E+01  0.29872370225E+01  0.51109989000E-03 0.  1.
      611    1    1    2    0    0  0.26853980977E-01  0.23305967133E-02  0.16603905328E+01  0.16606093913E+01  0.51109989000E-03 0. -1.
</event>
<event>
 6   3  0.2312675E+03  0.9118800E+02  0.7818608E-02  0.1180000E+00
       11   -1    0    0    0    0  0.00000000000E+00  0.00000000000E+00  0.54999999763E+01  0.55000000000E+01  0.51109989000E-03 0.  1.
     -623   -1    0    0    0    0  0.00000000000E+00  0.00000000000E+00  0.93234578044E-11  0.17124000000E+03  0.17124000000E+03 0. -1.
       11    1    1    2    0    0 -0.25718538469E-01 -0.75292435678E-02  0.66050589748E+00  0.66104949478E+00  0.51109989000E-03 0.  1.
     -623    1    1    2    0    0 -0.35224813913E-01 -0.10050042145E-01  0.10642406840E-02  0.17124000392E+03  0.17124000000E+03 0. -1.
     -611    1    1    2    0    0  0.45217917888E-01  0.20057942703E-02  0.38649631304E+01  0.38652281879E+01  0.51109989000E-03 0.  1.
      611    1    1    2    0    0  0.15725434493E-01  0.15573491442E-01  0.97346670759E+00  0.97371839612E+00  0.51109989000E-03 0. -1.
</event>
<event>
 6   3  0.2312675E+03  0.9118800E+02  0.7818608E-02  0.1180000E+00
       11   -1    0    0    0    0  0.00000000000E+00  0.00000000000E+00  0.54999999763E+01  0.55000000000E+01  0.51109989000E-03 0.  1.
     -623   -1    0    0    0    0  0.00000000000E+00  0.00000000000E+00  0.93234578044E-11  0.17124000000E+03  0.17124000000E+03 0.  1.
       11    1    1    2    0    0  0.51145480912E-01 -0.72792798478E-02  0.63908256730E+00  0.64116740184E+00  0.51109989000E-03 0.  1.
     -623    1    1    2    0    0  0.16177013124E-02  0.81539764624E-02  0.23722377353E-02  0.17124000022E+03  0.17124000000E+03 0.  1.
     -611    1    1    2    0    0 -0.88388979247E-02 -0.89293608660E-03  0.83888804657E+00  0.83893524145E+00  0.51109989000E-03 0.  1.
      611    1    1    2    0    0 -0.43924284320E-01  0.18239471687E-04  0.40196571265E+01  0.40198971404E+01  0.51109989000E-03 0.  1.
</event>
<event>
 6   3  0.2312675E+03  0.9118800E+02  0.7818608E-02  0.1180000E+00
       11   -1    0    0    0    0  0.00000000000E+00  0.00000000000E+00  0.54999999763E+01  0.55000000000E+01  0.51109989000E-03 0.  1.
     -623   -1    0    0    0    0  0.00000000000E+00  0.00000000000E+00  0.93234578044E-11  0.17124000000E+03  0.17124000000E+03 0.  1.
       11    1    1    2    0    0 -0.25572512201E-02  0.14553294219E-01  0.20974804531E-01  0.25662064505E-01  0.51109989000E-03 0.  1.
     -623    1    1    2    0    0  0.18288234160E-02 -0.18026046802E-01  0.64535361316E-02  0.17124000108E+03  0.17124000000E+03 0.  1.
     -611    1    1    2    0    0  0.63574391066E-01 -0.25306793598E-01  0.31180613270E+01  0.31188120875E+01  0.51109989000E-03 0.  1.
      611    1    1    2    0    0 -0.62845963262E-01  0.28779546182E-01  0.23545103086E+01  0.23555247679E+01  0.51109989000E-03 0. -1.
</event>
<event>
 6   3  0.2312675E+03  0.9118800E+02  0.7818608E-02  0.1180000E+00
       11   -1    0    0    0    0  0.00000000000E+00  0.00000000000E+00  0.54999999763E+01  0.55000000000E+01  0.51109989000E-03 0. -1.
     -623   -1    0    0    0    0  0.00000000000E+00  0.00000000000E+00  0.93234578044E-11  0.17124000000E+03  0.17124000000E+03 0.  1.
       11    1    1    2    0    0  0.19120609008E-01 -0.22933309543E-01  0.12582385847E+00  0.12931913609E+00  0.51109989000E-03 0. -1.
     -623    1    1    2    0    0 -0.22320063069E-01  0.24581662833E-01  0.99099978259E-02  0.17124000351E+03  0.17124000000E+03 0.  1.
     -611    1    1    2    0    0 -0.83004792862E-01 -0.78851006443E-01  0.39587982024E+01  0.39604533510E+01  0.51109989000E-03 0. -1.
      611    1    1    2    0    0  0.86204246924E-01  0.77202653153E-01  0.14054679176E+01  0.14102240072E+01  0.51109989000E-03 0.  1.
</event>
<event>
 6   3  0.2312675E+03  0.9118800E+02  0.7818608E-02  0.1180000E+00
       11   -1    0    0    0    0  0.00000000000E+00  0.00000000000E+00  0.54999999763E+01  0.55000000000E+01  0.51109989000E-03 0.  1.
     -623   -1    0    0    0    0  0.00000000000E+00  0.00000000000E+00  0.93234578044E-11  0.17124000000E+03  0.17124000000E+03 0. -1.
       11    1    1    2    0    0 -0.38969797872E-02 -0.61932458076E-03  0.74849074734E-01  0.74954754526E-01  0.51109989000E-03 0.  1.
     -623    1    1    2    0    0  0.14936875591E-02  0.59407909718E-02  0.22451621457E-02  0.17124000012E+03  0.17124000000E+03 0. -1.
     -611    1    1    2    0    0  0.46725181951E-01 -0.52723379034E-01  0.15551109046E+01  0.15567058759E+01  0.51109989000E-03 0.  1.
      611    1    1    2    0    0 -0.44321889723E-01  0.47401912643E-01  0.38677948348E+01  0.38683392453E+01  0.51109989000E-03 0. -1.
</event>
<event>
 6   3  0.2312675E+03  0.9118800E+02  0.7818608E-02  0.1180000E+00
       11   -1    0    0    0    0  0.00000000000E+00  0.00000000000E+00  0.54999999763E+01  0.55000000000E+01  0.51109989000E-03 0.  1.
     -623   -1    0    0    0    0  0.00000000000E+00  0.00000000000E+00  0.93234578044E-11  0.17124000000E+03  0.17124000000E+03 0.  1.
       11    1    1    2    0    0 -0.55973308305E-01 -0.17604981911E-01  0.39641321791E+00  0.40073263804E+00  0.51109989000E-03 0.  1.
     -623    1    1    2    0    0  0.38491864385E-02 -0.32005466412E-02  0.46291538610E-02  0.17124000014E+03  0.17124000000E+03 0.  1.
     -611    1    1    2    0    0  0.91859572890E-02  0.32845006187E-02  0.81208651888E+00  0.81214527341E+00  0.51109989000E-03 0.  1.
      611    1    1    2    0    0  0.42938164575E-01  0.17521027932E-01  0.42868710854E+01  0.42871219526E+01  0.51109989000E-03 0.  1.
</event>
<event>
 6   3  0.2312675E+03  0.9118800E+02  0.7818608E-02  0.1180000E+00
       11   -1    0    0    0    0  0.00000000000E+00  0.00000000000E+00  0.54999999763E+01  0.55000000000E+01  0.51109989000E-03 0. -1.
     -623   -1    0    0    0    0  0.00000000000E+00  0.00000000000E+00  0.93234578044E-11  0.17124000000E+03  0.17124000000E+03 0.  1.
       11    1    1    2    0    0  0.21698906342E-01 -0.34004054166E-01  0.37648257807E+00  0.37863770421E+00  0.51109989000E-03 0. -1.
     -623    1    1    2    0    0 -0.18442334800E-01  0.47468499542E-02  0.29340905808E-02  0.17124000108E+03  0.17124000000E+03 0.  1.
     -611    1    1    2    0    0 -0.38978340097E-01  0.54821453239E-02  0.34584286477E+01  0.34586526766E+01  0.51109989000E-03 0. -1.
      611    1    1    2    0    0  0.35721768555E-01  0.23775058888E-01  0.16621546599E+01  0.16627085352E+01  0.51109989000E-03 0.  1.
</event>
<event>
 6   3  0.2312675E+03  0.9118800E+02  0.7818608E-02  0.1180000E+00
       11   -1    0    0    0    0  0.00000000000E+00  0.00000000000E+00  0.54999999763E+01  0.55000000000E+01  0.51109989000E-03 0.  1.
     -623   -1    0    0    0    0  0.00000000000E+00  0.00000000000E+00  0.93234578044E-11  0.17124000000E+03  0.17124000000E+03 0. -1.
       11    1    1    2    0    0 -0.10473068365E-01  0.89103369133E-02  0.89021623010E+00  0.89032256898E+00  0.51109989000E-03 0.  1.
     -623    1    1    2    0    0 -0.38378206779E-01  0.35008206070E-01  0.58316260461E-03  0.17124000788E+03  0.17124000000E+03 0. -1.
     -611    1    1    2    0    0  0.30186296759E-01 -0.27915492511E-01  0.29632266104E+01  0.29635118850E+01  0.51109989000E-03 0. -1.
      611    1    1    2    0    0  0.18664978387E-01 -0.16003050474E-01  0.16459739734E+01  0.16461576660E+01  0.51109989000E-03 0.  1.
</event>
<event>
 6   3  0.2312675E+03  0.9118800E+02  0.7818608E-02  0.1180000E+00
       11   -1    0    0    0    0  0.00000000000E+00  0.00000000000E+00  0.54999999763E+01  0.55000000000E+01  0.51109989000E-03 0.  1.
     -623   -1    0    0    0    0  0.00000000000E+00  0.00000000000E+00  0.93234578044E-11  0.17124000000E+03  0.17124000000E+03 0.  1.
       11    1    1    2    0    0  0.65426637959E-02  0.53601411607E-02  0.74729964638E-01  0.75208818637E-01  0.51109989000E-03 0.  1.
     -623    1    1    2    0    0  0.24553216111E-02 -0.13687515138E-01  0.29649653808E-02  0.17124000059E+03  0.17124000000E+03 0.  1.
     -611    1    1    2    0    0  0.50680161675E-01 -0.56527684635E-01  0.26214339405E+01  0.26225331311E+01  0.51109989000E-03 0.  1.
      611    1    1    2    0    0 -0.59678147082E-01  0.64855058612E-01  0.28008711057E+01  0.28022574600E+01  0.51109989000E-03 0. -1.
</event>
<event>
 6   3  0.2312675E+03  0.9118800E+02  0.7818608E-02  0.1180000E+00
       11   -1    0    0    0    0  0.00000000000E+00  0.00000000000E+00  0.54999999763E+01  0.55000000000E+01  0.51109989000E-03 0. -1.
     -623   -1    0    0    0    0  0.00000000000E+00  0.00000000000E+00  0.93234578044E-11  0.17124000000E+03  0.17124000000E+03 0. -1.
       11    1    1    2    0    0  0.13820909958E-01 -0.43321545559E-02  0.34719642837E+00  0.34749878592E+00  0.51109989000E-03 0. -1.
     -623    1    1    2    0    0 -0.63079595970E-02  0.78629205928E-02  0.13009873637E-02  0.17124000030E+03  0.17124000000E+03 0. -1.
     -611    1    1    2    0    0 -0.46628000421E-01 -0.13671173481E-02  0.41052773865E+01  0.41055424393E+01  0.51109989000E-03 0. -1.
      611    1    1    2    0    0  0.39115050060E-01 -0.21636486888E-02  0.10462251740E+01  0.10469584731E+01  0.51109989000E-03 0.  1.
</event>
<event>
 6   3  0.2312675E+03  0.9118800E+02  0.7818608E-02  0.1180000E+00
       11   -1    0    0    0    0  0.00000000000E+00  0.00000000000E+00  0.54999999763E+01  0.55000000000E+01  0.51109989000E-03 0.  1.
     -623   -1    0    0    0    0  0.00000000000E+00  0.00000000000E+00  0.93234578044E-11  0.17124000000E+03  0.17124000000E+03 0.  1.
       11    1    1    2    0    0  0.67883350589E-01 -0.30287968048E-01  0.32793458986E+00  0.33625416986E+00  0.51109989000E-03 0.  1.
     -623    1    1    2    0    0  0.18326328598E-01  0.17964977646E-01  0.95641305194E-02  0.17124000219E+03  0.17124000000E+03 0.  1.
     -611    1    1    2    0    0 -0.99159482105E-01  0.14170012065E-01  0.45472962556E+01  0.45483993767E+01  0.51109989000E-03 0.  1.
      611    1    1    2    0    0  0.12949802918E-01 -0.18470216629E-02  0.61520500024E+00  0.61534426334E+00  0.51109989000E-03 0. -1.
</event>
<event>
 6   3  0.2312675E+03  0.9118800E+02  0.7818608E-02  0.1180000E+00
       11   -1    0    0    0    0  0.00000000000E+00  0.00000000000E+00  0.54999999763E+01  0.55000000000E+01  0.51109989000E-03 0. -1.
     -623   -1    0    0    0    0  0.00000000000E+00  0.00000000000E+00  0.93234578044E-11  0.17124000000E+03  0.17124000000E+03 0.  1.
       11    1    1    2    0    0 -0.47310029245E-01 -0.18348270174E-01  0.93883493797E+00  0.94020540302E+00  0.51109989000E-03 0. -1.
     -623    1    1    2    0    0 -0.54168838736E-02 -0.96420250183E-02  0.17617529216E-02  0.17124000037E+03  0.17124000000E+03 0.  1.
     -611    1    1    2    0    0  0.36882840054E-01  0.19689061497E-01  0.32098333641E+01  0.32101056820E+01  0.51109989000E-03 0. -1.
      611    1    1    2    0    0  0.15844073152E-01  0.83012337410E-02  0.13495699287E+01  0.13496885563E+01  0.51109989000E-03 0. -1.
</event>
<event>
 6   3  0.2312675E+03  0.9118800E+02  0.7818608E-02  0.1180000E+00
       11   -1    0    0    0    0  0.00000000000E+00  0.00000000000E+00  0.54999999763E+01  0.55000000000E+01  0.51109989000E-03 0.  1.
     -623   -1    0    0    0    0  0.00000000000E+00  0.00000000000E+00  0.93234578044E-11  0.17124000000E+03  0.17124000000E+03 0.  1.
       11    1    1    2    0    0 -0.22921487892E-02  0.13410434244E-01  0.31092462913E+00  0.31122255688E+00  0.51109989000E-03 0.  1.
     -623    1    1    2    0    0 -0.65501140494E-01 -0.99063083155E-02  0.75492616351E-03  0.17124001282E+03  0.17124000000E+03 0.  1.
     -611    1    1    2    0    0  0.29307317843E-01 -0.14788343613E-02  0.22225085936E+01  0.22227023678E+01  0.51109989000E-03 0.  1.
      611    1    1    2    0    0  0.38485971450E-01 -0.20252915685E-02  0.29658118281E+01  0.29660622604E+01  0.51109989000E-03 0.  1.
</event>
<event>
 6   3  0.2312675E+03  0.9118800E+02  0.7818608E-02  0.1180000E+00
       11   -1    0    0    0    0  0.00000000000E+00  0.00000000000E+00  0.54999999763E+01  0.55000000000E+01  0.51109989000E-03 0. -1.
     -623   -1    0    0    0    0  0.00000000000E+00  0.00000000000E+00  0.93234578044E-11  0.17124000000E+03  0.17124000000E+03 0. -1.
       11    1    1    2    0    0 -0.52256270858E-01  0.16477597117E-01  0.53106798291E+00  0.53388734087E+00  0.51109989000E-03 0. -1.
     -623    1    1    2    0    0 -0.12506592150E-01  0.11852023497E-02  0.32774333862E-02  0.17124000049E+03  0.17124000000E+03 0. -1.
     -611    1    1    2    0    0  0.49830026421E-01 -0.10880785283E-01  0.37590299897E+01  0.37593760317E+01  0.51109989000E-03 0. -1.
      611    1    1    2    0    0  0.14932836584E-01 -0.67820141828E-02  0.12066245701E+01  0.12067361351E+01  0.51109989000E-03 0.  1.
</event>
<event>
 6   3  0.2312675E+03  0.9118800E+02  0.7818608E-02  0.1180000E+00
       11   -1    0    0    0    0  0.00000000000E+00  0.00000000000E+00  0.54999999763E+01  0.55000000000E+01  0.51109989000E-03 0. -1.
     -623   -1    0    0    0    0  0.00000000000E+00  0.00000000000E+00  0.93234578044E-11  0.17124000000E+03  0.17124000000E+03 0. -1.
       11    1    1    2    0    0  0.26226216869E-02 -0.25949781543E-02  0.79542616775E-02  0.87831405582E-02  0.51109989000E-03 0. -1.
     -623    1    1    2    0    0 -0.30558057017E-02  0.89286859019E-02  0.18449915701E-02  0.17124000027E+03  0.17124000000E+03 0. -1.
     -611    1    1    2    0    0  0.51034809517E-01  0.10839278373E-01  0.26832336854E+01  0.26837409177E+01  0.51109989000E-03 0. -1.
      611    1    1    2    0    0 -0.50601625502E-01 -0.17172986120E-01  0.28069670376E+01  0.28074756718E+01  0.51109989000E-03 0.  1.
</event>
<event>
 6   3  0.2312675E+03  0.9118800E+02  0.7818608E-02  0.1180000E+00
       11   -1    0    0    0    0  0.00000000000E+00  0.00000000000E+00  0.54999999763E+01  0.55000000000E+01  0.51109989000E-03 0. -1.
     -623   -1    0    0    0    0  0.00000000000E+00  0.00000000000E+00  0.93234578044E-11  0.17124000000E+03  0.17124000000E+03 0.  1.
       11    1    1    2    0    0  0.11832161193E-02 -0.40443264532E-02  0.24164105570E+00  0.24167833498E+00  0.51109989000E-03 0. -1.
     -623    1    1    2    0    0 -0.19247653270E-02 -0.73366282310E-03  0.74145040013E-03  0.17124000001E+03  0.17124000000E+03 0.  1.
     -611    1    1    2    0    0 -0.41010915098E-01  0.81630347359E-02  0.20174125373E+01  0.20178459151E+01  0.51109989000E-03 0. -1.
      611    1    1    2    0    0  0.41752464306E-01 -0.33850454596E-02  0.32402049328E+01  0.32404757358E+01  0.51109989000E-03 0.  1.
</event>
<event>
 6   3  0.2312675E+03  0.9118800E+02  0.7818608E-02  0.1180000E+00
       11   -1    0    0    0    0  0.00000000000E+00  0.00000000000E+00  0.54999999763E+01  0.55000000000E+01  0.51109989000E-03 0. -1.
     -623   -1    0    0    0    0  0.00000000000E+00  0.00000000000E+00  0.93234578044E-11  0.17124000000E+03  0.17124000000E+03 0.  1.
       11    1    1    2    0    0 -0.84238245295E-02  0.87442920285E-02  0.61455189175E+00  0.61467203640E+00  0.51109989000E-03 0. -1.
     -623    1    1    2    0    0  0.82540426554E-01  0.23232261358E-01  0.81155551335E-03  0.17124002147E+03  0.17124000000E+03 0.  1.
     -611    1    1    2    0    0 -0.58640618304E-01 -0.23566382519E-01  0.39079450445E+01  0.39084560671E+01  0.51109989000E-03 0. -1.
      611    1    1    2    0    0 -0.15475983716E-01 -0.84101708656E-02  0.97669148423E+00  0.97685042542E+00  0.51109989000E-03 0.  1.
</event>
<event>
 6   3  0.2312675E+03  0.9118800E+02  0.7818608E-02  0.1180000E+00
       11   -1    0    0    0    0  0.00000000000E+00  0.00000000000E+00  0.54999999763E+01  0.55000000000E+01  0.51109989000E-03 0. -1.
     -623   -1    0    0    0    0  0.00000000000E+00  0.00000000000E+00  0.93234578044E-11  0.17124000000E+03  0.17124000000E+03 0. -1.
       11    1    1    2    0    0 -0.14419953283E-01  0.14762975104E-01  0.11425188840E+00  0.11610183338E+00  0.51109989000E-03 0. -1.
     -623    1    1    2    0    0  0.37359783033E-02 -0.12869168521E-01  0.93536696956E-02  0.17124000078E+03  0.17124000000E+03 0. -1.
     -611    1    1    2    0    0 -0.75046582875E-01 -0.11232160147E+00  0.33262335473E+01  0.33289755187E+01  0.51109989000E-03 0. -1.
      611    1    1    2    0    0  0.85730557855E-01  0.11042779489E+00  0.20501608709E+01  0.20549218681E+01  0.51109989000E-03 0.  1.
</event>
<event>
 6   3  0.2312675E+03  0.9118800E+02  0.7818608E-02  0.1180000E+00
       11   -1    0    0    0    0  0.00000000000E+00  0.00000000000E+00  0.54999999763E+01  0.55000000000E+01  0.51109989000E-03 0. -1.
     -623   -1    0    0    0    0  0.00000000000E+00  0.00000000000E+00  0.93234578044E-11  0.17124000000E+03  0.17124000000E+03 0. -1.
       11    1    1    2    0    0  0.50930269356E-03 -0.20811821033E-01  0.30758934882E+00  0.30829346412E+00  0.51109989000E-03 0. -1.
     -623    1    1    2    0    0  0.14045099649E-01  0.22599650746E-01  0.15173444083E-02  0.17124000207E+03  0.17124000000E+03 0. -1.
     -611    1    1    2    0    0 -0.41412524109E-01  0.29107750103E-01  0.30431304540E+01  0.30435514583E+01  0.51109989000E-03 0. -1.
      611    1    1    2    0    0  0.26858121766E-01 -0.30895579816E-01  0.21477628291E+01  0.21481530036E+01  0.51109989000E-03 0.  1.
</event>
<event>
 6   3  0.2312675E+03  0.9118800E+02  0.7818608E-02  0.1180000E+00
       11   -1    0    0    0    0  0.00000000000E+00  0.00000000000E+00  0.54999999763E+01  0.55000000000E+01  0.51109989000E-03 0.  1.
     -623   -1    0    0    0    0  0.00000000000E+00  0.00000000000E+00  0.93234578044E-11  0.17124000000E+03  0.17124000000E+03 0.  1.
       11    1    1    2    0    0 -0.61193487002E-02  0.89302595413E-02  0.19475039058E+00  0.19505171576E+00  0.51109989000E-03 0.  1.
     -623    1    1    2    0    0  0.18420249534E-02 -0.58727486153E-03  0.98665059911E-03  0.17124000001E+03  0.17124000000E+03 0.  1.
     -611    1    1    2    0    0 -0.29517484918E-01  0.24327428739E-01  0.24157961293E+01  0.24160989850E+01  0.51109989000E-03 0.  1.
      611    1    1    2    0    0  0.33794808665E-01 -0.32670413419E-01  0.28884668057E+01  0.28888492854E+01  0.51109989000E-03 0. -1.
</event>
<event>
 6   3  0.2312675E+03  0.9118800E+02  0.7818608E-02  0.1180000E+00
       11   -1    0    0    0    0  0.00000000000E+00  0.00000000000E+00  0.54999999763E+01  0.55000000000E+01  0.51109989000E-03 0. -1.
     -623   -1    0    0    0    0  0.00000000000E+00  0.00000000000E+00  0.93234578044E-11  0.17124000000E+03  0.17124000000E+03 0.  1.
       11    1    1    2    0    0 -0.26726668851E-02 -0.38021941105E-02  0.17803207377E-01  0.18406934681E-01  0.51109989000E-03 0. -1.
     -623    1    1    2    0    0 -0.10752977362E+00  0.13937430029E-01  0.17751530293E-02  0.17124003434E+03  0.17124000000E+03 0.  1.
     -611    1    1    2    0    0  0.44226995086E-01 -0.10718228432E-01  0.23811847272E+01  0.23816195905E+01  0.51109989000E-03 0.  1.
      611    1    1    2    0    0  0.65975445427E-01  0.58299251299E-03  0.30992368888E+01  0.30999391371E+01  0.51109989000E-03 0. -1.
</event>
<event>
 6   3  0.2312675E+03  0.9118800E+02  0.7818608E-02  0.1180000E+00
       11   -1    0    0    0    0  0.00000000000E+00  0.00000000000E+00  0.54999999763E+01  0.55000000000E+01  0.51109989000E-03 0. -1.
     -623   -1    0    0    0    0  0.00000000000E+00  0.00000000000E+00  0.93234578044E-11  0.17124000000E+03  0.17124000000E+03 0. -1.
       11    1    1    2    0    0  0.15479612983E-01 -0.32908973222E-01  0.37804431731E+00  0.37978992353E+00  0.51109989000E-03 0. -1.
     -623    1    1    2    0    0 -0.68822078004E-01 -0.63115814171E-02  0.21883454497E-02  0.17124001396E+03  0.17124000000E+03 0. -1.
     -611    1    1    2    0    0  0.47411932691E-01  0.34050653464E-01  0.45310663506E+01  0.45314423613E+01  0.51109989000E-03 0. -1.
      611    1    1    2    0    0  0.59305323290E-02  0.51699011732E-02  0.58870096268E+00  0.58875375478E+00  0.51109989000E-03 0.  1.
</event>
<event>
 6   3  0.2312675E+03  0.9118800E+02  0.7818608E-02  0.1180000E+00
       11   -1    0    0    0    0  0.00000000000E+00  0.00000000000E+00  0.54999999763E+01  0.55000000000E+01  0.51109989000E-03 0. -1.
     -623   -1    0    0    0    0  0.00000000000E+00  0.00000000000E+00  0.93234578044E-11  0.17124000000E+03  0.17124000000E+03 0. -1.
       11    1    1    2    0    0  0.16190640514E-01 -0.41427676469E-02  0.37950138247E+00  0.37986953009E+00  0.51109989000E-03 0. -1.
     -623    1    1    2    0    0 -0.28814289764E-02 -0.65729562695E-03  0.75074536644E-03  0.17124000003E+03  0.17124000000E+03 0. -1.
     -611    1    1    2    0    0  0.21675270256E-01 -0.10765358677E-01  0.21186332059E+01  0.21187714913E+01  0.51109989000E-03 0.  1.
      611    1    1    2    0    0 -0.34984481794E-01  0.15565421951E-01  0.30011146425E+01  0.30013589514E+01  0.51109989000E-03 0. -1.
</event>
<event>
 6   3  0.2312675E+03  0.9118800E+02  0.7818608E-02  0.1180000E+00
       11   -1    0    0    0    0  0.00000000000E+00  0.00000000000E+00  0.54999999763E+01  0.55000000000E+01  0.51109989000E-03 0.  1.
     -623   -1    0    0    0    0  0.00000000000E+00  0.00000000000E+00  0.93234578044E-11  0.17124000000E+03  0.17124000000E+03 0. -1.
       11    1    1    2    0    0  0.30061718594E-01  0.14971652406E-01  0.92731615011E+00  0.92792422146E+00  0.51109989000E-03 0.  1.
     -623    1    1    2    0    0  0.27320045129E-02 -0.87311597177E-03  0.12086207906E-02  0.17124000003E+03  0.17124000000E+03 0. -1.
     -611    1    1    2    0    0 -0.47746641512E-01 -0.26019760107E-01  0.31103697673E+01  0.31108450813E+01  0.51109989000E-03 0. -1.
      611    1    1    2    0    0  0.14952918405E-01  0.11921223673E-01  0.14611054382E+01  0.14612306691E+01  0.51109989000E-03 0.  1.
</event>
<event>
 6   3  0.2312675E+03  0.9118800E+02  0.7818608E-02  0.1180000E+00
       11   -1    0    0    0    0  0.00000000000E+00  0.00000000000E+00  0.54999999763E+01  0.55000000000E+01  0.51109989000E-03 0. -1.
     -623   -1    0    0    0    0  0.00000000000E+00  0.00000000000E+00  0.93234578044E-11  0.17124000000E+03  0.17124000000E+03 0. -1.
       11    1    1    2    0    0 -0.52113885366E-01 -0.11924536655E-01  0.83294580156E+00  0.83465982363E+00  0.51109989000E-03 0. -1.
     -623    1    1    2    0    0 -0.27102829324E-01 -0.12495027601E-01  0.24534309752E-02  0.17124000262E+03  0.17124000000E+03 0. -1.
     -611    1    1    2    0    0  0.99892046891E-02  0.32974890376E-02  0.58722511017E+00  0.58731954580E+00  0.51109989000E-03 0. -1.
      611    1    1    2    0    0  0.69227510042E-01  0.21122075231E-01  0.40773756359E+01  0.40780180147E+01  0.51109989000E-03 0. -1.
</event>
<event>
 6   3  0.2312675E+03  0.9118800E+02  0.7818608E-02  0.1180000E+00
       11   -1    0    0    0    0  0.00000000000E+00  0.00000000000E+00  0.54999999763E+01  0.55000000000E+01  0.51109989000E-03 0. -1.
     -623   -1    0    0    0    0  0.00000000000E+00  0.00000000000E+00  0.93234578044E-11  0.17124000000E+03  0.17124000000E+03 0.  1.
       11    1    1    2    0    0 -0.25930063515E-01 -0.25681183674E-01  0.87415692187E+00  0.87491855430E+00  0.51109989000E-03 0. -1.
     -623    1    1    2    0    0 -0.97968822213E-02  0.21328023102E-01  0.30157993797E-02  0.17124000164E+03  0.17124000000E+03 0.  1.
     -611    1    1    2    0    0 -0.19350796165E-01 -0.54570397907E-01  0.13222880868E+01  0.13235552226E+01  0.51109989000E-03 0.  1.
      611    1    1    2    0    0  0.55077741901E-01  0.58923558478E-01  0.33005391683E+01  0.33015245881E+01  0.51109989000E-03 0. -1.
</event>
<event>
 6   3  0.2312675E+03  0.9118800E+02  0.7818608E-02  0.1180000E+00
       11   -1    0    0    0    0  0.00000000000E+00  0.00000000000E+00  0.54999999763E+01  0.55000000000E+01  0.51109989000E-03 0.  1.
     -623   -1    0    0    0    0  0.00000000000E+00  0.00000000000E+00  0.93234578044E-11  0.17124000000E+03  0.17124000000E+03 0. -1.
       11    1    1    2    0    0  0.11358695477E-02 -0.28933882054E-03  0.10152671990E+00  0.10153477233E+00  0.51109989000E-03 0. -1.
     -623    1    1    2    0    0 -0.62302185230E-01  0.31715327860E-01  0.46041546449E-03  0.17124001427E+03  0.17124000000E+03 0. -1.
     -611    1    1    2    0    0  0.33546286731E-01 -0.17263706527E-01  0.29755046051E+01  0.29757438239E+01  0.51109989000E-03 0.  1.
      611    1    1    2    0    0  0.27620029283E-01 -0.14162282682E-01  0.24225082650E+01  0.24227071618E+01  0.51109989000E-03 0.  1.
</event>
<event>
 6   3  0.2312675E+03  0.9118800E+02  0.7818608E-02  0.1180000E+00
       11   -1    0    0    0    0  0.00000000000E+00  0.00000000000E+00  0.54999999763E+01  0.55000000000E+01  0.51109989000E-03 0.  1.
     -623   -1    0    0    0    0  0.00000000000E+00  0.00000000000E+00  0.93234578044E-11  0.17124000000E+03  0.17124000000E+03 0.  1.
       11    1    1    2    0    0  0.24422143326E-02  0.82750633288E-03  0.66901912106E-01  0.66953537950E-01  0.51109989000E-03 0.  1.
     -623    1    1    2    0    0  0.27558398491E-02  0.42166541500E-02  0.44771720297E-02  0.17124000013E+03  0.17124000000E+03 0.  1.
     -611    1    1    2    0    0  0.52632054752E-01 -0.95740420406E-01  0.23322756733E+01  0.23348332786E+01  0.51109989000E-03 0.  1.
      611    1    1    2    0    0 -0.57830108934E-01  0.90696259923E-01  0.30963452189E+01  0.30982130509E+01  0.51109989000E-03 0. -1.
</event>
<event>
 6   3  0.2312675E+03  0.9118800E+02  0.7818608E-02  0.1180000E+00
       11   -1    0    0    0    0  0.00000000000E+00  0.00000000000E+00  0.54999999763E+01  0.55000000000E+01  0.51109989000E-03 0.  1.
     -623   -1    0    0    0    0  0.00000000000E+00  0.00000000000E+00  0.93234578044E-11  0.17124000000E+03  0.17124000000E+03 0.  1.
       11    1    1    2    0    0 -0.19162978832E-01 -0.39514712804E-01  0.52776974147E+00  0.52959398932E+00  0.51109989000E-03 0.  1.
     -623    1    1    2    0    0 -0.53975393795E-01  0.18408290042E-01  0.24171095488E-02  0.17124000951E+03  0.17124000000E+03 0.  1.
     -611    1    1    2    0    0  0.37077762446E-01  0.11561464903E-01  0.25156169264E+01  0.25159167732E+01  0.51109989000E-03 0.  1.
      611    1    1    2    0    0  0.36060610184E-01  0.95449578592E-02  0.24541961990E+01  0.24544797245E+01  0.51109989000E-03 0.  1.
</event>
<event>
 6   3  0.2312675E+03  0.9118800E+02  0.7818608E-02  0.1180000E+00
       11   -1    0    0    0    0  0.00000000000E+00  0.00000000000E+00  0.54999999763E+01  0.55000000000E+01  0.51109989000E-03 0.  1.
     -623   -1    0    0    0    0  0.00000000000E+00  0.00000000000E+00  0.93234578044E-11  0.17124000000E+03  0.17124000000E+03 0.  1.
       11    1    1    2    0    0 -0.15577423433E-02 -0.17655185345E-03  0.15931052253E-02  0.22928015879E-02  0.51109989000E-03 0. -1.
     -623    1    1    2    0    0 -0.57369901846E-02 -0.37067816024E-02  0.13598096306E-02  0.17124000014E+03  0.17124000000E+03 0.  1.
     -611    1    1    2    0    0 -0.35098236121E-01 -0.69828377036E-02  0.34864933202E+01  0.34866770111E+01  0.51109989000E-03 0.  1.
      611    1    1    2    0    0  0.42392968649E-01  0.10866171159E-01  0.20105537411E+01  0.20110300456E+01  0.51109989000E-03 0. -1.
</event>
<event>
 6   3  0.2312675E+03  0.9118800E+02  0.7818608E-02  0.1180000E+00
       11   -1    0    0    0    0  0.00000000000E+00  0.00000000000E+00  0.54999999763E+01  0.55000000000E+01  0.51109989000E-03 0.  1.
     -623   -1    0    0    0    0  0.00000000000E+00  0.00000000000E+00  0.93234578044E-11  0.17124000000E+03  0.17124000000E+03 0.  1.
       11    1    1    2    0    0  0.77152996620E-03 -0.48984636226E-02  0.12991003776E+00  0.13000565118E+00  0.51109989000E-03 0.  1.
     -623    1    1    2    0    0 -0.21182696174E-02  0.20036914071E-02  0.46273151577E-02  0.17124000009E+03  0.17124000000E+03 0.  1.
     -611    1    1    2    0    0 -0.55556072666E-01 -0.53293033544E-01  0.45431424015E+01  0.45437946439E+01  0.51109989000E-03 0.  1.
      611    1    1    2    0    0  0.56902812317E-01  0.56187805760E-01  0.82232022184E+00  0.82619961754E+00  0.51109989000E-03 0. -1.
</event>
<event>
 6   3  0.2312675E+03  0.9118800E+02  0.7818608E-02  0.1180000E+00
       11   -1    0    0    0    0  0.00000000000E+00  0.00000000000E+00  0.54999999763E+01  0.55000000000E+01  0.51109989000E-03 0.  1.
     -623   -1    0    0    0    0  0.00000000000E+00  0.00000000000E+00  0.93234578044E-11  0.17124000000E+03  0.17124000000E+03 0.  1.
       11    1    1    2    0    0  0.19243310375E-02  0.12285216471E-02  0.12389235954E-02  0.26473515354E-02  0.51109989000E-03 0.  1.
     -623    1    1    2    0    0 -0.77663359444E-02  0.59196960908E-03  0.26096052508E-02  0.17124000020E+03  0.17124000000E+03 0.  1.
     -611    1    1    2    0    0 -0.43555110457E-01  0.64656420431E-02  0.10550862204E+01  0.10560047566E+01  0.51109989000E-03 0. -1.
      611    1    1    2    0    0  0.49397115364E-01 -0.82861332993E-02  0.44410652270E+01  0.44413476948E+01  0.51109989000E-03 0.  1.
</event>
<event>
 6   3  0.2312675E+03  0.9118800E+02  0.7818608E-02  0.1180000E+00
       11   -1    0    0    0    0  0.00000000000E+00  0.00000000000E+00  0.54999999763E+01  0.55000000000E+01  0.51109989000E-03 0. -1.
     -623   -1    0    0    0    0  0.00000000000E+00  0.00000000000E+00  0.93234578044E-11  0.17124000000E+03  0.17124000000E+03 0.  1.
       11    1    1    2    0    0  0.62526988215E-02 -0.64264450882E-02  0.11801374582E+00  0.11835497820E+00  0.51109989000E-03 0. -1.
     -623    1    1    2    0    0 -0.12560302143E-03  0.76476433001E-02  0.14112745569E-02  0.17124000018E+03  0.17124000000E+03 0.  1.
     -611    1    1    2    0    0  0.49352700409E-01  0.23371509744E-02  0.30915399590E+01  0.30919347876E+01  0.51109989000E-03 0. -1.
      611    1    1    2    0    0 -0.55479796209E-01 -0.35583491864E-02  0.22890349969E+01  0.22897100576E+01  0.51109989000E-03 0.  1.
</event>
<event>
 6   3  0.2312675E+03  0.9118800E+02  0.7818608E-02  0.1180000E+00
       11   -1    0    0    0    0  0.00000000000E+00  0.00000000000E+00  0.54999999763E+01  0.55000000000E+01  0.51109989000E-03 0. -1.
     -623   -1    0    0    0    0  0.00000000000E+00  0.00000000000E+00  0.93234578044E-11  0.17124000000E+03  0.17124000000E+03 0. -1.
       11    1    1    2    0    0 -0.57767018374E-02 -0.16138624510E-01  0.51161369180E+00  0.51190102202E+00  0.51109989000E-03 0. -1.
     -623    1    1    2    0    0 -0.65605087867E-01  0.51526219962E-01  0.94447301432E-03  0.17124002032E+03  0.17124000000E+03 0. -1.
     -611    1    1    2    0    0  0.60172052029E-01 -0.29299245388E-01  0.42169834102E+01  0.42175144890E+01  0.51109989000E-03 0. -1.
      611    1    1    2    0    0  0.11209737682E-01 -0.60883500677E-02  0.77045840183E+00  0.77056416760E+00  0.51109989000E-03 0. -1.
</event>
<event>
 6   3  0.2312675E+03  0.9118800E+02  0.7818608E-02  0.1180000E+00
       11   -1    0    0    0    0  0.00000000000E+00  0.00000000000E+00  0.54999999763E+01  0.55000000000E+01  0.51109989000E-03 0.  1.
     -623   -1    0    0    0    0  0.00000000000E+00  0.00000000000E+00  0.93234578044E-11  0.17124000000E+03  0.17124000000E+03 0. -1.
       11    1    1    2    0    0 -0.54691999874E-01 -0.38679014961E-01  0.33645748274E+00  0.34306148132E+00  0.51109989000E-03 0.  1.
     -623    1    1    2    0    0 -0.28984661236E-02 -0.39336002179E-02  0.71022291516E-02  0.17124000022E+03  0.17124000000E+03 0. -1.
     -611    1    1    2    0    0  0.20748428828E-01  0.15194764764E-01  0.17943564713E+01  0.17945408286E+01  0.51109989000E-03 0. -1.
      611    1    1    2    0    0  0.36842037150E-01  0.27417850400E-01  0.33620837913E+01  0.33623974713E+01  0.51109989000E-03 0.  1.
</event>
<event>
 6   3  0.2312675E+03  0.9118800E+02  0.7818608E-02  0.1180000E+00
       11   -1    0    0    0    0  0.00000000000E+00  0.00000000000E+00  0.54999999763E+01  0.55000000000E+01  0.51109989000E-03 0.  1.
     -623   -1    0    0    0    0  0.00000000000E+00  0.00000000000E+00  0.93234578044E-11  0.17124000000E+03  0.17124000000E+03 0. -1.
       11    1    1    2    0    0  0.50932350107E-04  0.34748102862E-02  0.16942052415E-01  0.17302348504E-01  0.51109989000E-03 0.  1.
     -623    1    1    2    0    0  0.31838378693E-02 -0.33954865275E-02  0.13806457456E-02  0.17124000007E+03  0.17124000000E+03 0. -1.
     -611    1    1    2    0    0  0.42767260582E-01 -0.15055814942E-01  0.39410193015E+01  0.39412801362E+01  0.51109989000E-03 0.  1.
      611    1    1    2    0    0 -0.46002030801E-01  0.14976491184E-01  0.15406579766E+01  0.15414174464E+01  0.51109989000E-03 0. -1.
</event>
<event>
 6   3  0.2312675E+03  0.9118800E+02  0.7818608E-02  0.1180000E+00
       11   -1    0    0    0    0  0.00000000000E+00  0.00000000000E+00  0.54999999763E+01  0.55000000000E+01  0.51109989000E-03 0. -1.
     -623   -1    0    0    0    0  0.00000000000E+00  0.00000000000E+00  0.93234578044E-11  0.17124000000E+03  0.17124000000E+03 0.  1.
       11    1    1    2    0    0 -0.94470321702E-02  0.52221458980E-02  0.95118067498E-01  0.95729959846E-01  0.51109989000E-03 0. -1.
     -623    1    1    2    0    0  0.31389871747E-02  0.34482478632E-02  0.16424676159E-02  0.17124000007E+03  0.17124000000E+03 0.  1.
     -611    1    1    2    0    0  0.52902681504E-01  0.12202055172E-01  0.26260149154E+01  0.26265761327E+01  0.51109989000E-03 0.  1.
      611    1    1    2    0    0 -0.46594636509E-01 -0.20872448934E-01  0.27772245258E+01  0.27776938361E+01  0.51109989000E-03 0. -1.
</event>
<event>
 6   3  0.2312675E+03  0.9118800E+02  0.7818608E-02  0.1180000E+00
       11   -1    0    0    0    0  0.00000000000E+00  0.00000000000E+00  0.54999999763E+01  0.55000000000E+01  0.51109989000E-03 0. -1.
     -623   -1    0    0    0    0  0.00000000000E+00  0.00000000000E+00  0.93234578044E-11  0.17124000000E+03  0.17124000000E+03 0. -1.
       11    1    1    2    0    0  0.38822715200E-01  0.27383175765E-02  0.51071220247E+00  0.51219324143E+00  0.51109989000E-03 0. -1.
     -623    1    1    2    0    0 -0.40756270570E-01 -0.15254551729E-01  0.31470992177E-02  0.17124000556E+03  0.17124000000E+03 0. -1.
     -611    1    1    2    0    0  0.53544348482E-01 -0.29418317606E-01  0.27137610484E+01  0.27144486961E+01  0.51109989000E-03 0. -1.
      611    1    1    2    0    0 -0.51610793111E-01  0.41934551758E-01  0.22723796262E+01  0.22733525040E+01  0.51109989000E-03 0.  1.
</event>
<event>
 6   3  0.2312675E+03  0.9118800E+02  0.7818608E-02  0.1180000E+00
       11   -1    0    0    0    0  0.00000000000E+00  0.00000000000E+00  0.54999999763E+01  0.55000000000E+01  0.51109989000E-03 0. -1.
     -623   -1    0    0    0    0  0.00000000000E+00  0.00000000000E+00  0.93234578044E-11  0.17124000000E+03  0.17124000000E+03 0. -1.
       11    1    1    2    0    0  0.77716033294E-02  0.11672254044E-01  0.11699040350E-01  0.18269321306E-01  0.51109989000E-03 0. -1.
     -623    1    1    2    0    0 -0.49513291415E-02  0.96558414205E-03  0.89539477747E-02  0.17124000031E+03  0.17124000000E+03 0. -1.
     -611    1    1    2    0    0 -0.76309268760E-01 -0.83475349580E-03  0.37580826901E+01  0.37588574818E+01  0.51109989000E-03 0. -1.
      611    1    1    2    0    0  0.73488994572E-01 -0.11803084690E-01  0.17212642980E+01  0.17228728885E+01  0.51109989000E-03 0.  1.
</event>
<event>
 6   3  0.2312675E+03  0.9118800E+02  0.7818608E-02  0.1180000E+00
       11   -1    0    0    0    0  0.00000000000E+00  0.00000000000E+00  0.54999999763E+01  0.55000000000E+01  0.51109989000E-03 0. -1.
     -623   -1    0    0    0    0  0.00000000000E+00  0.00000000000E+00  0.93234578044E-11  0.17124000000E+03  0.17124000000E+03 0. -1.
       11    1    1    2    0    0 -0.32122494250E-02  0.15011031691E-02  0.14601740734E-01  0.15034756821E-01  0.51109989000E-03 0. -1.
     -623    1    1    2    0    0  0.13186347378E-02 -0.72571316049E-03  0.15165572002E-02  0.17124000001E+03  0.17124000000E+03 0. -1.
     -611    1    1    2    0    0  0.29027140337E-01  0.46309598643E-01  0.27975404486E+01  0.27980743337E+01  0.51109989000E-03 0.  1.
      611    1    1    2    0    0 -0.27133525650E-01 -0.47084988651E-01  0.26863412298E+01  0.26868908962E+01  0.51109989000E-03 0. -1.
</event>
<event>
 6   3  0.2312675E+03  0.9118800E+02  0.7818608E-02  0.1180000E+00
       11   -1    0    0    0    0  0.00000000000E+00  0.00000000000E+00  0.54999999763E+01  0.55000000000E+01  0.51109989000E-03 0.  1.
     -623   -1    0    0    0    0  0.00000000000E+00  0.00000000000E+00  0.93234578044E-11  0.17124000000E+03  0.17124000000E+03 0.  1.
       11    1    1    2    0    0 -0.45780623588E-01 -0.26588333668E-01  0.10426112957E+01  0.10439546830E+01  0.51109989000E-03 0.  1.
     -623    1    1    2    0    0 -0.26591015555E-01 -0.14683046004E-01  0.21256834719E-02  0.17124000271E+03  0.17124000000E+03 0.  1.
     -611    1    1    2    0    0  0.14624543942E-01  0.92163740974E-02  0.90028133459E+00  0.90044742294E+00  0.51109989000E-03 0.  1.
      611    1    1    2    0    0  0.57747095207E-01  0.32055005578E-01  0.35549816628E+01  0.35555951871E+01  0.51109989000E-03 0.  1.
</event>
<event>
 6   3  0.2312675E+03  0.9118800E+02  0.7818608E-02  0.1180000E+00
       11   -1    0    0    0    0  0.00000000000E+00  0.00000000000E+00  0.54999999763E+01  0.55000000000E+01  0.51109989000E-03 0.  1.
     -623   -1    0    0    0    0  0.00000000000E+00  0.00000000000E+00  0.93234578044E-11  0.17124000000E+03  0.17124000000E+03 0. -1.
       11    1    1    2    0    0  0.42054618105E-01  0.90705831109E-01  0.93668640248E+00  0.94200733358E+00  0.51109989000E-03 0.  1.
     -623    1    1    2    0    0  0.85619432431E-02  0.22459228258E-01  0.70101685429E-02  0.17124000183E+03  0.17124000000E+03 0. -1.
     -611    1    1    2    0    0 -0.38324095008E-01 -0.88795239362E-01  0.35431837930E+01  0.35445034890E+01  0.51109989000E-03 0.  1.
      611    1    1    2    0    0 -0.12292466342E-01 -0.24369820010E-01  0.10131196124E+01  0.10134873473E+01  0.51109989000E-03 0. -1.
</event>
<event>
 6   3  0.2312675E+03  0.9118800E+02  0.7818608E-02  0.1180000E+00
       11   -1    0    0    0    0  0.00000000000E+00  0.00000000000E+00  0.54999999763E+01  0.55000000000E+01  0.51109989000E-03 0. -1.
     -623   -1    0    0    0    0  0.00000000000E+00  0.00000000000E+00  0.93234578044E-11  0.17124000000E+03  0.17124000000E+03 0.  1.
       11    1    1    2    0    0 -0.54818387858E-01  0.27783363830E-01  0.85158040280E+00  0.85379530018E+00  0.51109989000E-03 0. -1.
     -623    1    1    2    0    0 -0.25969243592E-01  0.18623489528E-01  0.31523800396E-02  0.17124000301E+03  0.17124000000E+03 0.  1.
     -611    1    1    2    0    0  0.32079479683E-01 -0.18246268580E-01  0.18690953270E+01  0.18694597139E+01  0.51109989000E-03 0. -1.
      611    1    1    2    0    0  0.48708151799E-01 -0.28160584796E-01  0.27761718683E+01  0.27767419769E+01  0.51109989000E-03 0. -1.
</event>
<event>
 6   3  0.2312675E+03  0.9118800E+02  0.7818608E-02  0.1180000E+00
       11   -1    0    0    0    0  0.00000000000E+00  0.00000000000E+00  0.54999999763E+01  0.55000000000E+01  0.51109989000E-03 0. -1.
     -623   -1    0    0    0    0  0.00000000000E+00  0.00000000000E+00  0.93234578044E-11  0.17124000000E+03  0.17124000000E+03 0.  1.
       11    1    1    2    0    0  0.57841624085E-01 -0.13843568878E-01  0.87343825648E+00  0.87546099112E+00  0.51109989000E-03 0. -1.
     -623    1    1    2    0    0  0.65170333831E-02 -0.14546793104E-01  0.25633624541E-02  0.17124000076E+03  0.17124000000E+03 0.  1.
     -611    1    1    2    0    0 -0.17416434782E-01  0.10849119708E-01  0.12919030794E+01  0.12920661219E+01  0.51109989000E-03 0.  1.
      611    1    1    2    0    0 -0.46942222686E-01  0.17541242273E-01  0.33320952779E+01  0.33324721259E+01  0.51109989000E-03 0. -1.
</event>
<event>
 6   3  0.2312675E+03  0.9118800E+02  0.7818608E-02  0.1180000E+00
       11   -1    0    0    0    0  0.00000000000E+00  0.00000000000E+00  0.54999999763E+01  0.55000000000E+01  0.51109989000E-03 0. -1.
     -623   -1    0    0    0    0  0.00000000000E+00  0.00000000000E+00  0.93234578044E-11  0.17124000000E+03  0.17124000000E+03 0. -1.
       11    1    1    2    0    0 -0.69765506792E-02  0.96416505952E-02  0.40536121575E-01  0.42250113148E-01  0.51109989000E-03 0. -1.
     -623    1    1    2    0    0  0.34668320178E-01 -0.45172902473E-01  0.29769828230E-02  0.17124000949E+03  0.17124000000E+03 0. -1.
     -611    1    1    2    0    0  0.23752564709E-01  0.38400579299E-01  0.10718404801E+01  0.10727912494E+01  0.51109989000E-03 0.  1.
      611    1    1    2    0    0 -0.51444334207E-01 -0.28693274221E-02  0.43846463917E+01  0.43849491438E+01  0.51109989000E-03 0. -1.
</event>
<event>
 6   3  0.2312675E+03  0.9118800E+02  0.7818608E-02  0.1180000E+00
       11   -1    0    0    0    0  0.00000000000E+00  0.00000000000E+00  0.54999999763E+01  0.55000000000E+01  0.51109989000E-03 0. -1.
     -623   -1    0    0    0    0  0.00000000000E+00  0.00000000000E+00  0.93234578044E-11  0.17124000000E+03  0.17124000000E+03 0.  1.
       11    1    1    2    0    0 -0.94277905329E-02  0.33150658840E-01  0.11556971110E+00  0.12060045092E+00  0.51109989000E-03 0. -1.
     -623    1    1    2    0    0  0.17721596273E-01 -0.59785884798E-03  0.96751829825E-02  0.17124000119E+03  0.17124000000E+03 0.  1.
     -611    1    1    2    0    0 -0.74975903067E-01 -0.99911872895E-01  0.35305138217E+01  0.35327230114E+01  0.51109989000E-03 0. -1.
      611    1    1    2    0    0  0.66682097328E-01  0.67359072903E-01  0.18442412604E+01  0.18466753463E+01  0.51109989000E-03 0.  1.
</event>
<event>
 6   3  0.2312675E+03  0.9118800E+02  0.7818608E-02  0.1180000E+00
       11   -1    0    0    0    0  0.00000000000E+00  0.00000000000E+00  0.54999999763E+01  0.55000000000E+01  0.51109989000E-03 0. -1.
     -623   -1    0    0    0    0  0.00000000000E+00  0.00000000000E+00  0.93234578044E-11  0.17124000000E+03  0.17124000000E+03 0.  1.
       11    1    1    2    0    0 -0.54175561885E-01  0.21909724903E-01  0.96439171987E+00  0.96616079311E+00  0.51109989000E-03 0. -1.
     -623    1    1    2    0    0 -0.15338872051E-02  0.99171376679E-03  0.21873958485E-02  0.17124000002E+03  0.17124000000E+03 0.  1.
     -611    1    1    2    0    0  0.30390680223E-01 -0.17803914523E-01  0.23160881263E+01  0.23163559836E+01  0.51109989000E-03 0.  1.
      611    1    1    2    0    0  0.25318768866E-01 -0.50975241458E-02  0.22173327342E+01  0.22174831995E+01  0.51109989000E-03 0. -1.
</event>
<event>
 6   3  0.2312675E+03  0.9118800E+02  0.7818608E-02  0.1180000E+00
       11   -1    0    0    0    0  0.00000000000E+00  0.00000000000E+00  0.54999999763E+01  0.55000000000E+01  0.51109989000E-03 0.  1.
     -623   -1    0    0    0    0  0.00000000000E+00  0.00000000000E+00  0.93234578044E-11  0.17124000000E+03  0.17124000000E+03 0. -1.
       11    1    1    2    0    0  0.58183409988E-01  0.28875132501E-02  0.61873753522E+00  0.62147409089E+00  0.51109989000E-03 0.  1.
     -623    1    1    2    0    0 -0.86841781005E-02  0.71222130443E-03  0.29898693243E-02  0.17124000025E+03  0.17124000000E+03 0. -1.
     -611    1    1    2    0    0 -0.32018516439E-01 -0.34060060529E-02  0.31632706149E+01  0.31634345308E+01  0.51109989000E-03 0.  1.
      611    1    1    2    0    0 -0.17480715436E-01 -0.19372850080E-03  0.17150019557E+01  0.17150911294E+01  0.51109989000E-03 0. -1.
</event>
<event>
 6   3  0.2312675E+03  0.9118800E+02  0.7818608E-02  0.1180000E+00
       11   -1    0    0    0    0  0.00000000000E+00  0.00000000000E+00  0.54999999763E+01  0.55000000000E+01  0.51109989000E-03 0.  1.
     -623   -1    0    0    0    0  0.00000000000E+00  0.00000000000E+00  0.93234578044E-11  0.17124000000E+03  0.17124000000E+03 0. -1.
       11    1    1    2    0    0  0.10290876924E+00 -0.24842486292E-01  0.38871117448E+00  0.40286970884E+00  0.51109989000E-03 0.  1.
     -623    1    1    2    0    0  0.25997140621E-01 -0.17522861340E-01  0.16234880326E-01  0.17124000364E+03  0.17124000000E+03 0. -1.
     -611    1    1    2    0    0 -0.13063588921E-01 -0.20471995224E-02  0.12535573420E+01  0.12536271852E+01  0.51109989000E-03 0. -1.
      611    1    1    2    0    0 -0.11584232094E+00  0.44412547154E-01  0.38414965794E+01  0.38434994665E+01  0.51109989000E-03 0.  1.
</event>
<event>
 6   3  0.2312675E+03  0.9118800E+02  0.7818608E-02  0.1180000E+00
       11   -1    0    0    0    0  0.00000000000E+00  0.00000000000E+00  0.54999999763E+01  0.55000000000E+01  0.51109989000E-03 0. -1.
     -623   -1    0    0    0    0  0.00000000000E+00  0.00000000000E+00  0.93234578044E-11  0.17124000000E+03  0.17124000000E+03 0. -1.
       11    1    1    2    0    0  0.69657504035E-02 -0.76896047685E-02  0.95582935012E+00  0.95588579835E+00  0.51109989000E-03 0. -1.
     -623    1    1    2    0    0 -0.81782390111E-01  0.32363510834E-01  0.77003921200E-03  0.17124002259E+03  0.17124000000E+03 0. -1.
     -611    1    1    2    0    0  0.62761061166E-01 -0.22514703244E-01  0.36804745278E+01  0.36810784933E+01  0.51109989000E-03 0. -1.
      611    1    1    2    0    0  0.12055578483E-01 -0.21592027980E-02  0.86292605516E+00  0.86301311521E+00  0.51109989000E-03 0.  1.
</event>
<event>
 6   3  0.2312675E+03  0.9118800E+02  0.7818608E-02  0.1180000E+00
       11   -1    0    0    0    0  0.00000000000E+00  0.00000000000E+00  0.54999999763E+01  0.55000000000E+01  0.51109989000E-03 0. -1.
     -623   -1    0    0    0    0  0.00000000000E+00  0.00000000000E+00  0.93234578044E-11  0.17124000000E+03  0.17124000000E+03 0.  1.
       11    1    1    2    0    0 -0.53615574512E-01 -0.13938787620E-01  0.31585980679E+00  0.32068145939E+00  0.51109989000E-03 0. -1.
     -623    1    1    2    0    0 -0.22090573502E-02  0.73059450227E-02  0.51283611573E-02  0.17124000025E+03  0.17124000000E+03 0.  1.
     -611    1    1    2    0    0  0.26413157243E-01  0.36495007490E-02  0.26169820815E+01  0.26171179664E+01  0.51109989000E-03 0. -1.
      611    1    1    2    0    0  0.29411474612E-01  0.29833418470E-02  0.25620297261E+01  0.25622003267E+01  0.51109989000E-03 0.  1.
</event>
<event>
 6   3  0.2312675E+03  0.9118800E+02  0.7818608E-02  0.1180000E+00
       11   -1    0    0    0    0  0.00000000000E+00  0.00000000000E+00  0.54999999763E+01  0.55000000000E+01  0.51109989000E-03 0.  1.
     -623   -1    0    0    0    0  0.00000000000E+00  0.00000000000E+00  0.93234578044E-11  0.17124000000E+03  0.17124000000E+03 0. -1.
       11    1    1    2    0    0 -0.67499785760E-02 -0.31269618314E-02  0.74277286415E-01  0.74650630281E-01  0.51109989000E-03 0.  1.
     -623    1    1    2    0    0  0.16612138080E-01  0.56017323932E-02  0.26577519413E-02  0.17124000092E+03  0.17124000000E+03 0. -1.
     -611    1    1    2    0    0 -0.81821364301E-01  0.13252020625E-01  0.25895914807E+01  0.25909177235E+01  0.51109989000E-03 0.  1.
      611    1    1    2    0    0  0.71959204796E-01 -0.15726791186E-01  0.28334734572E+01  0.28344307282E+01  0.51109989000E-03 0. -1.
</event>
<event>
 6   3  0.2312675E+03  0.9118800E+02  0.7818608E-02  0.1180000E+00
       11   -1    0    0    0    0  0.00000000000E+00  0.00000000000E+00  0.54999999763E+01  0.55000000000E+01  0.51109989000E-03 0. -1.
     -623   -1    0    0    0    0  0.00000000000E+00  0.00000000000E+00  0.93234578044E-11  0.17124000000E+03  0.17124000000E+03 0.  1.
       11    1    1    2    0    0 -0.26518192233E-01  0.84741827372E-02  0.76325614527E-01  0.81245842653E-01  0.51109989000E-03 0. -1.
     -623    1    1    2    0    0  0.32761195933E-02 -0.73152157018E-02  0.59934528815E-02  0.17124000029E+03  0.17124000000E+03 0.  1.
     -611    1    1    2    0    0 -0.35773829944E-01 -0.12405161988E-01  0.10932162561E+01  0.10938718841E+01  0.51109989000E-03 0.  1.
      611    1    1    2    0    0  0.59015902584E-01  0.11246194953E-01  0.43244646528E+01  0.43248819808E+01  0.51109989000E-03 0. -1.
</event>
<event>
 6   3  0.2312675E+03  0.9118800E+02  0.7818608E-02  0.1180000E+00
       11   -1    0    0    0    0  0.00000000000E+00  0.00000000000E+00  0.54999999763E+01  0.55000000000E+01  0.51109989000E-03 0. -1.
     -623   -1    0    0    0    0  0.00000000000E+00  0.00000000000E+00  0.93234578044E-11  0.17124000000E+03  0.17124000000E+03 0. -1.
       11    1    1    2    0    0  0.15110100188E-02  0.60345059354E-03  0.38741157825E-01  0.38778677603E-01  0.51109989000E-03 0. -1.
     -623    1    1    2    0    0 -0.15854098091E-02 -0.35444378905E-02  0.70995870405E-03  0.17124000005E+03  0.17124000000E+03 0. -1.
     -611    1    1    2    0    0  0.38652580098E-01  0.19983381323E-01  0.27970979575E+01  0.27974364340E+01  0.51109989000E-03 0.  1.
      611    1    1    2    0    0 -0.38578180308E-01 -0.17042394026E-01  0.26634509022E+01  0.26637848428E+01  0.51109989000E-03 0. -1.
</event>
<event>
 6   3  0.2312675E+03  0.9118800E+02  0.7818608E-02  0.1180000E+00
       11   -1    0    0    0    0  0.00000000000E+00  0.00000000000E+00  0.54999999763E+01  0.55000000000E+01  0.51109989000E-03 0. -1.
     -623   -1    0    0    0    0  0.00000000000E+00  0.00000000000E+00  0.93234578044E-11  0.17124000000E+03  0.17124000000E+03 0.  1.
       11    1    1    2    0    0  0.31337532483E-01 -0.18083491018E-01  0.55592710767E+00  0.55710345885E+00  0.51109989000E-03 0. -1.
     -623    1    1    2    0    0  0.22168629974E-01 -0.19105991728E-01  0.16086439743E-02  0.17124000251E+03  0.17124000000E+03 0.  1.
     -611    1    1    2    0    0 -0.28029637082E-01  0.18832525413E-01  0.25916384752E+01  0.25918585169E+01  0.51109989000E-03 0. -1.
      611    1    1    2    0    0 -0.25476525329E-01  0.18356957300E-01  0.23508257451E+01  0.23510355115E+01  0.51109989000E-03 0. -1.
</event>
<event>
 6   3  0.2312675E+03  0.9118800E+02  0.7818608E-02  0.1180000E+00
       11   -1    0    0    0    0  0.00000000000E+00  0.00000000000E+00  0.54999999763E+01  0.55000000000E+01  0.51109989000E-03 0.  1.
     -623   -1    0    0    0    0  0.00000000000E+00  0.00000000000E+00  0.93234578044E-11  0.17124000000E+03  0.17124000000E+03 0. -1.
       11    1    1    2    0    0  0.45821117407E-01  0.16701960179E-01  0.43044573314E+00  0.43320009312E+00  0.51109989000E-03 0.  1.
     -623    1    1    2    0    0  0.12802750666E-01 -0.54463331852E-01  0.32457796968E-02  0.17124000917E+03  0.17124000000E+03 0. -1.
     -611    1    1    2    0    0 -0.44988331243E-01  0.26577857228E-01  0.37521777905E+01  0.37525416407E+01  0.51109989000E-03 0. -1.
      611    1    1    2    0    0 -0.13635536826E-01  0.11183514443E-01  0.13141306726E+01  0.13142490954E+01  0.51109989000E-03 0.  1.
</event>
<event>
 6   3  0.2312675E+03  0.9118800E+02  0.7818608E-02  0.1180000E+00
       11   -1    0    0    0    0  0.00000000000E+00  0.00000000000E+00  0.54999999763E+01  0.55000000000E+01  0.51109989000E-03 0.  1.
     -623   -1    0    0    0    0  0.00000000000E+00  0.00000000000E+00  0.93234578044E-11  0.17124000000E+03  0.17124000000E+03 0.  1.
       11    1    1    2    0    0  0.83627942104E-01  0.25599248973E-01  0.89375196879E+00  0.89802104496E+00  0.51109989000E-03 0.  1.
     -623    1    1    2    0    0 -0.53474101705E-02  0.12337444822E-01  0.50978885589E-02  0.17124000060E+03  0.17124000000E+03 0.  1.
     -611    1    1    2    0    0 -0.39427356349E-01 -0.22331602459E-01  0.22718569130E+01  0.22723088063E+01  0.51109989000E-03 0.  1.
      611    1    1    2    0    0 -0.38853175586E-01 -0.15605091336E-01  0.23292932059E+01  0.23296695449E+01  0.51109989000E-03 0. -1.
</event>
<event>
 6   3  0.2312675E+03  0.9118800E+02  0.7818608E-02  0.1180000E+00
       11   -1    0    0    0    0  0.00000000000E+00  0.00000000000E+00  0.54999999763E+01  0.55000000000E+01  0.51109989000E-03 0. -1.
     -623   -1    0    0    0    0  0.00000000000E+00  0.00000000000E+00  0.93234578044E-11  0.17124000000E+03  0.17124000000E+03 0.  1.
       11    1    1    2    0    0 -0.67119321834E-02 -0.52104567102E-02  0.78003020591E-01  0.78466115854E-01  0.51109989000E-03 0. -1.
     -623    1    1    2    0    0  0.12314699351E-01  0.18682017355E-01  0.83724299022E-03  0.17124000146E+03  0.17124000000E+03 0.  1.
     -611    1    1    2    0    0  0.26078310123E-01  0.53757025145E-02  0.24015912999E+01  0.24017389553E+01  0.51109989000E-03 0.  1.
      611    1    1    2    0    0 -0.31681077291E-01 -0.18847263159E-01  0.30195684128E+01  0.30197934649E+01  0.51109989000E-03 0. -1.
</event>
<event>
 6   3  0.2312675E+03  0.9118800E+02  0.7818608E-02  0.1180000E+00
       11   -1    0    0    0    0  0.00000000000E+00  0.00000000000E+00  0.54999999763E+01  0.55000000000E+01  0.51109989000E-03 0. -1.
     -623   -1    0    0    0    0  0.00000000000E+00  0.00000000000E+00  0.93234578044E-11  0.17124000000E+03  0.17124000000E+03 0. -1.
       11    1    1    2    0    0 -0.68127546576E-03  0.18694445052E-02  0.16291271781E-01  0.16420283748E-01  0.51109989000E-03 0. -1.
     -623    1    1    2    0    0  0.71416153712E-01  0.35374602289E-01  0.73197309655E-03  0.17124001855E+03  0.17124000000E+03 0. -1.
     -611    1    1    2    0    0 -0.86991784632E-02 -0.31923014874E-02  0.66186004002E+00  0.66192510173E+00  0.51109989000E-03 0. -1.
      611    1    1    2    0    0 -0.62035699790E-01 -0.34051745310E-01  0.48211166919E+01  0.48216360675E+01  0.51109989000E-03 0. -1.
</event>
<event>
 6   3  0.2312675E+03  0.9118800E+02  0.7818608E-02  0.1180000E+00
       11   -1    0    0    0    0  0.00000000000E+00  0.00000000000E+00  0.54999999763E+01  0.55000000000E+01  0.51109989000E-03 0.  1.
     -623   -1    0    0    0    0  0.00000000000E+00  0.00000000000E+00  0.93234578044E-11  0.17124000000E+03  0.17124000000E+03 0.  1.
       11    1    1    2    0    0  0.48918884551E-02 -0.52364816463E-02  0.16491708122E+00  0.16507348731E+00  0.51109989000E-03 0.  1.
     -623    1    1    2    0    0  0.43201395302E-02  0.13410929240E-02  0.13539990349E-02  0.17124000007E+03  0.17124000000E+03 0.  1.
     -611    1    1    2    0    0  0.37251549870E-01  0.12271492496E-01  0.80820635246E+00  0.80915760942E+00  0.51109989000E-03 0. -1.
      611    1    1    2    0    0 -0.46463577855E-01 -0.83761037735E-02  0.45255225436E+01  0.45257688382E+01  0.51109989000E-03 0.  1.
</event>
<event>
 6   3  0.2312675E+03  0.9118800E+02  0.7818608E-02  0.1180000E+00
       11   -1    0    0    0    0  0.00000000000E+00  0.00000000000E+00  0.54999999763E+01  0.55000000000E+01  0.51109989000E-03 0. -1.
     -623   -1    0    0    0    0  0.00000000000E+00  0.00000000000E+00  0.93234578044E-11  0.17124000000E+03  0.17124000000E+03 0. -1.
       11    1    1    2    0    0  0.73912450299E-02 -0.11811384823E-01  0.26620546305E+00  0.26657034549E+00  0.51109989000E-03 0. -1.
     -623    1    1    2    0    0  0.10857669388E-02  0.35758090968E-02  0.69397884177E-03  0.17124000004E+03  0.17124000000E+03 0. -1.
     -611    1    1    2    0    0  0.23721426978E-01 -0.42144622031E-02  0.22728414105E+01  0.22729691609E+01  0.51109989000E-03 0. -1.
      611    1    1    2    0    0 -0.32198438947E-01  0.12450037929E-01  0.29602591238E+01  0.29604604514E+01  0.51109989000E-03 0.  1.
</event>
<event>
 6   3  0.2312675E+03  0.9118800E+02  0.7818608E-02  0.1180000E+00
       11   -1    0    0    0    0  0.00000000000E+00  0.00000000000E+00  0.54999999763E+01  0.55000000000E+01  0.51109989000E-03 0.  1.
     -623   -1    0    0    0    0  0.00000000000E+00  0.00000000000E+00  0.93234578044E-11  0.17124000000E+03  0.17124000000E+03 0.  1.
       11    1    1    2    0    0 -0.24850033042E-01 -0.25862479342E-02  0.16921690593E+00  0.17105214204E+00  0.51109989000E-03 0.  1.
     -623    1    1    2    0    0 -0.45238049687E-01  0.23198007575E-01  0.23456006491E-02  0.17124000756E+03  0.17124000000E+03 0.  1.
     -611    1    1    2    0    0  0.53894490241E-01 -0.16676714400E-01  0.42328563204E+01  0.42332322898E+01  0.51109989000E-03 0.  1.
      611    1    1    2    0    0  0.16193592501E-01 -0.39350452440E-02  0.10955811502E+01  0.10957080063E+01  0.51109989000E-03 0. -1.
</event>
<event>
 6   3  0.2312675E+03  0.9118800E+02  0.7818608E-02  0.1180000E+00
       11   -1    0    0    0    0  0.00000000000E+00  0.00000000000E+00  0.54999999763E+01  0.55000000000E+01  0.51109989000E-03 0. -1.
     -623   -1    0    0    0    0  0.00000000000E+00  0.00000000000E+00  0.93234578044E-11  0.17124000000E+03  0.17124000000E+03 0. -1.
       11    1    1    2    0    0 -0.31150226997E-02  0.40630663443E-02  0.17476921638E+00  0.17484493728E+00  0.51109989000E-03 0. -1.
     -623    1    1    2    0    0 -0.93759673327E-03 -0.91473479748E-03  0.10754602294E-02  0.17124000001E+03  0.17124000000E+03 0. -1.
     -611    1    1    2    0    0 -0.38163113837E-01 -0.30741375124E-01  0.33367824693E+01  0.33371423350E+01  0.51109989000E-03 0. -1.
      611    1    1    2    0    0  0.42215733270E-01  0.27593043577E-01  0.19873728304E+01  0.19880127193E+01  0.51109989000E-03 0.  1.
</event>
<event>
 6   3  0.2312675E+03  0.9118800E+02  0.7818608E-02  0.1180000E+00
       11   -1    0    0    0    0  0.00000000000E+00  0.00000000000E+00  0.54999999763E+01  0.55000000000E+01  0.51109989000E-03 0. -1.
     -623   -1    0    0    0    0  0.00000000000E+00  0.00000000000E+00  0.93234578044E-11  0.17124000000E+03  0.17124000000E+03 0.  1.
       11    1    1    2    0    0  0.49828603842E-01 -0.11294851097E-01  0.10239741455E+01  0.10252481530E+01  0.51109989000E-03 0. -1.
     -623    1    1    2    0    0  0.92204849918E-02 -0.31574229164E-02  0.16976884062E-02  0.17124000029E+03  0.17124000000E+03 0.  1.
     -611    1    1    2    0    0 -0.34914773447E-01  0.56758005289E-02  0.28659292210E+01  0.28661475567E+01  0.51109989000E-03 0.  1.
      611    1    1    2    0    0 -0.24134315386E-01  0.87764734842E-02  0.16083989213E+01  0.16086040044E+01  0.51109989000E-03 0. -1.
</event>
<event>
 6   3  0.2312675E+03  0.9118800E+02  0.7818608E-02  0.1180000E+00
       11   -1    0    0    0    0  0.00000000000E+00  0.00000000000E+00  0.54999999763E+01  0.55000000000E+01  0.51109989000E-03 0.  1.
     -623   -1    0    0    0    0  0.00000000000E+00  0.00000000000E+00  0.93234578044E-11  0.17124000000E+03  0.17124000000E+03 0. -1.
       11    1    1    2    0    0  0.49562715271E-01 -0.25690395560E-01  0.52929679143E+00  0.53223285676E+00  0.51109989000E-03 0.  1.
     -623    1    1    2    0    0  0.27338684147E-01 -0.43758735304E-01  0.40272834429E-02  0.17124000782E+03  0.17124000000E+03 0. -1.
     -611    1    1    2    0    0 -0.60682985080E-01  0.53172592738E-01  0.37834702660E+01  0.37843304909E+01  0.51109989000E-03 0.  1.
      611    1    1    2    0    0 -0.16218414345E-01  0.16276538132E-01  0.11832056358E+01  0.11834288321E+01  0.51109989000E-03 0. -1.
</event>
<event>
 6   3  0.2312675E+03  0.9118800E+02  0.7818608E-02  0.1180000E+00
       11   -1    0    0    0    0  0.00000000000E+00  0.00000000000E+00  0.54999999763E+01  0.55000000000E+01  0.51109989000E-03 0. -1.
     -623   -1    0    0    0    0  0.00000000000E+00  0.00000000000E+00  0.93234578044E-11  0.17124000000E+03  0.17124000000E+03 0. -1.
       11    1    1    2    0    0 -0.17098102706E-01  0.10442407062E-01  0.70302245177E+00  0.70330805334E+00  0.51109989000E-03 0. -1.
     -623    1    1    2    0    0 -0.32017072714E-01 -0.24126098772E-02  0.54688407206E-03  0.17124000301E+03  0.17124000000E+03 0. -1.
     -611    1    1    2    0    0  0.28452344202E-01 -0.46145094465E-02  0.27797115760E+01  0.27798610643E+01  0.51109989000E-03 0. -1.
      611    1    1    2    0    0  0.20662831295E-01 -0.34152877505E-02  0.20167190721E+01  0.20168278791E+01  0.51109989000E-03 0. -1.
</event>
<event>
 6   3  0.2312675E+03  0.9118800E+02  0.7818608E-02  0.1180000E+00
       11   -1    0    0    0    0  0.00000000000E+00  0.00000000000E+00  0.54999999763E+01  0.55000000000E+01  0.51109989000E-03 0. -1.
     -623   -1    0    0    0    0  0.00000000000E+00  0.00000000000E+00  0.93234578044E-11  0.17124000000E+03  0.17124000000E+03 0.  1.
       11    1    1    2    0    0  0.59267140419E-02  0.76716846927E-02  0.34837156590E+00  0.34850680028E+00  0.51109989000E-03 0. -1.
     -623    1    1    2    0    0  0.53832331395E-02 -0.77167289059E-03  0.24041481022E-02  0.17124000010E+03  0.17124000000E+03 0.  1.
     -611    1    1    2    0    0 -0.71157037205E-01 -0.29465954605E-01  0.17849376238E+01  0.17865984856E+01  0.51109989000E-03 0.  1.
      611    1    1    2    0    0  0.59847090024E-01  0.22565942803E-01  0.33642866384E+01  0.33648946109E+01  0.51109989000E-03 0. -1.
</event>
<event>
 6   3  0.2312675E+03  0.9118800E+02  0.7818608E-02  0.1180000E+00
       11   -1    0    0    0    0  0.00000000000E+00  0.00000000000E+00  0.54999999763E+01  0.55000000000E+01  0.51109989000E-03 0.  1.
     -623   -1    0    0    0    0  0.00000000000E+00  0.00000000000E+00  0.93234578044E-11  0.17124000000E+03  0.17124000000E+03 0.  1.
       11    1    1    2    0    0  0.73240083029E-01 -0.38838825302E-01  0.93054425622E+00  0.93422986364E+00  0.51109989000E-03 0.  1.
     -623    1    1    2    0    0 -0.93852908175E-02  0.11926831031E-01  0.43097542793E-02  0.17124000073E+03  0.17124000000E+03 0.  1.
     -611    1    1    2    0    0 -0.34728101832E-01  0.41075295378E-02  0.29093064810E+01  0.29095166909E+01  0.51109989000E-03 0. -1.
      611    1    1    2    0    0 -0.29126690380E-01  0.22804464733E-01  0.16558394848E+01  0.16562527187E+01  0.51109989000E-03 0.  1.
</event>
<event>
 6   3  0.2312675E+03  0.9118800E+02  0.7818608E-02  0.1180000E+00
       11   -1    0    0    0    0  0.00000000000E+00  0.00000000000E+00  0.54999999763E+01  0.55000000000E+01  0.51109989000E-03 0.  1.
     -623   -1    0    0    0    0  0.00000000000E+00  0.00000000000E+00  0.93234578044E-11  0.17124000000E+03  0.17124000000E+03 0. -1.
       11    1    1    2    0    0 -0.46508174209E-02  0.12251064186E-01  0.20478679408E+00  0.20520626435E+00  0.51109989000E-03 0.  1.
     -623    1    1    2    0    0  0.64463708427E-03  0.22502572033E-01  0.78945432480E-02  0.17124000166E+03  0.17124000000E+03 0. -1.
     -611    1    1    2    0    0 -0.10720658118E+00 -0.25138221717E-02  0.96804513251E+00  0.97396673975E+00  0.51109989000E-03 0.  1.
      611    1    1    2    0    0  0.11121276152E+00 -0.32239814047E-01  0.43192735064E+01  0.43208253342E+01  0.51109989000E-03 0. -1.
</event>
<event>
 6   3  0.2312675E+03  0.9118800E+02  0.7818608E-02  0.1180000E+00
       11   -1    0    0    0    0  0.00000000000E+00  0.00000000000E+00  0.54999999763E+01  0.55000000000E+01  0.51109989000E-03 0. -1.
     -623   -1    0    0    0    0  0.00000000000E+00  0.00000000000E+00  0.93234578044E-11  0.17124000000E+03  0.17124000000E+03 0. -1.
       11    1    1    2    0    0  0.70675998333E-02 -0.42009797403E-03  0.42706896008E+00  0.42712794961E+00  0.51109989000E-03 0. -1.
     -623    1    1    2    0    0 -0.60470716163E-01  0.87863250650E-02  0.35859283746E-03  0.17124001090E+03  0.17124000000E+03 0. -1.
     -611    1    1    2    0    0  0.26997978062E-01 -0.32402741989E-02  0.24762548573E+01  0.24764042016E+01  0.51109989000E-03 0. -1.
      611    1    1    2    0    0  0.26405138324E-01 -0.51259529003E-02  0.25963175712E+01  0.25964569510E+01  0.51109989000E-03 0. -1.
</event>
<event>
 6   3  0.2312675E+03  0.9118800E+02  0.7818608E-02  0.1180000E+00
       11   -1    0    0    0    0  0.00000000000E+00  0.00000000000E+00  0.54999999763E+01  0.55000000000E+01  0.51109989000E-03 0.  1.
     -623   -1    0    0    0    0  0.00000000000E+00  0.00000000000E+00  0.93234578044E-11  0.17124000000E+03  0.17124000000E+03 0. -1.
       11    1    1    2    0    0  0.13023625667E-01  0.22110875119E-02  0.80091274415E+00  0.80102184034E+00  0.51109989000E-03 0.  1.
     -623    1    1    2    0    0 -0.87529352903E-01 -0.11147046513E-01  0.73238159474E-03  0.17124002273E+03  0.17124000000E+03 0. -1.
     -611    1    1    2    0    0  0.23760021769E-01  0.28526273100E-02  0.14008522429E+01  0.14010567239E+01  0.51109989000E-03 0. -1.
      611    1    1    2    0    0  0.50745705716E-01  0.60833317234E-02  0.32975026233E+01  0.32978987167E+01  0.51109989000E-03 0.  1.
</event>
<event>
 6   3  0.2312675E+03  0.9118800E+02  0.7818608E-02  0.1180000E+00
       11   -1    0    0    0    0  0.00000000000E+00  0.00000000000E+00  0.54999999763E+01  0.55000000000E+01  0.51109989000E-03 0.  1.
     -623   -1    0    0    0    0  0.00000000000E+00  0.00000000000E+00  0.93234578044E-11  0.17124000000E+03  0.17124000000E+03 0.  1.
       11    1    1    2    0    0  0.56589375127E-02 -0.36221389112E-02  0.62820632450E+00  0.62824246181E+00  0.51109989000E-03 0.  1.
     -623    1    1    2    0    0  0.63203492065E-04 -0.68386382090E-02  0.35251093244E-02  0.17124000017E+03  0.17124000000E+03 0.  1.
     -611    1    1    2    0    0 -0.56041033665E-01 -0.53153816399E-01  0.36369678378E+01  0.36377879598E+01  0.51109989000E-03 0.  1.
      611    1    1    2    0    0  0.50318892660E-01  0.63614593519E-01  0.12313007046E+01  0.12339694055E+01  0.51109989000E-03 0. -1.
</event>
<event>
 6   3  0.2312675E+03  0.9118800E+02  0.7818608E-02  0.1180000E+00
       11   -1    0    0    0    0  0.00000000000E+00  0.00000000000E+00  0.54999999763E+01  0.55000000000E+01  0.51109989000E-03 0. -1.
     -623   -1    0    0    0    0  0.00000000000E+00  0.00000000000E+00  0.93234578044E-11  0.17124000000E+03  0.17124000000E+03 0. -1.
       11    1    1    2    0    0  0.10527488513E-02 -0.43068380180E-02  0.76354024200E-01  0.76484347212E-01  0.51109989000E-03 0. -1.
     -623    1    1    2    0    0 -0.81110235049E-01  0.71380867816E-01  0.11706322368E-02  0.17124003409E+03  0.17124000000E+03 0. -1.
     -611    1    1    2    0    0  0.50841433397E-01 -0.43359978659E-01  0.35112073109E+01  0.35118431031E+01  0.51109989000E-03 0. -1.
      611    1    1    2    0    0  0.29216052813E-01 -0.23714051149E-01  0.19112680098E+01  0.19116384596E+01  0.51109989000E-03 0.  1.
</event>
<event>
 6   3  0.2312675E+03  0.9118800E+02  0.7818608E-02  0.1180000E+00
       11   -1    0    0    0    0  0.00000000000E+00  0.00000000000E+00  0.54999999763E+01  0.55000000000E+01  0.51109989000E-03 0.  1.
     -623   -1    0    0    0    0  0.00000000000E+00  0.00000000000E+00  0.93234578044E-11  0.17124000000E+03  0.17124000000E+03 0. -1.
       11    1    1    2    0    0  0.47385551670E-02 -0.11911064831E-01  0.59914889993E-01  0.61273017197E-01  0.51109989000E-03 0.  1.
     -623    1    1    2    0    0 -0.39242890795E-02  0.26504874640E-02  0.22706235457E-02  0.17124000008E+03  0.17124000000E+03 0. -1.
     -611    1    1    2    0    0  0.48012898248E-01  0.42968277257E-02  0.32804411325E+01  0.32807953283E+01  0.51109989000E-03 0.  1.
      611    1    1    2    0    0 -0.48827164336E-01  0.49637496413E-02  0.21573733302E+01  0.21579315740E+01  0.51109989000E-03 0. -1.
</event>
<event>
 6   3  0.2312675E+03  0.9118800E+02  0.7818608E-02  0.1180000E+00
       11   -1    0    0    0    0  0.00000000000E+00  0.00000000000E+00  0.54999999763E+01  0.55000000000E+01  0.51109989000E-03 0.  1.
     -623   -1    0    0    0    0  0.00000000000E+00  0.00000000000E+00  0.93234578044E-11  0.17124000000E+03  0.17124000000E+03 0. -1.
       11    1    1    2    0    0  0.66119494662E-02  0.73229874811E-03  0.23117903414E-01  0.24061438414E-01  0.51109989000E-03 0.  1.
     -623    1    1    2    0    0 -0.14068756963E-02 -0.39195557615E-02  0.30722038783E-02  0.17124000008E+03  0.17124000000E+03 0. -1.
     -611    1    1    2    0    0 -0.56670417068E-01 -0.18942231006E-01  0.10034582221E+01  0.10052357977E+01  0.51109989000E-03 0. -1.
      611    1    1    2    0    0  0.51465343298E-01  0.22129488019E-01  0.44703516468E+01  0.44707026856E+01  0.51109989000E-03 0.  1.
</event>
<event>
 6   3  0.2312675E+03  0.9118800E+02  0.7818608E-02  0.1180000E+00
       11   -1    0    0    0    0  0.00000000000E+00  0.00000000000E+00  0.54999999763E+01  0.55000000000E+01  0.51109989000E-03 0.  1.
     -623   -1    0    0    0    0  0.00000000000E+00  0.00000000000E+00  0.93234578044E-11  0.17124000000E+03  0.17124000000E+03 0.  1.
       11    1    1    2    0    0  0.94902710387E-02  0.23730879912E-02  0.11957436567E-01  0.15457629293E-01  0.51109989000E-03 0.  1.
     -623    1    1    2    0    0 -0.42063633457E-02 -0.42424240830E-02  0.40678943053E-02  0.17124000015E+03  0.17124000000E+03 0.  1.
     -611    1    1    2    0    0  0.31935152888E-01 -0.16698072783E-01  0.30397017327E+01  0.30399153877E+01  0.51109989000E-03 0.  1.
      611    1    1    2    0    0 -0.37219060581E-01  0.18567408875E-01  0.24442729127E+01  0.24446268305E+01  0.51109989000E-03 0. -1.
</event>
<event>
 6   3  0.2312675E+03  0.9118800E+02  0.7818608E-02  0.1180000E+00
       11   -1    0    0    0    0  0.00000000000E+00  0.00000000000E+00  0.54999999763E+01  0.55000000000E+01  0.51109989000E-03 0.  1.
     -623   -1    0    0    0    0  0.00000000000E+00  0.00000000000E+00  0.93234578044E-11  0.17124000000E+03  0.17124000000E+03 0. -1.
       11    1    1    2    0    0 -0.23002427062E-02  0.25334178405E-02  0.74154121660E-02  0.81828407751E-02  0.51109989000E-03 0.  1.
     -623    1    1    2    0    0  0.24203386506E-02 -0.36328992153E-02  0.23283334447E-02  0.17124000007E+03  0.17124000000E+03 0. -1.
     -611    1    1    2    0    0  0.56811669243E-01  0.26191502870E-01  0.19204948506E+01  0.19215135422E+01  0.51109989000E-03 0. -1.
      611    1    1    2    0    0 -0.56931765188E-01 -0.25092021495E-01  0.35697613801E+01  0.35703035456E+01  0.51109989000E-03 0.  1.
</event>
<event>
 6   3  0.2312675E+03  0.9118800E+02  0.7818608E-02  0.1180000E+00
       11   -1    0    0    0    0  0.00000000000E+00  0.00000000000E+00  0.54999999763E+01  0.55000000000E+01  0.51109989000E-03 0.  1.
     -623   -1    0    0    0    0  0.00000000000E+00  0.00000000000E+00  0.93234578044E-11  0.17124000000E+03  0.17124000000E+03 0. -1.
       11    1    1    2    0    0 -0.79042115466E-02 -0.85983739341E-02  0.14809634026E+00  0.14855704567E+00  0.51109989000E-03 0.  1.
     -623    1    1    2    0    0 -0.39077677560E-04 -0.12918780890E-02  0.13657964060E-02  0.17124000001E+03  0.17124000000E+03 0. -1.
     -611    1    1    2    0    0  0.52909490052E-01  0.56773472155E-02  0.28200170141E+01  0.28205190776E+01  0.51109989000E-03 0.  1.
      611    1    1    2    0    0 -0.44966200828E-01  0.42129048075E-02  0.25305208255E+01  0.25309238664E+01  0.51109989000E-03 0. -1.
</event>
<event>
 6   3  0.2312675E+03  0.9118800E+02  0.7818608E-02  0.1180000E+00
       11   -1    0    0    0    0  0.00000000000E+00  0.00000000000E+00  0.54999999763E+01  0.55000000000E+01  0.51109989000E-03 0.  1.
     -623   -1    0    0    0    0  0.00000000000E+00  0.00000000000E+00  0.93234578044E-11  0.17124000000E+03  0.17124000000E+03 0.  1.
       11    1    1    2    0    0  0.10568552609E-01  0.40998294556E-01  0.14433023865E+00  0.15041287669E+00  0.51109989000E-03 0.  1.
     -623    1    1    2    0    0  0.10680647335E-01 -0.12950822123E-01  0.10116080516E-01  0.17124000112E+03  0.17124000000E+03 0.  1.
     -611    1    1    2    0    0 -0.56253359904E-01  0.75058831447E-01  0.30640545220E+01  0.30654899517E+01  0.51109989000E-03 0.  1.
      611    1    1    2    0    0  0.35004159960E-01 -0.10310630388E+00  0.22814991351E+01  0.22840960500E+01  0.51109989000E-03 0. -1.
</event>
<event>
 6   3  0.2312675E+03  0.9118800E+02  0.7818608E-02  0.1180000E+00
       11   -1    0    0    0    0  0.00000000000E+00  0.00000000000E+00  0.54999999763E+01  0.55000000000E+01  0.51109989000E-03 0. -1.
     -623   -1    0    0    0    0  0.00000000000E+00  0.00000000000E+00  0.93234578044E-11  0.17124000000E+03  0.17124000000E+03 0.  1.
       11    1    1    2    0    0  0.11647059528E-01  0.17888272395E-01  0.61733714759E+00  0.61770628887E+00  0.51109989000E-03 0. -1.
     -623    1    1    2    0    0 -0.65783654230E-01 -0.42239616988E-01  0.74942144456E-03  0.17124001785E+03  0.17124000000E+03 0.  1.
     -611    1    1    2    0    0  0.10233728741E-01  0.30984353488E-02  0.90645441449E+00  0.90651762050E+00  0.51109989000E-03 0.  1.
      611    1    1    2    0    0  0.43902865956E-01  0.21252909241E-01  0.39754589923E+01  0.39757582433E+01  0.51109989000E-03 0. -1.
</event>
<event>
 6   3  0.2312675E+03  0.9118800E+02  0.7818608E-02  0.1180000E+00
       11   -1    0    0    0    0  0.00000000000E+00  0.00000000000E+00  0.54999999763E+01  0.55000000000E+01  0.51109989000E-03 0.  1.
     -623   -1    0    0    0    0  0.00000000000E+00  0.00000000000E+00  0.93234578044E-11  0.17124000000E+03  0.17124000000E+03 0.  1.
       11    1    1    2    0    0 -0.51663538415E-01 -0.26360045767E-02  0.67400954200E+00  0.67599200709E+00  0.51109989000E-03 0.  1.
     -623    1    1    2    0    0 -0.12880768595E-01  0.56015677339E-02  0.24160317367E-02  0.17124000059E+03  0.17124000000E+03 0.  1.
     -611    1    1    2    0    0  0.48714435723E-01 -0.22516947788E-02  0.36046238702E+01  0.36049537685E+01  0.51109989000E-03 0.  1.
      611    1    1    2    0    0  0.15829871249E-01 -0.71386837669E-03  0.12189505295E+01  0.12190536285E+01  0.51109989000E-03 0.  1.
</event>
<event>
 6   3  0.2312675E+03  0.9118800E+02  0.7818608E-02  0.1180000E+00
       11   -1    0    0    0    0  0.00000000000E+00  0.00000000000E+00  0.54999999763E+01  0.55000000000E+01  0.51109989000E-03 0.  1.
     -623   -1    0    0    0    0  0.00000000000E+00  0.00000000000E+00  0.93234578044E-11  0.17124000000E+03  0.17124000000E+03 0. -1.
       11    1    1    2    0    0  0.12997690333E-01  0.62645763455E-02  0.88025985712E+00  0.88037824948E+00  0.51109989000E-03 0.  1.
     -623    1    1    2    0    0 -0.88823466683E-01 -0.29390065892E-01  0.82504937178E-03  0.17124002556E+03  0.17124000000E+03 0. -1.
     -611    1    1    2    0    0  0.63161769734E-01  0.18434078227E-01  0.38012603702E+01  0.38018298078E+01  0.51109989000E-03 0.  1.
      611    1    1    2    0    0  0.12664006697E-01  0.46914113455E-02  0.81765470458E+00  0.81776638691E+00  0.51109989000E-03 0.  1.
</event>
<event>
 6   3  0.2312675E+03  0.9118800E+02  0.7818608E-02  0.1180000E+00
       11   -1    0    0    0    0  0.00000000000E+00  0.00000000000E+00  0.54999999763E+01  0.55000000000E+01  0.51109989000E-03 0.  1.
     -623   -1    0    0    0    0  0.00000000000E+00  0.00000000000E+00  0.93234578044E-11  0.17124000000E+03  0.17124000000E+03 0. -1.
       11    1    1    2    0    0 -0.66444697784E-01 -0.10693836661E-01  0.98672536895E+00  0.98901793258E+00  0.51109989000E-03 0.  1.
     -623    1    1    2    0    0  0.56350852319E-02 -0.61533532780E-02  0.27344019749E-02  0.17124000023E+03  0.17124000000E+03 0. -1.
     -611    1    1    2    0    0  0.23552345331E-01  0.60282195356E-02  0.17631563824E+01  0.17633240606E+01  0.51109989000E-03 0.  1.
      611    1    1    2    0    0  0.37257267211E-01  0.10818970400E-01  0.27473838221E+01  0.27476577810E+01  0.51109989000E-03 0.  1.
</event>
<event>
 6   3  0.2312675E+03  0.9118800E+02  0.7818608E-02  0.1180000E+00
       11   -1    0    0    0    0  0.00000000000E+00  0.00000000000E+00  0.54999999763E+01  0.55000000000E+01  0.51109989000E-03 0.  1.
     -623   -1    0    0    0    0  0.00000000000E+00  0.00000000000E+00  0.93234578044E-11  0.17124000000E+03  0.17124000000E+03 0.  1.
       11    1    1    2    0    0 -0.42244382667E-01 -0.85404414809E-02  0.10092757550E+01  0.10101956929E+01  0.51109989000E-03 0.  1.
     -623    1    1    2    0    0 -0.15444494306E-01  0.11484739154E-02  0.12983117081E-02  0.17124000071E+03  0.17124000000E+03 0.  1.
     -611    1    1    2    0    0  0.23468038231E-01  0.32598160683E-02  0.17268394130E+01  0.17270020251E+01  0.51109989000E-03 0.  1.
      611    1    1    2    0    0  0.34220838740E-01  0.41321514969E-02  0.27625864964E+01  0.27628015766E+01  0.51109989000E-03 0. -1.
</event>
<event>
 6   3  0.2312675E+03  0.9118800E+02  0.7818608E-02  0.1180000E+00
       11   -1    0    0    0    0  0.00000000000E+00  0.00000000000E+00  0.54999999763E+01  0.55000000000E+01  0.51109989000E-03 0.  1.
     -623   -1    0    0    0    0  0.00000000000E+00  0.00000000000E+00  0.93234578044E-11  0.17124000000E+03  0.17124000000E+03 0.  1.
       11    1    1    2    0    0 -0.18454844750E-01 -0.14355379600E-01  0.41966778824E+00  0.42031889314E+00  0.51109989000E-03 0.  1.
     -623    1    1    2    0    0 -0.72225551145E-01 -0.64159446011E-01  0.20949962860E-02  0.17124002726E+03  0.17124000000E+03 0.  1.
     -611    1    1    2    0    0  0.37536732323E-01  0.32254096476E-01  0.21205029199E+01  0.21210804388E+01  0.51109989000E-03 0. -1.
      611    1    1    2    0    0  0.53143663633E-01  0.46260729187E-01  0.29577342752E+01  0.29585734076E+01  0.51109989000E-03 0.  1.
</event>
<event>
 6   3  0.2312675E+03  0.9118800E+02  0.7818608E-02  0.1180000E+00
       11   -1    0    0    0    0  0.00000000000E+00  0.00000000000E+00  0.54999999763E+01  0.55000000000E+01  0.51109989000E-03 0. -1.
     -623   -1    0    0    0    0  0.00000000000E+00  0.00000000000E+00  0.93234578044E-11  0.17124000000E+03  0.17124000000E+03 0. -1.
       11    1    1    2    0    0  0.52874580337E-01 -0.50047979466E-01  0.61627455054E+00  0.62056031484E+00  0.51109989000E-03 0. -1.
     -623    1    1    2    0    0 -0.10143216870E-02  0.46788073576E-02  0.47739873970E-02  0.17124000013E+03  0.17124000000E+03 0. -1.
     -611    1    1    2    0    0 -0.23807125358E-01  0.22729805345E-01  0.22416732810E+01  0.22419149813E+01  0.51109989000E-03 0.  1.
      611    1    1    2    0    0 -0.28053133304E-01  0.22639366775E-01  0.26372781585E+01  0.26375245716E+01  0.51109989000E-03 0. -1.
</event>
<event>
 6   3  0.2312675E+03  0.9118800E+02  0.7818608E-02  0.1180000E+00
       11   -1    0    0    0    0  0.00000000000E+00  0.00000000000E+00  0.54999999763E+01  0.55000000000E+01  0.51109989000E-03 0. -1.
     -623   -1    0    0    0    0  0.00000000000E+00  0.00000000000E+00  0.93234578044E-11  0.17124000000E+03  0.17124000000E+03 0. -1.
       11    1    1    2    0    0 -0.37142282834E-01  0.25107122410E-01  0.10498122847E+01  0.10507692473E+01  0.51109989000E-03 0. -1.
     -623    1    1    2    0    0 -0.17884121317E-01  0.37641870063E-02  0.13927077867E-02  0.17124000098E+03  0.17124000000E+03 0. -1.
     -611    1    1    2    0    0  0.40972827737E-01 -0.20953043474E-01  0.33606511625E+01  0.33609662748E+01  0.51109989000E-03 0. -1.
      611    1    1    2    0    0  0.14053576394E-01 -0.79182659317E-02  0.10881438196E+01  0.10882634954E+01  0.51109989000E-03 0. -1.
</event>
<event>
 6   3  0.2312675E+03  0.9118800E+02  0.7818608E-02  0.1180000E+00
       11   -1    0    0    0    0  0.00000000000E+00  0.00000000000E+00  0.54999999763E+01  0.55000000000E+01  0.51109989000E-03 0.  1.
     -623   -1    0    0    0    0  0.00000000000E+00  0.00000000000E+00  0.93234578044E-11  0.17124000000E+03  0.17124000000E+03 0. -1.
       11    1    1    2    0    0 -0.15317402078E-02 -0.38611029019E-02  0.10454837621E-01  0.11261402953E-01  0.51109989000E-03 0.  1.
     -623    1    1    2    0    0  0.32069557850E-02  0.28151971278E-02  0.41542341358E-02  0.17124000010E+03  0.17124000000E+03 0. -1.
     -611    1    1    2    0    0 -0.60775936376E-01 -0.30979439273E-01  0.81094048308E+00  0.81380474834E+00  0.51109989000E-03 0. -1.
      611    1    1    2    0    0  0.59100720798E-01  0.32025345047E-01  0.46744504215E+01  0.46749337452E+01  0.51109989000E-03 0.  1.
</event>
<event>
 6   3  0.2312675E+03  0.9118800E+02  0.7818608E-02  0.1180000E+00
       11   -1    0    0    0    0  0.00000000000E+00  0.00000000000E+00  0.54999999763E+01  0.55000000000E+01  0.51109989000E-03 0. -1.
     -623   -1    0    0    0    0  0.00000000000E+00  0.00000000000E+00  0.93234578044E-11  0.17124000000E+03  0.17124000000E+03 0. -1.
       11    1    1    2    0    0 -0.38859529601E-01  0.64102501105E-02  0.84965083348E+00  0.85056331593E+00  0.51109989000E-03 0. -1.
     -623    1    1    2    0    0 -0.17776003101E-01 -0.60729397060E-01  0.15872885273E-02  0.17124001170E+03  0.17124000000E+03 0. -1.
     -611    1    1    2    0    0  0.87710395486E-02  0.96102225372E-02  0.75600414556E+00  0.75611627203E+00  0.51109989000E-03 0.  1.
      611    1    1    2    0    0  0.47864493177E-01  0.44708924435E-01  0.38927577106E+01  0.38933087153E+01  0.51109989000E-03 0. -1.
</event>
<event>
 6   3  0.2312675E+03  0.9118800E+02  0.7818608E-02  0.1180000E+00
       11   -1    0    0    0    0  0.00000000000E+00  0.00000000000E+00  0.54999999763E+01  0.55000000000E+01  0.51109989000E-03 0.  1.
     -623   -1    0    0    0    0  0.00000000000E+00  0.00000000000E+00  0.93234578044E-11  0.17124000000E+03  0.17124000000E+03 0.  1.
       11    1    1    2    0    0 -0.11119590773E-02  0.29849379239E-02  0.10898736364E-01  0.11366177230E-01  0.51109989000E-03 0.  1.
     -623    1    1    2    0    0  0.22291119722E-02 -0.27512081453E-03  0.17485143461E-02  0.17124000002E+03  0.17124000000E+03 0.  1.
     -611    1    1    2    0    0 -0.35008268829E-01  0.45023008900E-01  0.33231891662E+01  0.33236785563E+01  0.51109989000E-03 0.  1.
      611    1    1    2    0    0  0.33891115935E-01 -0.47732826009E-01  0.21641635594E+01  0.21649552428E+01  0.51109989000E-03 0. -1.
</event>
<event>
 6   3  0.2312675E+03  0.9118800E+02  0.7818608E-02  0.1180000E+00
       11   -1    0    0    0    0  0.00000000000E+00  0.00000000000E+00  0.54999999763E+01  0.55000000000E+01  0.51109989000E-03 0. -1.
     -623   -1    0    0    0    0  0.00000000000E+00  0.00000000000E+00  0.93234578044E-11  0.17124000000E+03  0.17124000000E+03 0.  1.
       11    1    1    2    0    0  0.18866147289E-03 -0.18964392132E-02  0.32084500154E+00  0.32085106874E+00  0.51109989000E-03 0. -1.
     -623    1    1    2    0    0 -0.60914596716E-01 -0.24927935281E-01  0.44837707907E-03  0.17124001265E+03  0.17124000000E+03 0.  1.
     -611    1    1    2    0    0  0.27754327579E-01  0.14323230214E-01  0.26387186190E+01  0.26389034975E+01  0.51109989000E-03 0. -1.
      611    1    1    2    0    0  0.32971607667E-01  0.12501144282E-01  0.25399879789E+01  0.25402327845E+01  0.51109989000E-03 0.  1.
</event>
<event>
 6   3  0.2312675E+03  0.9118800E+02  0.7818608E-02  0.1180000E+00
       11   -1    0    0    0    0  0.00000000000E+00  0.00000000000E+00  0.54999999763E+01  0.55000000000E+01  0.51109989000E-03 0.  1.
     -623   -1    0    0    0    0  0.00000000000E+00  0.00000000000E+00  0.93234578044E-11  0.17124000000E+03  0.17124000000E+03 0.  1.
       11    1    1    2    0    0  0.88336547606E-02  0.21016468105E-02  0.28072808971E-01  0.29509222327E-01  0.51109989000E-03 0.  1.
     -623    1    1    2    0    0 -0.28479384170E-02  0.47042721272E-02  0.32619628468E-02  0.17124000012E+03  0.17124000000E+03 0.  1.
     -611    1    1    2    0    0  0.40241525978E-01 -0.54832397818E-01  0.19311553729E+01  0.19323527907E+01  0.51109989000E-03 0. -1.
      611    1    1    2    0    0 -0.46227242321E-01  0.48026478880E-01  0.35375098316E+01  0.35381378676E+01  0.51109989000E-03 0.  1.
</event>
<event>
 6   3  0.2312675E+03  0.9118800E+02  0.7818608E-02  0.1180000E+00
       11   -1    0    0    0    0  0.00000000000E+00  0.00000000000E+00  0.54999999763E+01  0.55000000000E+01  0.51109989000E-03 0.  1.
     -623   -1    0    0    0    0  0.00000000000E+00  0.00000000000E+00  0.93234578044E-11  0.17124000000E+03  0.17124000000E+03 0.  1.
       11    1    1    2    0    0 -0.35179586716E-01  0.18654272482E-01  0.89350016142E+00  0.89438715604E+00  0.51109989000E-03 0.  1.
     -623    1    1    2    0    0 -0.12378696278E-01 -0.20233637272E-01  0.11366305950E-02  0.17124000165E+03  0.17124000000E+03 0.  1.
     -611    1    1    2    0    0  0.32869655135E-01 -0.64460230759E-03  0.32682517588E+01  0.32684171475E+01  0.51109989000E-03 0.  1.
      611    1    1    2    0    0  0.14688627852E-01  0.22239670975E-02  0.13371114248E+01  0.13371940493E+01  0.51109989000E-03 0. -1.
</event>
<event>
 6   3  0.2312675E+03  0.9118800E+02  0.7818608E-02  0.1180000E+00
       11   -1    0    0    0    0  0.00000000000E+00  0.00000000000E+00  0.54999999763E+01  0.55000000000E+01  0.51109989000E-03 0.  1.
     -623   -1    0    0    0    0  0.00000000000E+00  0.00000000000E+00  0.93234578044E-11  0.17124000000E+03  0.17124000000E+03 0.  1.
       11    1    1    2    0    0 -0.12981138971E-01 -0.27302982576E-01  0.29588313226E+00  0.29742402728E+00  0.51109989000E-03 0.  1.
     -623    1    1    2    0    0  0.10521980245E-01 -0.56881597701E-02  0.34800594992E-02  0.17124000045E+03  0.17124000000E+03 0.  1.
     -611    1    1    2    0    0 -0.52201001477E-01  0.60477103431E-01  0.26440393119E+01  0.26452460318E+01  0.51109989000E-03 0. -1.
      611    1    1    2    0    0  0.54660160203E-01 -0.27485961085E-01  0.25565974726E+01  0.25573294878E+01  0.51109989000E-03 0.  1.
</event>
<event>
 6   3  0.2312675E+03  0.9118800E+02  0.7818608E-02  0.1180000E+00
       11   -1    0    0    0    0  0.00000000000E+00  0.00000000000E+00  0.54999999763E+01  0.55000000000E+01  0.51109989000E-03 0. -1.
     -623   -1    0    0    0    0  0.00000000000E+00  0.00000000000E+00  0.93234578044E-11  0.17124000000E+03  0.17124000000E+03 0.  1.
       11    1    1    2    0    0 -0.66108330291E-01 -0.35110248903E-01  0.80026786245E+00  0.80376112982E+00  0.51109989000E-03 0. -1.
     -623    1    1    2    0    0 -0.45887914046E-02  0.77144205949E-02  0.41092840526E-02  0.17124000028E+03  0.17124000000E+03 0.  1.
     -611    1    1    2    0    0  0.32302169235E-01  0.12062757660E-01  0.19607153409E+01  0.19610185745E+01  0.51109989000E-03 0.  1.
      611    1    1    2    0    0  0.38394952460E-01  0.15333070647E-01  0.27349074889E+01  0.27352200111E+01  0.51109989000E-03 0. -1.
</event>
<event>
 6   3  0.2312675E+03  0.9118800E+02  0.7818608E-02  0.1180000E+00
       11   -1    0    0    0    0  0.00000000000E+00  0.00000000000E+00  0.54999999763E+01  0.55000000000E+01  0.51109989000E-03 0. -1.
     -623   -1    0    0    0    0  0.00000000000E+00  0.00000000000E+00  0.93234578044E-11  0.17124000000E+03  0.17124000000E+03 0.  1.
       11    1    1    2    0    0  0.33927530408E-01  0.10494524543E-01  0.85137208296E+00  0.85211260830E+00  0.51109989000E-03 0. -1.
     -623    1    1    2    0    0 -0.45579997968E-01  0.71263782771E-02  0.23947092057E-02  0.17124000623E+03  0.17124000000E+03 0.  1.
     -611    1    1    2    0    0 -0.37560067355E-01 -0.49741227438E-01  0.28674733828E+01  0.28681507650E+01  0.51109989000E-03 0. -1.
      611    1    1    2    0    0  0.49212534916E-01  0.32120324617E-01  0.17787598014E+01  0.17797303956E+01  0.51109989000E-03 0.  1.
</event>
<event>
 6   3  0.2312675E+03  0.9118800E+02  0.7818608E-02  0.1180000E+00
       11   -1    0    0    0    0  0.00000000000E+00  0.00000000000E+00  0.54999999763E+01  0.55000000000E+01  0.51109989000E-03 0.  1.
     -623   -1    0    0    0    0  0.00000000000E+00  0.00000000000E+00  0.93234578044E-11  0.17124000000E+03  0.17124000000E+03 0. -1.
       11    1    1    2    0    0 -0.98831388976E-02  0.17877484805E-01  0.45998438000E+00  0.46043802185E+00  0.51109989000E-03 0.  1.
     -623    1    1    2    0    0 -0.75279027823E-01  0.85293078025E-03  0.12247498041E-02  0.17124001655E+03  0.17124000000E+03 0. -1.
     -611    1    1    2    0    0  0.34677482048E-01 -0.78274715147E-02  0.20680048739E+01  0.20683104740E+01  0.51109989000E-03 0.  1.
      611    1    1    2    0    0  0.50484684773E-01 -0.10902944093E-01  0.29707859785E+01  0.29712349568E+01  0.51109989000E-03 0.  1.
</event>
<event>
 6   3  0.2312675E+03  0.9118800E+02  0.7818608E-02  0.1180000E+00
       11   -1    0    0    0    0  0.00000000000E+00  0.00000000000E+00  0.54999999763E+01  0.55000000000E+01  0.51109989000E-03 0.  1.
     -623   -1    0    0    0    0  0.00000000000E+00  0.00000000000E+00  0.93234578044E-11  0.17124000000E+03  0.17124000000E+03 0. -1.
       11    1    1    2    0    0 -0.47849877407E-02 -0.54234252299E-02  0.29518267225E+00  0.29527170686E+00  0.51109989000E-03 0.  1.
     -623    1    1    2    0    0  0.61905493847E-01  0.57472487754E-01  0.68660766628E-03  0.17124002084E+03  0.17124000000E+03 0. -1.
     -611    1    1    2    0    0 -0.31452865384E-01 -0.24966133386E-01  0.27244642149E+01  0.27247601931E+01  0.51109989000E-03 0.  1.
      611    1    1    2    0    0 -0.25667640810E-01 -0.27082929220E-01  0.24796664893E+01  0.24799472720E+01  0.51109989000E-03 0. -1.
</event>
<event>
 6   3  0.2312675E+03  0.9118800E+02  0.7818608E-02  0.1180000E+00
       11   -1    0    0    0    0  0.00000000000E+00  0.00000000000E+00  0.54999999763E+01  0.55000000000E+01  0.51109989000E-03 0. -1.
     -623   -1    0    0    0    0  0.00000000000E+00  0.00000000000E+00  0.93234578044E-11  0.17124000000E+03  0.17124000000E+03 0. -1.
       11    1    1    2    0    0 -0.53314459830E-02 -0.71118836370E-02  0.30675674187E+00  0.30688591221E+00  0.51109989000E-03 0. -1.
     -623    1    1    2    0    0  0.30449778767E-03  0.11807493001E-03  0.94387509790E-03  0.17124000000E+03  0.17124000000E+03 0. -1.
     -611    1    1    2    0    0 -0.42804878280E-01  0.31836795618E-02  0.28498335414E+01  0.28501568147E+01  0.51109989000E-03 0.  1.
      611    1    1    2    0    0  0.47831826475E-01  0.38101291452E-02  0.23424658177E+01  0.23429572700E+01  0.51109989000E-03 0. -1.
</event>
<event>
 6   3  0.2312675E+03  0.9118800E+02  0.7818608E-02  0.1180000E+00
       11   -1    0    0    0    0  0.00000000000E+00  0.00000000000E+00  0.54999999763E+01  0.55000000000E+01  0.51109989000E-03 0.  1.
     -623   -1    0    0    0    0  0.00000000000E+00  0.00000000000E+00  0.93234578044E-11  0.17124000000E+03  0.17124000000E+03 0. -1.
       11    1    1    2    0    0  0.21674957911E-01 -0.59787724884E-02  0.48796240333E-01  0.53729729338E-01  0.51109989000E-03 0.  1.
     -623    1    1    2    0    0  0.45604368542E-01  0.34439395286E-01  0.54333668065E-02  0.17124000962E+03  0.17124000000E+03 0. -1.
     -611    1    1    2    0    0 -0.56426530572E-01 -0.24078772519E-01  0.45396788831E+01  0.45400934311E+01  0.51109989000E-03 0.  1.
      611    1    1    2    0    0 -0.10852795871E-01 -0.43818502736E-02  0.90609148522E+00  0.90616721669E+00  0.51109989000E-03 0.  1.
</event>
<event>
 6   3  0.2312675E+03  0.9118800E+02  0.7818608E-02  0.1180000E+00
       11   -1    0    0    0    0  0.00000000000E+00  0.00000000000E+00  0.54999999763E+01  0.55000000000E+01  0.51109989000E-03 0.  1.
     -623   -1    0    0    0    0  0.00000000000E+00  0.00000000000E+00  0.93234578044E-11  0.17124000000E+03  0.17124000000E+03 0. -1.
       11    1    1    2    0    0  0.49274790132E-01 -0.58977823236E-03  0.24266532720E+00  0.24761880992E+00  0.51109989000E-03 0.  1.
     -623    1    1    2    0    0  0.14960890987E-01  0.32012464440E-02  0.55656413395E-02  0.17124000077E+03  0.17124000000E+03 0. -1.
     -611    1    1    2    0    0 -0.19528869668E-01  0.20860892756E-01  0.15072455997E+01  0.15075165381E+01  0.51109989000E-03 0. -1.
      611    1    1    2    0    0 -0.44706811451E-01 -0.23472360967E-01  0.37445234080E+01  0.37448638781E+01  0.51109989000E-03 0.  1.
</event>
<event>
 6   3  0.2312675E+03  0.9118800E+02  0.7818608E-02  0.1180000E+00
       11   -1    0    0    0    0  0.00000000000E+00  0.00000000000E+00  0.54999999763E+01  0.55000000000E+01  0.51109989000E-03 0.  1.
     -623   -1    0    0    0    0  0.00000000000E+00  0.00000000000E+00  0.93234578044E-11  0.17124000000E+03  0.17124000000E+03 0.  1.
       11    1    1    2    0    0 -0.15197684108E-01  0.69279141831E-01  0.53025720384E+00  0.53497993658E+00  0.51109989000E-03 0.  1.
     -623    1    1    2    0    0 -0.76930393710E-02 -0.73842274354E-03  0.58250383507E-02  0.17124000027E+03  0.17124000000E+03 0.  1.
     -611    1    1    2    0    0  0.44144561002E-01 -0.63901287164E-01  0.43947097820E+01  0.43953960511E+01  0.51109989000E-03 0.  1.
      611    1    1    2    0    0 -0.21253837523E-01 -0.46394319234E-02  0.56920795207E+00  0.56962373885E+00  0.51109989000E-03 0. -1.
</event>
<event>
 6   3  0.2312675E+03  0.9118800E+02  0.7818608E-02  0.1180000E+00
       11   -1    0    0    0    0  0.00000000000E+00  0.00000000000E+00  0.54999999763E+01  0.55000000000E+01  0.51109989000E-03 0. -1.
     -623   -1    0    0    0    0  0.00000000000E+00  0.00000000000E+00  0.93234578044E-11  0.17124000000E+03  0.17124000000E+03 0. -1.
       11    1    1    2    0    0 -0.27542047923E-01  0.17093613071E-01  0.56122699873E+00  0.56216257554E+00  0.51109989000E-03 0. -1.
     -623    1    1    2    0    0 -0.16656243958E-02 -0.24374167240E-02  0.22244409985E-02  0.17124000004E+03  0.17124000000E+03 0. -1.
     -611    1    1    2    0    0  0.65743405306E-01  0.18933213773E-02  0.21657421412E+01  0.21667406543E+01  0.51109989000E-03 0.  1.
      611    1    1    2    0    0 -0.36535732987E-01 -0.16549517724E-01  0.27708063954E+01  0.27710967302E+01  0.51109989000E-03 0. -1.
</event>
<event>
 6   3  0.2312675E+03  0.9118800E+02  0.7818608E-02  0.1180000E+00
       11   -1    0    0    0    0  0.00000000000E+00  0.00000000000E+00  0.54999999763E+01  0.55000000000E+01  0.51109989000E-03 0.  1.
     -623   -1    0    0    0    0  0.00000000000E+00  0.00000000000E+00  0.93234578044E-11  0.17124000000E+03  0.17124000000E+03 0.  1.
       11    1    1    2    0    0  0.22818661127E-01 -0.99453727552E-01  0.45177626072E+00  0.46315633019E+00  0.51109989000E-03 0.  1.
     -623    1    1    2    0    0 -0.17413548512E-01 -0.40630680276E-02  0.13058074192E-01  0.17124000143E+03  0.17124000000E+03 0.  1.
     -611    1    1    2    0    0  0.32350723516E-01  0.19372553063E-01  0.14335910929E+01  0.14340870085E+01  0.51109989000E-03 0. -1.
      611    1    1    2    0    0 -0.37755836131E-01  0.84144242517E-01  0.36015745484E+01  0.36027552298E+01  0.51109989000E-03 0.  1.
</event>
<event>
 6   3  0.2312675E+03  0.9118800E+02  0.7818608E-02  0.1180000E+00
       11   -1    0    0    0    0  0.00000000000E+00  0.00000000000E+00  0.54999999763E+01  0.55000000000E+01  0.51109989000E-03 0. -1.
     -623   -1    0    0    0    0  0.00000000000E+00  0.00000000000E+00  0.93234578044E-11  0.17124000000E+03  0.17124000000E+03 0. -1.
       11    1    1    2    0    0  0.17411675292E-01  0.56923944636E-02  0.30958164717E+00  0.31012356776E+00  0.51109989000E-03 0. -1.
     -623    1    1    2    0    0 -0.21464933285E-01  0.82108891183E-02  0.12600094239E-02  0.17124000155E+03  0.17124000000E+03 0. -1.
     -611    1    1    2    0    0  0.33709113187E-01  0.20282953292E-01  0.29218194419E+01  0.29220843271E+01  0.51109989000E-03 0. -1.
      611    1    1    2    0    0 -0.29655855194E-01 -0.34186236874E-01  0.22673388778E+01  0.22677905584E+01  0.51109989000E-03 0.  1.
</event>
<event>
 6   3  0.2312675E+03  0.9118800E+02  0.7818608E-02  0.1180000E+00
       11   -1    0    0    0    0  0.00000000000E+00  0.00000000000E+00  0.54999999763E+01  0.55000000000E+01  0.51109989000E-03 0. -1.
     -623   -1    0    0    0    0  0.00000000000E+00  0.00000000000E+00  0.93234578044E-11  0.17124000000E+03  0.17124000000E+03 0. -1.
       11    1    1    2    0    0  0.25294719259E-03  0.54929746471E-02  0.12051150726E+00  0.12063797644E+00  0.51109989000E-03 0. -1.
     -623    1    1    2    0    0 -0.28209504323E-02 -0.17786687008E-02  0.65172807958E-03  0.17124000003E+03  0.17124000000E+03 0. -1.
     -611    1    1    2    0    0  0.38140662869E-01 -0.76803347117E-02  0.25016465419E+01  0.25019491161E+01  0.51109989000E-03 0.  1.
      611    1    1    2    0    0 -0.35572659630E-01  0.39660287653E-02  0.28771901989E+01  0.28774128737E+01  0.51109989000E-03 0. -1.
</event>
<event>
 6   3  0.2312675E+03  0.9118800E+02  0.7818608E-02  0.1180000E+00
       11   -1    0    0    0    0  0.00000000000E+00  0.00000000000E+00  0.54999999763E+01  0.55000000000E+01  0.51109989000E-03 0. -1.
     -623   -1    0    0    0    0  0.00000000000E+00  0.00000000000E+00  0.93234578044E-11  0.17124000000E+03  0.17124000000E+03 0. -1.
       11    1    1    2    0    0  0.58469962869E-02 -0.50075122806E-02  0.33624287506E+00  0.33633137647E+00  0.51109989000E-03 0. -1.
     -623    1    1    2    0    0 -0.69794664073E-01  0.46613012191E-01  0.67279201157E-03  0.17124002057E+03  0.17124000000E+03 0. -1.
     -611    1    1    2    0    0  0.19977732385E-01 -0.12900984145E-01  0.16010060588E+01  0.16011827525E+01  0.51109989000E-03 0. -1.
      611    1    1    2    0    0  0.43969935362E-01 -0.28704515738E-01  0.35620782474E+01  0.35624652990E+01  0.51109989000E-03 0. -1.
</event>
<event>
 6   3  0.2312675E+03  0.9118800E+02  0.7818608E-02  0.1180000E+00
       11   -1    0    0    0    0  0.00000000000E+00  0.00000000000E+00  0.54999999763E+01  0.55000000000E+01  0.51109989000E-03 0. -1.
     -623   -1    0    0    0    0  0.00000000000E+00  0.00000000000E+00  0.93234578044E-11  0.17124000000E+03  0.17124000000E+03 0.  1.
       11    1    1    2    0    0 -0.52356370386E-01 -0.17820312464E-01  0.10176339745E+01  0.10191358694E+01  0.51109989000E-03 0. -1.
     -623    1    1    2    0    0 -0.10081128544E-03  0.42890399107E-02  0.28645448459E-02  0.17124000008E+03  0.17124000000E+03 0.  1.
     -611    1    1    2    0    0  0.78142535856E-01  0.21661263200E-01  0.37225638230E+01  0.37234469439E+01  0.51109989000E-03 0. -1.
      611    1    1    2    0    0 -0.25685354184E-01 -0.81299906474E-02  0.75693763384E+00  0.75741710894E+00  0.51109989000E-03 0.  1.
</event>
<event>
 6   3  0.2312675E+03  0.9118800E+02  0.7818608E-02  0.1180000E+00
       11   -1    0    0    0    0  0.00000000000E+00  0.00000000000E+00  0.54999999763E+01  0.55000000000E+01  0.51109989000E-03 0. -1.
     -623   -1    0    0    0    0  0.00000000000E+00  0.00000000000E+00  0.93234578044E-11  0.17124000000E+03  0.17124000000E+03 0. -1.
       11    1    1    2    0    0 -0.45187348893E-02 -0.47778469283E-02  0.34799507929E-01  0.35419115764E-01  0.51109989000E-03 0. -1.
     -623    1    1    2    0    0 -0.19845006337E-02  0.66510751846E-02  0.14182186953E-02  0.17124000015E+03  0.17124000000E+03 0. -1.
     -611    1    1    2    0    0  0.48746912993E-01 -0.29724437424E-02  0.35222537439E+01  0.35225923402E+01  0.51109989000E-03 0. -1.
      611    1    1    2    0    0 -0.42243677470E-01  0.10992154860E-02  0.19415285058E+01  0.19419883976E+01  0.51109989000E-03 0.  1.
</event>
<event>
 6   3  0.2312675E+03  0.9118800E+02  0.7818608E-02  0.1180000E+00
       11   -1    0    0    0    0  0.00000000000E+00  0.00000000000E+00  0.54999999763E+01  0.55000000000E+01  0.51109989000E-03 0.  1.
     -623   -1    0    0    0    0  0.00000000000E+00  0.00000000000E+00  0.93234578044E-11  0.17124000000E+03  0.17124000000E+03 0.  1.
       11    1    1    2    0    0  0.12391819798E-02  0.71767767058E-02  0.13316461432E-01  0.15186542201E-01  0.51109989000E-03 0.  1.
     -623    1    1    2    0    0  0.15649832860E-02 -0.17420119157E-01  0.42800488971E-02  0.17124000095E+03  0.17124000000E+03 0.  1.
     -611    1    1    2    0    0  0.53856228287E-01 -0.15632626691E-01  0.78690970233E+00  0.78890557939E+00  0.51109989000E-03 0. -1.
      611    1    1    2    0    0 -0.56660393553E-01  0.25875969142E-01  0.46954937636E+01  0.46959069317E+01  0.51109989000E-03 0.  1.
</event>
<event>
 6   3  0.2312675E+03  0.9118800E+02  0.7818608E-02  0.1180000E+00
       11   -1    0    0    0    0  0.00000000000E+00  0.00000000000E+00  0.54999999763E+01  0.55000000000E+01  0.51109989000E-03 0. -1.
     -623   -1    0    0    0    0  0.00000000000E+00  0.00000000000E+00  0.93234578044E-11  0.17124000000E+03  0.17124000000E+03 0. -1.
       11    1    1    2    0    0  0.34373257990E-01  0.21982013578E-01  0.10017923381E+01  0.10026229998E+01  0.51109989000E-03 0. -1.
     -623    1    1    2    0    0  0.25193618015E-01 -0.11561916777E-01  0.12419488271E-02  0.17124000225E+03  0.17124000000E+03 0. -1.
     -611    1    1    2    0    0 -0.13485122427E-01 -0.33107235965E-02  0.91281304053E+00  0.91291879026E+00  0.51109989000E-03 0.  1.
      611    1    1    2    0    0 -0.46081753582E-01 -0.71093732043E-02  0.35841526492E+01  0.35844559622E+01  0.51109989000E-03 0. -1.
</event>
<event>
 6   3  0.2312675E+03  0.9118800E+02  0.7818608E-02  0.1180000E+00
       11   -1    0    0    0    0  0.00000000000E+00  0.00000000000E+00  0.54999999763E+01  0.55000000000E+01  0.51109989000E-03 0.  1.
     -623   -1    0    0    0    0  0.00000000000E+00  0.00000000000E+00  0.93234578044E-11  0.17124000000E+03  0.17124000000E+03 0. -1.
       11    1    1    2    0    0  0.61927946214E-01 -0.17078716565E-01  0.49436369374E+00  0.49852028644E+00  0.51109989000E-03 0.  1.
     -623    1    1    2    0    0  0.22088628184E-01 -0.53733512557E-01  0.54931894929E-02  0.17124000994E+03  0.17124000000E+03 0. -1.
     -611    1    1    2    0    0 -0.25301008139E-01  0.28660702832E-01  0.11173671210E+01  0.11180210737E+01  0.51109989000E-03 0. -1.
      611    1    1    2    0    0 -0.58715566259E-01  0.42151526289E-01  0.38827759720E+01  0.38834486966E+01  0.51109989000E-03 0.  1.
</event>
<event>
 6   3  0.2312675E+03  0.9118800E+02  0.7818608E-02  0.1180000E+00
       11   -1    0    0    0    0  0.00000000000E+00  0.00000000000E+00  0.54999999763E+01  0.55000000000E+01  0.51109989000E-03 0.  1.
     -623   -1    0    0    0    0  0.00000000000E+00  0.00000000000E+00  0.93234578044E-11  0.17124000000E+03  0.17124000000E+03 0. -1.
       11    1    1    2    0    0  0.30207535636E-02 -0.26190264161E-02  0.27481811042E-01  0.27775806247E-01  0.51109989000E-03 0.  1.
     -623    1    1    2    0    0 -0.31234338211E-02  0.12729910832E-02  0.94894190264E-03  0.17124000004E+03  0.17124000000E+03 0. -1.
     -611    1    1    2    0    0  0.39324743861E-01  0.12110174358E-01  0.20484951964E+01  0.20489084710E+01  0.51109989000E-03 0.  1.
      611    1    1    2    0    0 -0.39222063603E-01 -0.10764139026E-01  0.34230740272E+01  0.34233156871E+01  0.51109989000E-03 0. -1.
</event>
<event>
 6   3  0.2312675E+03  0.9118800E+02  0.7818608E-02  0.1180000E+00
       11   -1    0    0    0    0  0.00000000000E+00  0.00000000000E+00  0.54999999763E+01  0.55000000000E+01  0.51109989000E-03 0. -1.
     -623   -1    0    0    0    0  0.00000000000E+00  0.00000000000E+00  0.93234578044E-11  0.17124000000E+03  0.17124000000E+03 0. -1.
       11    1    1    2    0    0 -0.20017162490E-01  0.13701497210E-01  0.56297779224E+00  0.56350037586E+00  0.51109989000E-03 0. -1.
     -623    1    1    2    0    0 -0.40143838657E-01 -0.27419990732E-01  0.97894332724E-03  0.17124000690E+03  0.17124000000E+03 0. -1.
     -611    1    1    2    0    0  0.60388080395E-02  0.95790154637E-02  0.57548100429E+00  0.57559262701E+00  0.51109989000E-03 0.  1.
      611    1    1    2    0    0  0.54122193109E-01  0.41394780580E-02  0.43605622365E+01  0.43609000936E+01  0.51109989000E-03 0. -1.
</event>
<event>
 6   3  0.2312675E+03  0.9118800E+02  0.7818608E-02  0.1180000E+00
       11   -1    0    0    0    0  0.00000000000E+00  0.00000000000E+00  0.54999999763E+01  0.55000000000E+01  0.51109989000E-03 0.  1.
     -623   -1    0    0    0    0  0.00000000000E+00  0.00000000000E+00  0.93234578044E-11  0.17124000000E+03  0.17124000000E+03 0. -1.
       11    1    1    2    0    0  0.48615220880E-01  0.41687585911E-01  0.94363184603E+00  0.94580263089E+00  0.51109989000E-03 0.  1.
     -623    1    1    2    0    0  0.14449083279E-01  0.21020931429E-01  0.30413225334E-02  0.17124000193E+03  0.17124000000E+03 0. -1.
     -611    1    1    2    0    0 -0.39609379662E-01 -0.38928532012E-01  0.28361341809E+01  0.28366779314E+01  0.51109989000E-03 0.  1.
      611    1    1    2    0    0 -0.23454924465E-01 -0.23779985296E-01  0.17171926245E+01  0.17175175085E+01  0.51109989000E-03 0.  1.
</event>
<event>
 6   3  0.2312675E+03  0.9118800E+02  0.7818608E-02  0.1180000E+00
       11   -1    0    0    0    0  0.00000000000E+00  0.00000000000E+00  0.54999999763E+01  0.55000000000E+01  0.51109989000E-03 0.  1.
     -623   -1    0    0    0    0  0.00000000000E+00  0.00000000000E+00  0.93234578044E-11  0.17124000000E+03  0.17124000000E+03 0.  1.
       11    1    1    2    0    0  0.56687257745E-02  0.13493643199E-03  0.59555090427E-02  0.82390515718E-02  0.51109989000E-03 0.  1.
     -623    1    1    2    0    0 -0.17769717976E-01  0.89832288944E-02  0.28879142069E-02  0.17124000118E+03  0.17124000000E+03 0.  1.
     -611    1    1    2    0    0  0.40238233487E-01 -0.24534222176E-01  0.38592456884E+01  0.38595334677E+01  0.51109989000E-03 0.  1.
      611    1    1    2    0    0 -0.28137241286E-01  0.15416056849E-01  0.16319108647E+01  0.16322262988E+01  0.51109989000E-03 0. -1.
</event>
<event>
 6   3  0.2312675E+03  0.9118800E+02  0.7818608E-02  0.1180000E+00
       11   -1    0    0    0    0  0.00000000000E+00  0.00000000000E+00  0.54999999763E+01  0.55000000000E+01  0.51109989000E-03 0. -1.
     -623   -1    0    0    0    0  0.00000000000E+00  0.00000000000E+00  0.93234578044E-11  0.17124000000E+03  0.17124000000E+03 0. -1.
       11    1    1    2    0    0  0.72197943884E-01  0.89813618870E-01  0.50528784017E+00  0.51826160564E+00  0.51109989000E-03 0. -1.
     -623    1    1    2    0    0 -0.15811611658E-01 -0.12143729721E-01  0.13900356294E-01  0.17124000172E+03  0.17124000000E+03 0. -1.
     -611    1    1    2    0    0 -0.13106502643E-01 -0.17738892238E-01  0.11611945054E+01  0.11614040595E+01  0.51109989000E-03 0. -1.
      611    1    1    2    0    0 -0.43279829661E-01 -0.59930997020E-01  0.38196172813E+01  0.38203326170E+01  0.51109989000E-03 0. -1.
</event>
<event>
 6   3  0.2312675E+03  0.9118800E+02  0.7818608E-02  0.1180000E+00
       11   -1    0    0    0    0  0.00000000000E+00  0.00000000000E+00  0.54999999763E+01  0.55000000000E+01  0.51109989000E-03 0.  1.
     -623   -1    0    0    0    0  0.00000000000E+00  0.00000000000E+00  0.93234578044E-11  0.17124000000E+03  0.17124000000E+03 0.  1.
       11    1    1    2    0    0  0.50499633810E-01 -0.18032119440E-01  0.80265590294E+00  0.80444523126E+00  0.51109989000E-03 0.  1.
     -623    1    1    2    0    0  0.16589072543E-01 -0.14082663336E-01  0.23960429846E-02  0.17124000140E+03  0.17124000000E+03 0.  1.
     -611    1    1    2    0    0 -0.40706810909E-01  0.14593017265E-01  0.29652745833E+01  0.29655899272E+01  0.51109989000E-03 0. -1.
      611    1    1    2    0    0 -0.26381895444E-01  0.17521765511E-01  0.17296734470E+01  0.17299634421E+01  0.51109989000E-03 0.  1.
</event>
<event>
 6   3  0.2312675E+03  0.9118800E+02  0.7818608E-02  0.1180000E+00
       11   -1    0    0    0    0  0.00000000000E+00  0.00000000000E+00  0.54999999763E+01  0.55000000000E+01  0.51109989000E-03 0. -1.
     -623   -1    0    0    0    0  0.00000000000E+00  0.00000000000E+00  0.93234578044E-11  0.17124000000E+03  0.17124000000E+03 0. -1.
       11    1    1    2    0    0 -0.60228544173E-01  0.21116121325E-02  0.10809843431E+01  0.10826630813E+01  0.51109989000E-03 0. -1.
     -623    1    1    2    0    0 -0.83954365026E-02  0.29167599745E-01  0.23281265969E-02  0.17124000271E+03  0.17124000000E+03 0. -1.
     -611    1    1    2    0    0  0.59168625027E-01 -0.26265919587E-01  0.38751037950E+01  0.38756445281E+01  0.51109989000E-03 0. -1.
      611    1    1    2    0    0  0.94553556510E-02 -0.50132922910E-02  0.54158371170E+00  0.54168968502E+00  0.51109989000E-03 0.  1.
</event>
<event>
 6   3  0.2312675E+03  0.9118800E+02  0.7818608E-02  0.1180000E+00
       11   -1    0    0    0    0  0.00000000000E+00  0.00000000000E+00  0.54999999763E+01  0.55000000000E+01  0.51109989000E-03 0.  1.
     -623   -1    0    0    0    0  0.00000000000E+00  0.00000000000E+00  0.93234578044E-11  0.17124000000E+03  0.17124000000E+03 0. -1.
       11    1    1    2    0    0  0.10056521321E-01 -0.79564999712E-02  0.11162559148E+00  0.11236090695E+00  0.51109989000E-03 0.  1.
     -623    1    1    2    0    0  0.14218720350E-01  0.74419823879E-02  0.12670468796E-02  0.17124000076E+03  0.17124000000E+03 0. -1.
     -611    1    1    2    0    0 -0.40868298555E-01 -0.22188262645E-01  0.37647667445E+01  0.37650539755E+01  0.51109989000E-03 0.  1.
      611    1    1    2    0    0  0.16593056884E-01  0.22702780228E-01  0.16223405933E+01  0.16225843607E+01  0.51109989000E-03 0. -1.
</event>
<event>
 6   3  0.2312675E+03  0.9118800E+02  0.7818608E-02  0.1180000E+00
       11   -1    0    0    0    0  0.00000000000E+00  0.00000000000E+00  0.54999999763E+01  0.55000000000E+01  0.51109989000E-03 0. -1.
     -623   -1    0    0    0    0  0.00000000000E+00  0.00000000000E+00  0.93234578044E-11  0.17124000000E+03  0.17124000000E+03 0. -1.
       11    1    1    2    0    0 -0.17591403404E-01  0.15232544754E-01  0.94900561987E-01  0.97713181209E-01  0.51109989000E-03 0. -1.
     -623    1    1    2    0    0 -0.12031858404E-01 -0.16838756065E-01  0.34594315959E-02  0.17124000129E+03  0.17124000000E+03 0. -1.
     -611    1    1    2    0    0  0.51011332537E-01 -0.47249547069E-03  0.47833174968E+01  0.47835895430E+01  0.51109989000E-03 0. -1.
      611    1    1    2    0    0 -0.21388070729E-01  0.20787067816E-02  0.61832248592E+00  0.61869599030E+00  0.51109989000E-03 0.  1.
</event>
<event>
 6   3  0.2312675E+03  0.9118800E+02  0.7818608E-02  0.1180000E+00
       11   -1    0    0    0    0  0.00000000000E+00  0.00000000000E+00  0.54999999763E+01  0.55000000000E+01  0.51109989000E-03 0.  1.
     -623   -1    0    0    0    0  0.00000000000E+00  0.00000000000E+00  0.93234578044E-11  0.17124000000E+03  0.17124000000E+03 0.  1.
       11    1    1    2    0    0  0.28911486865E-03  0.74645917198E-02  0.35524616416E-02  0.82876368020E-02  0.51109989000E-03 0.  1.
     -623    1    1    2    0    0 -0.59766870869E-02 -0.31602538220E-02  0.59385956885E-02  0.17124000024E+03  0.17124000000E+03 0.  1.
     -611    1    1    2    0    0 -0.44542189815E-01  0.20601125365E-01  0.14849087869E+01  0.14857196168E+01  0.51109989000E-03 0. -1.
      611    1    1    2    0    0  0.50229762033E-01 -0.24905463263E-01  0.40056001320E+01  0.40059925100E+01  0.51109989000E-03 0.  1.
</event>
<event>
 6   3  0.2312675E+03  0.9118800E+02  0.7818608E-02  0.1180000E+00
       11   -1    0    0    0    0  0.00000000000E+00  0.00000000000E+00  0.54999999763E+01  0.55000000000E+01  0.51109989000E-03 0.  1.
     -623   -1    0    0    0    0  0.00000000000E+00  0.00000000000E+00  0.93234578044E-11  0.17124000000E+03  0.17124000000E+03 0.  1.
       11    1    1    2    0    0  0.33560418329E-01 -0.13688568262E-02  0.94185452154E+00  0.94245338156E+00  0.51109989000E-03 0.  1.
     -623    1    1    2    0    0  0.12872930051E-01 -0.47455687678E-02  0.84125615974E-03  0.17124000055E+03  0.17124000000E+03 0.  1.
     -611    1    1    2    0    0 -0.10363608159E-01  0.98534173737E-04  0.10347588941E+01  0.10348109219E+01  0.51109989000E-03 0.  1.
      611    1    1    2    0    0 -0.36069740216E-01  0.60158914195E-02  0.35225453039E+01  0.35227351442E+01  0.51109989000E-03 0.  1.
</event>
<event>
 6   3  0.2312675E+03  0.9118800E+02  0.7818608E-02  0.1180000E+00
       11   -1    0    0    0    0  0.00000000000E+00  0.00000000000E+00  0.54999999763E+01  0.55000000000E+01  0.51109989000E-03 0. -1.
     -623   -1    0    0    0    0  0.00000000000E+00  0.00000000000E+00  0.93234578044E-11  0.17124000000E+03  0.17124000000E+03 0.  1.
       11    1    1    2    0    0  0.40729281495E-02 -0.30330889342E-01  0.37876712454E+00  0.38000177295E+00  0.51109989000E-03 0. -1.
     -623    1    1    2    0    0 -0.20330131486E-01 -0.16223325084E-01  0.36817232313E-02  0.17124000201E+03  0.17124000000E+03 0.  1.
     -611    1    1    2    0    0 -0.35823914800E-01  0.85738822023E-01  0.31023460459E+01  0.31037373839E+01  0.51109989000E-03 0. -1.
      611    1    1    2    0    0  0.52081118136E-01 -0.39184607596E-01  0.20152050826E+01  0.20162588283E+01  0.51109989000E-03 0.  1.
</event>
<event>
 6   3  0.2312675E+03  0.9118800E+02  0.7818608E-02  0.1180000E+00
       11   -1    0    0    0    0  0.00000000000E+00  0.00000000000E+00  0.54999999763E+01  0.55000000000E+01  0.51109989000E-03 0.  1.
     -623   -1    0    0    0    0  0.00000000000E+00  0.00000000000E+00  0.93234578044E-11  0.17124000000E+03  0.17124000000E+03 0. -1.
       11    1    1    2    0    0  0.56621276182E-01  0.77008180805E-01  0.97237635125E+00  0.97706307807E+00  0.51109989000E-03 0.  1.
     -623    1    1    2    0    0  0.46014434441E-02  0.16131456474E-01  0.60615248999E-02  0.17124000093E+03  0.17124000000E+03 0. -1.
     -611    1    1    2    0    0 -0.21228025278E-01 -0.32376886053E-01  0.15448338183E+01  0.15453189571E+01  0.51109989000E-03 0.  1.
      611    1    1    2    0    0 -0.39994694358E-01 -0.60762751241E-01  0.29767282826E+01  0.29776170366E+01  0.51109989000E-03 0.  1.
</event>
<event>
 6   3  0.2312675E+03  0.9118800E+02  0.7818608E-02  0.1180000E+00
       11   -1    0    0    0    0  0.00000000000E+00  0.00000000000E+00  0.54999999763E+01  0.55000000000E+01  0.51109989000E-03 0. -1.
     -623   -1    0    0    0    0  0.00000000000E+00  0.00000000000E+00  0.93234578044E-11  0.17124000000E+03  0.17124000000E+03 0.  1.
       11    1    1    2    0    0  0.15841612934E-01 -0.27039764345E-02  0.14337205823E+00  0.14427084422E+00  0.51109989000E-03 0. -1.
     -623    1    1    2    0    0 -0.15667609863E-01  0.19159899367E-01  0.27390821113E-02  0.17124000181E+03  0.17124000000E+03 0.  1.
     -611    1    1    2    0    0 -0.62142462352E-01 -0.37800287726E-01  0.23579759532E+01  0.23590975827E+01  0.51109989000E-03 0.  1.
      611    1    1    2    0    0  0.61968459281E-01  0.21344364794E-01  0.29959128826E+01  0.29966297625E+01  0.51109989000E-03 0. -1.
</event>
<event>
 6   3  0.2312675E+03  0.9118800E+02  0.7818608E-02  0.1180000E+00
       11   -1    0    0    0    0  0.00000000000E+00  0.00000000000E+00  0.54999999763E+01  0.55000000000E+01  0.51109989000E-03 0.  1.
     -623   -1    0    0    0    0  0.00000000000E+00  0.00000000000E+00  0.93234578044E-11  0.17124000000E+03  0.17124000000E+03 0. -1.
       11    1    1    2    0    0  0.34410269848E-03 -0.75498560227E-02  0.34999289305E+00  0.35007485649E+00  0.51109989000E-03 0.  1.
     -623    1    1    2    0    0 -0.54607871023E-03 -0.22538404347E-03  0.77097754860E-03  0.17124000000E+03  0.17124000000E+03 0. -1.
     -611    1    1    2    0    0 -0.37524393733E-01  0.22458120617E-01  0.27298970177E+01  0.27302473214E+01  0.51109989000E-03 0.  1.
      611    1    1    2    0    0  0.37726369745E-01 -0.14682880551E-01  0.24193390878E+01  0.24196778193E+01  0.51109989000E-03 0. -1.
</event>
<event>
 6   3  0.2312675E+03  0.9118800E+02  0.7818608E-02  0.1180000E+00
       11   -1    0    0    0    0  0.00000000000E+00  0.00000000000E+00  0.54999999763E+01  0.55000000000E+01  0.51109989000E-03 0. -1.
     -623   -1    0    0    0    0  0.00000000000E+00  0.00000000000E+00  0.93234578044E-11  0.17124000000E+03  0.17124000000E+03 0.  1.
       11    1    1    2    0    0  0.78287865252E-01  0.12033003493E-01  0.84479131164E+00  0.84849655536E+00  0.51109989000E-03 0. -1.
     -623    1    1    2    0    0  0.51220326849E-02 -0.87314385166E-03  0.44677179266E-02  0.17124000014E+03  0.17124000000E+03 0.  1.
     -611    1    1    2    0    0 -0.46618359091E-01 -0.72310502750E-02  0.25454433009E+01  0.25458804801E+01  0.51109989000E-03 0. -1.
      611    1    1    2    0    0 -0.36791538848E-01 -0.39288093667E-02  0.21052976459E+01  0.21056228275E+01  0.51109989000E-03 0. -1.
</event>
<event>
 6   3  0.2312675E+03  0.9118800E+02  0.7818608E-02  0.1180000E+00
       11   -1    0    0    0    0  0.00000000000E+00  0.00000000000E+00  0.54999999763E+01  0.55000000000E+01  0.51109989000E-03 0.  1.
     -623   -1    0    0    0    0  0.00000000000E+00  0.00000000000E+00  0.93234578044E-11  0.17124000000E+03  0.17124000000E+03 0.  1.
       11    1    1    2    0    0  0.44289968563E-01  0.73375822287E-02  0.25232475036E+00  0.25628788948E+00  0.51109989000E-03 0.  1.
     -623    1    1    2    0    0  0.50393403031E-01  0.39342767084E-01  0.51997298102E-02  0.17124001201E+03  0.17124000000E+03 0.  1.
     -611    1    1    2    0    0 -0.70290251839E-01 -0.53091845813E-01  0.40576861435E+01  0.40586422069E+01  0.51109989000E-03 0.  1.
      611    1    1    2    0    0 -0.24393119755E-01  0.64114965002E-02  0.11847893526E+01  0.11850578901E+01  0.51109989000E-03 0. -1.
</event>
<event>
 6   3  0.2312675E+03  0.9118800E+02  0.7818608E-02  0.1180000E+00
       11   -1    0    0    0    0  0.00000000000E+00  0.00000000000E+00  0.54999999763E+01  0.55000000000E+01  0.51109989000E-03 0.  1.
     -623   -1    0    0    0    0  0.00000000000E+00  0.00000000000E+00  0.93234578044E-11  0.17124000000E+03  0.17124000000E+03 0. -1.
       11    1    1    2    0    0  0.16201670860E-02 -0.85384434475E-02  0.16155829530E+00  0.16179268822E+00  0.51109989000E-03 0.  1.
     -623    1    1    2    0    0 -0.48814021009E-02  0.93125150250E-02  0.12189361794E-02  0.17124000033E+03  0.17124000000E+03 0. -1.
     -611    1    1    2    0    0  0.43688009037E-01  0.27883297725E-01  0.31201889845E+01  0.31206194386E+01  0.51109989000E-03 0.  1.
      611    1    1    2    0    0 -0.40426774022E-01 -0.28657369303E-01  0.22170337603E+01  0.22175875461E+01  0.51109989000E-03 0. -1.
</event>
<event>
 6   3  0.2312675E+03  0.9118800E+02  0.7818608E-02  0.1180000E+00
       11   -1    0    0    0    0  0.00000000000E+00  0.00000000000E+00  0.54999999763E+01  0.55000000000E+01  0.51109989000E-03 0. -1.
     -623   -1    0    0    0    0  0.00000000000E+00  0.00000000000E+00  0.93234578044E-11  0.17124000000E+03  0.17124000000E+03 0.  1.
       11    1    1    2    0    0  0.69114811873E-01 -0.11590301286E+00  0.98642463426E+00  0.99561246773E+00  0.51109989000E-03 0. -1.
     -623    1    1    2    0    0  0.14466618786E-01 -0.16326847583E-01  0.11913395160E-01  0.17124000180E+03  0.17124000000E+03 0.  1.
     -611    1    1    2    0    0 -0.53404335843E-01  0.84011343979E-01  0.29690659872E+01  0.29707344255E+01  0.51109989000E-03 0. -1.
      611    1    1    2    0    0 -0.30177094814E-01  0.48218516466E-01  0.15325959595E+01  0.15336513028E+01  0.51109989000E-03 0.  1.
</event>
<event>
 6   3  0.2312675E+03  0.9118800E+02  0.7818608E-02  0.1180000E+00
       11   -1    0    0    0    0  0.00000000000E+00  0.00000000000E+00  0.54999999763E+01  0.55000000000E+01  0.51109989000E-03 0.  1.
     -623   -1    0    0    0    0  0.00000000000E+00  0.00000000000E+00  0.93234578044E-11  0.17124000000E+03  0.17124000000E+03 0. -1.
       11    1    1    2    0    0  0.46418967027E-01  0.21434099903E-02  0.95338467015E+00  0.95451658194E+00  0.51109989000E-03 0.  1.
     -623    1    1    2    0    0  0.58448304217E-02  0.86367613927E-02  0.14457360540E-02  0.17124000032E+03  0.17124000000E+03 0. -1.
     -611    1    1    2    0    0 -0.91825264064E-02 -0.16309829204E-02  0.80797210288E+00  0.80802608816E+00  0.51109989000E-03 0.  1.
      611    1    1    2    0    0 -0.43081271070E-01 -0.91491884685E-02  0.37371974697E+01  0.37374570088E+01  0.51109989000E-03 0.  1.
</event>
<event>
 6   3  0.2312675E+03  0.9118800E+02  0.7818608E-02  0.1180000E+00
       11   -1    0    0    0    0  0.00000000000E+00  0.00000000000E+00  0.54999999763E+01  0.55000000000E+01  0.51109989000E-03 0. -1.
     -623   -1    0    0    0    0  0.00000000000E+00  0.00000000000E+00  0.93234578044E-11  0.17124000000E+03  0.17124000000E+03 0.  1.
       11    1    1    2    0    0 -0.35089857223E-02 -0.67344930767E-02  0.36656642638E+00  0.36664543165E+00  0.51109989000E-03 0. -1.
     -623    1    1    2    0    0  0.11759509152E-01  0.77511802222E-02  0.12470241130E-02  0.17124000058E+03  0.17124000000E+03 0.  1.
     -611    1    1    2    0    0  0.50013461227E-01 -0.70781602895E-02  0.21648419310E+01  0.21654312028E+01  0.51109989000E-03 0. -1.
      611    1    1    2    0    0 -0.58263984656E-01  0.60614731439E-02  0.29673445948E+01  0.29679227818E+01  0.51109989000E-03 0.  1.
</event>
<event>
 6   3  0.2312675E+03  0.9118800E+02  0.7818608E-02  0.1180000E+00
       11   -1    0    0    0    0  0.00000000000E+00  0.00000000000E+00  0.54999999763E+01  0.55000000000E+01  0.51109989000E-03 0. -1.
     -623   -1    0    0    0    0  0.00000000000E+00  0.00000000000E+00  0.93234578044E-11  0.17124000000E+03  0.17124000000E+03 0.  1.
       11    1    1    2    0    0 -0.11233540341E-02 -0.33725002975E-01  0.21691625690E+00  0.21952576496E+00  0.51109989000E-03 0. -1.
     -623    1    1    2    0    0  0.55218923019E-01 -0.16596488534E-01  0.31363826279E-02  0.17124000974E+03  0.17124000000E+03 0.  1.
     -611    1    1    2    0    0 -0.73132777064E-02  0.71432464106E-02  0.72172759637E+00  0.72180017635E+00  0.51109989000E-03 0. -1.
      611    1    1    2    0    0 -0.46782291219E-01  0.43178245042E-01  0.45582197345E+01  0.45586643168E+01  0.51109989000E-03 0. -1.
</event>
<event>
 6   3  0.2312675E+03  0.9118800E+02  0.7818608E-02  0.1180000E+00
       11   -1    0    0    0    0  0.00000000000E+00  0.00000000000E+00  0.54999999763E+01  0.55000000000E+01  0.51109989000E-03 0. -1.
     -623   -1    0    0    0    0  0.00000000000E+00  0.00000000000E+00  0.93234578044E-11  0.17124000000E+03  0.17124000000E+03 0. -1.
       11    1    1    2    0    0  0.52125335348E-01 -0.20084901301E-01  0.63202454874E+00  0.63448856986E+00  0.51109989000E-03 0. -1.
     -623    1    1    2    0    0  0.37206475140E-02  0.43593778178E-01  0.28521723590E-02  0.17124000561E+03  0.17124000000E+03 0. -1.
     -611    1    1    2    0    0 -0.34855786641E-01 -0.15088607050E-01  0.27698365255E+01  0.27700969714E+01  0.51109989000E-03 0. -1.
      611    1    1    2    0    0 -0.20990196222E-01 -0.84202698270E-02  0.20952867297E+01  0.20954088456E+01  0.51109989000E-03 0.  1.
</event>
<event>
 6   3  0.2312675E+03  0.9118800E+02  0.7818608E-02  0.1180000E+00
       11   -1    0    0    0    0  0.00000000000E+00  0.00000000000E+00  0.54999999763E+01  0.55000000000E+01  0.51109989000E-03 0. -1.
     -623   -1    0    0    0    0  0.00000000000E+00  0.00000000000E+00  0.93234578044E-11  0.17124000000E+03  0.17124000000E+03 0. -1.
       11    1    1    2    0    0  0.10774820867E-02  0.11414165261E-02  0.61291463158E+00  0.61291685458E+00  0.51109989000E-03 0. -1.
     -623    1    1    2    0    0  0.52132708035E-01  0.81393124434E-03  0.30090809036E-03  0.17124000794E+03  0.17124000000E+03 0. -1.
     -611    1    1    2    0    0 -0.22586669906E-01 -0.19703997620E-02  0.21085880694E+01  0.21087100199E+01  0.51109989000E-03 0.  1.
      611    1    1    2    0    0 -0.30623520211E-01  0.15051991482E-04  0.27781963666E+01  0.27783651871E+01  0.51109989000E-03 0. -1.
</event>
<event>
 6   3  0.2312675E+03  0.9118800E+02  0.7818608E-02  0.1180000E+00
       11   -1    0    0    0    0  0.00000000000E+00  0.00000000000E+00  0.54999999763E+01  0.55000000000E+01  0.51109989000E-03 0. -1.
     -623   -1    0    0    0    0  0.00000000000E+00  0.00000000000E+00  0.93234578044E-11  0.17124000000E+03  0.17124000000E+03 0.  1.
       11    1    1    2    0    0  0.31086590843E-01 -0.24054852306E-02  0.57608670137E+00  0.57693007480E+00  0.51109989000E-03 0. -1.
     -623    1    1    2    0    0  0.18645013096E-01  0.18101908782E-01  0.11216639995E-02  0.17124000198E+03  0.17124000000E+03 0.  1.
     -611    1    1    2    0    0 -0.18150946252E-01 -0.58250473460E-02  0.17932679993E+01  0.17933693893E+01  0.51109989000E-03 0. -1.
      611    1    1    2    0    0 -0.31580657770E-01 -0.98713762312E-02  0.31295236197E+01  0.31296985685E+01  0.51109989000E-03 0. -1.
</event>
<event>
 6   3  0.2312675E+03  0.9118800E+02  0.7818608E-02  0.1180000E+00
       11   -1    0    0    0    0  0.00000000000E+00  0.00000000000E+00  0.54999999763E+01  0.55000000000E+01  0.51109989000E-03 0. -1.
     -623   -1    0    0    0    0  0.00000000000E+00  0.00000000000E+00  0.93234578044E-11  0.17124000000E+03  0.17124000000E+03 0.  1.
       11    1    1    2    0    0 -0.82477483686E-02 -0.87603299641E-02  0.17964134686E-01  0.21627299700E-01  0.51109989000E-03 0. -1.
     -623    1    1    2    0    0  0.69752461113E-02  0.16949883154E-02  0.56960086288E-02  0.17124000025E+03  0.17124000000E+03 0.  1.
     -611    1    1    2    0    0  0.44320330497E-01 -0.44405294690E-01  0.13192088861E+01  0.13206999918E+01  0.51109989000E-03 0.  1.
      611    1    1    2    0    0 -0.43047828239E-01  0.51470636338E-01  0.41571309469E+01  0.41576724634E+01  0.51109989000E-03 0. -1.
</event>
<event>
 6   3  0.2312675E+03  0.9118800E+02  0.7818608E-02  0.1180000E+00
       11   -1    0    0    0    0  0.00000000000E+00  0.00000000000E+00  0.54999999763E+01  0.55000000000E+01  0.51109989000E-03 0.  1.
     -623   -1    0    0    0    0  0.00000000000E+00  0.00000000000E+00  0.93234578044E-11  0.17124000000E+03  0.17124000000E+03 0. -1.
       11    1    1    2    0    0 -0.16580232652E+00 -0.15417458961E-01  0.96516758314E+00  0.97942678863E+00  0.51109989000E-03 0.  1.
     -623    1    1    2    0    0  0.10756347351E-01  0.15111093080E-01  0.16920923262E-01  0.17124000184E+03  0.17124000000E+03 0. -1.
     -611    1    1    2    0    0  0.94885710522E-01 -0.46924060426E-04  0.27522218472E+01  0.27538570511E+01  0.51109989000E-03 0.  1.
      611    1    1    2    0    0  0.60160268647E-01  0.35328994117E-03  0.17656896227E+01  0.17667143198E+01  0.51109989000E-03 0. -1.
</event>
<event>
 6   3  0.2312675E+03  0.9118800E+02  0.7818608E-02  0.1180000E+00
       11   -1    0    0    0    0  0.00000000000E+00  0.00000000000E+00  0.54999999763E+01  0.55000000000E+01  0.51109989000E-03 0.  1.
     -623   -1    0    0    0    0  0.00000000000E+00  0.00000000000E+00  0.93234578044E-11  0.17124000000E+03  0.17124000000E+03 0. -1.
       11    1    1    2    0    0 -0.77700723540E-01 -0.41679635063E-01  0.63204180512E+00  0.63816275279E+00  0.51109989000E-03 0.  1.
     -623    1    1    2    0    0  0.36467235238E-02  0.24482797319E-01  0.67208361437E-02  0.17124000192E+03  0.17124000000E+03 0. -1.
     -611    1    1    2    0    0  0.26342352517E-01  0.62153909888E-02  0.15583063849E+01  0.15585414980E+01  0.51109989000E-03 0. -1.
      611    1    1    2    0    0  0.47711647501E-01  0.10981446756E-01  0.33029309503E+01  0.33032938285E+01  0.51109989000E-03 0.  1.
</event>
<event>
 6   3  0.2312675E+03  0.9118800E+02  0.7818608E-02  0.1180000E+00
       11   -1    0    0    0    0  0.00000000000E+00  0.00000000000E+00  0.54999999763E+01  0.55000000000E+01  0.51109989000E-03 0. -1.
     -623   -1    0    0    0    0  0.00000000000E+00  0.00000000000E+00  0.93234578044E-11  0.17124000000E+03  0.17124000000E+03 0. -1.
       11    1    1    2    0    0  0.82157518939E-02  0.11918926325E-01  0.10784935012E+01  0.10785907716E+01  0.51109989000E-03 0. -1.
     -623    1    1    2    0    0 -0.84680070003E-01 -0.57062642987E-01  0.10196290103E-02  0.17124003045E+03  0.17124000000E+03 0. -1.
     -611    1    1    2    0    0  0.29844993659E-01  0.17685379181E-01  0.17098829887E+01  0.17102349525E+01  0.51109989000E-03 0. -1.
      611    1    1    2    0    0  0.46619324367E-01  0.27458337430E-01  0.27106038524E+01  0.27111438228E+01  0.51109989000E-03 0. -1.
</event>
<event>
 6   3  0.2312675E+03  0.9118800E+02  0.7818608E-02  0.1180000E+00
       11   -1    0    0    0    0  0.00000000000E+00  0.00000000000E+00  0.54999999763E+01  0.55000000000E+01  0.51109989000E-03 0.  1.
     -623   -1    0    0    0    0  0.00000000000E+00  0.00000000000E+00  0.93234578044E-11  0.17124000000E+03  0.17124000000E+03 0.  1.
       11    1    1    2    0    0  0.75026636765E-02  0.21855168903E-01  0.18215656694E+00  0.18361703209E+00  0.51109989000E-03 0.  1.
     -623    1    1    2    0    0  0.59812846074E-02 -0.44589176487E-02  0.66053035637E-02  0.17124000029E+03  0.17124000000E+03 0.  1.
     -611    1    1    2    0    0  0.10651360638E+00  0.16943617042E-02  0.30763743048E+01  0.30782181767E+01  0.51109989000E-03 0.  1.
      611    1    1    2    0    0 -0.11999755467E+00 -0.19090612958E-01  0.22348638010E+01  0.22381645013E+01  0.51109989000E-03 0. -1.
</event>
<event>
 6   3  0.2312675E+03  0.9118800E+02  0.7818608E-02  0.1180000E+00
       11   -1    0    0    0    0  0.00000000000E+00  0.00000000000E+00  0.54999999763E+01  0.55000000000E+01  0.51109989000E-03 0.  1.
     -623   -1    0    0    0    0  0.00000000000E+00  0.00000000000E+00  0.93234578044E-11  0.17124000000E+03  0.17124000000E+03 0. -1.
       11    1    1    2    0    0  0.29238141154E-02  0.26366683953E-01  0.26945921058E+00  0.27076240157E+00  0.51109989000E-03 0.  1.
     -623    1    1    2    0    0  0.10948361574E-01 -0.34176301487E-01  0.31773844214E-02  0.17124000379E+03  0.17124000000E+03 0. -1.
     -611    1    1    2    0    0 -0.48521597893E-01  0.50681930607E-01  0.40203435777E+01  0.40209558251E+01  0.51109989000E-03 0.  1.
      611    1    1    2    0    0  0.34649422203E-01 -0.42872313073E-01  0.12070198036E+01  0.12082779834E+01  0.51109989000E-03 0. -1.
</event>
<event>
 6   3  0.2312675E+03  0.9118800E+02  0.7818608E-02  0.1180000E+00
       11   -1    0    0    0    0  0.00000000000E+00  0.00000000000E+00  0.54999999763E+01  0.55000000000E+01  0.51109989000E-03 0.  1.
     -623   -1    0    0    0    0  0.00000000000E+00  0.00000000000E+00  0.93234578044E-11  0.17124000000E+03  0.17124000000E+03 0.  1.
       11    1    1    2    0    0  0.20583877640E-02 -0.82108120879E-03  0.94207974455E-01  0.94235422260E-01  0.51109989000E-03 0.  1.
     -623    1    1    2    0    0 -0.83062204031E-02 -0.35484323168E-02  0.12422840050E-02  0.17124000024E+03  0.17124000000E+03 0.  1.
     -611    1    1    2    0    0 -0.41428955560E-01  0.28445321995E-01  0.14839327425E+01  0.14847835331E+01  0.51109989000E-03 0.  1.
      611    1    1    2    0    0  0.47676788200E-01 -0.24075808470E-01  0.39206169754E+01  0.39209808020E+01  0.51109989000E-03 0. -1.
</event>
<event>
 6   3  0.2312675E+03  0.9118800E+02  0.7818608E-02  0.1180000E+00
       11   -1    0    0    0    0  0.00000000000E+00  0.00000000000E+00  0.54999999763E+01  0.55000000000E+01  0.51109989000E-03 0. -1.
     -623   -1    0    0    0    0  0.00000000000E+00  0.00000000000E+00  0.93234578044E-11  0.17124000000E+03  0.17124000000E+03 0. -1.
       11    1    1    2    0    0 -0.60172050635E-02 -0.21320078620E-02  0.10869398049E+01  0.10869586712E+01  0.51109989000E-03 0. -1.
     -623    1    1    2    0    0  0.66989405026E-01  0.16782455298E-01  0.47946505389E-03  0.17124001393E+03  0.17124000000E+03 0. -1.
     -611    1    1    2    0    0 -0.10989453609E-01 -0.35217970222E-02  0.86424840288E+00  0.86432559505E+00  0.51109989000E-03 0.  1.
      611    1    1    2    0    0 -0.49982746340E-01 -0.11128650411E-01  0.35483323022E+01  0.35487018063E+01  0.51109989000E-03 0. -1.
</event>
<event>
 6   3  0.2312675E+03  0.9118800E+02  0.7818608E-02  0.1180000E+00
       11   -1    0    0    0    0  0.00000000000E+00  0.00000000000E+00  0.54999999763E+01  0.55000000000E+01  0.51109989000E-03 0. -1.
     -623   -1    0    0    0    0  0.00000000000E+00  0.00000000000E+00  0.93234578044E-11  0.17124000000E+03  0.17124000000E+03 0.  1.
       11    1    1    2    0    0  0.13934966752E-02  0.11426232863E-01  0.45562069795E+00  0.45576636806E+00  0.51109989000E-03 0. -1.
     -623    1    1    2    0    0  0.51518875724E-01 -0.22260299083E-02  0.43987963264E-03  0.17124000776E+03  0.17124000000E+03 0.  1.
     -611    1    1    2    0    0 -0.95117404548E-02 -0.21199178188E-02  0.86128567883E+00  0.86134095981E+00  0.51109989000E-03 0. -1.
      611    1    1    2    0    0 -0.43400631959E-01 -0.70802851373E-02  0.41826537212E+01  0.41828849085E+01  0.51109989000E-03 0. -1.
</event>
<event>
 6   3  0.2312675E+03  0.9118800E+02  0.7818608E-02  0.1180000E+00
       11   -1    0    0    0    0  0.00000000000E+00  0.00000000000E+00  0.54999999763E+01  0.55000000000E+01  0.51109989000E-03 0. -1.
     -623   -1    0    0    0    0  0.00000000000E+00  0.00000000000E+00  0.93234578044E-11  0.17124000000E+03  0.17124000000E+03 0. -1.
       11    1    1    2    0    0  0.11223383886E+00 -0.83733598076E-02  0.77810806419E+00  0.78620542387E+00  0.51109989000E-03 0. -1.
     -623    1    1    2    0    0  0.12929188120E-01  0.52732710110E-03  0.97670033845E-02  0.17124000077E+03  0.17124000000E+03 0. -1.
     -611    1    1    2    0    0 -0.11111899847E+00  0.68791543772E-02  0.41716672819E+01  0.41731526364E+01  0.51109989000E-03 0. -1.
      611    1    1    2    0    0 -0.14044028511E-01  0.96687832941E-03  0.54045762683E+00  0.54064117232E+00  0.51109989000E-03 0. -1.
</event>
<event>
 6   3  0.2312675E+03  0.9118800E+02  0.7818608E-02  0.1180000E+00
       11   -1    0    0    0    0  0.00000000000E+00  0.00000000000E+00  0.54999999763E+01  0.55000000000E+01  0.51109989000E-03 0. -1.
     -623   -1    0    0    0    0  0.00000000000E+00  0.00000000000E+00  0.93234578044E-11  0.17124000000E+03  0.17124000000E+03 0.  1.
       11    1    1    2    0    0 -0.12935113640E-01 -0.10102078734E-01  0.12496207009E+00  0.12603630169E+00  0.51109989000E-03 0. -1.
     -623    1    1    2    0    0 -0.44348353748E-02  0.88977334213E-02  0.18558007961E-02  0.17124000030E+03  0.17124000000E+03 0.  1.
     -611    1    1    2    0    0  0.52927747385E-01  0.12069863741E-01  0.30312255875E+01  0.30317117032E+01  0.51109989000E-03 0.  1.
      611    1    1    2    0    0 -0.35557798371E-01 -0.10865518429E-01  0.23419565178E+01  0.23422516964E+01  0.51109989000E-03 0. -1.
</event>
<event>
 6   3  0.2312675E+03  0.9118800E+02  0.7818608E-02  0.1180000E+00
       11   -1    0    0    0    0  0.00000000000E+00  0.00000000000E+00  0.54999999763E+01  0.55000000000E+01  0.51109989000E-03 0.  1.
     -623   -1    0    0    0    0  0.00000000000E+00  0.00000000000E+00  0.93234578044E-11  0.17124000000E+03  0.17124000000E+03 0.  1.
       11    1    1    2    0    0  0.13670902206E+00 -0.12039011473E-01  0.88201935348E+00  0.89263245272E+00  0.51109989000E-03 0.  1.
     -623    1    1    2    0    0 -0.34239648086E-02  0.57391883810E-02  0.12546461674E-01  0.17124000059E+03  0.17124000000E+03 0.  1.
     -611    1    1    2    0    0 -0.54963206757E-01  0.22041994137E-02  0.18918498051E+01  0.18926494020E+01  0.51109989000E-03 0.  1.
      611    1    1    2    0    0 -0.78321850531E-01  0.40956236806E-02  0.27135843574E+01  0.27147175567E+01  0.51109989000E-03 0.  1.
</event>
<event>
 6   3  0.2312675E+03  0.9118800E+02  0.7818608E-02  0.1180000E+00
       11   -1    0    0    0    0  0.00000000000E+00  0.00000000000E+00  0.54999999763E+01  0.55000000000E+01  0.51109989000E-03 0. -1.
     -623   -1    0    0    0    0  0.00000000000E+00  0.00000000000E+00  0.93234578044E-11  0.17124000000E+03  0.17124000000E+03 0.  1.
       11    1    1    2    0    0  0.17213994341E-01  0.99703331898E-02  0.10569954977E+01  0.10571827999E+01  0.51109989000E-03 0. -1.
     -623    1    1    2    0    0 -0.63222149573E-01 -0.30121438696E-01  0.48594626108E-03  0.17124001432E+03  0.17124000000E+03 0.  1.
     -611    1    1    2    0    0  0.10619806538E-01  0.40003861827E-02  0.98893844704E+00  0.98900368889E+00  0.51109989000E-03 0. -1.
      611    1    1    2    0    0  0.35388348689E-01  0.16150719320E-01  0.34535800850E+01  0.34537991902E+01  0.51109989000E-03 0. -1.
</event>
<event>
 6   3  0.2312675E+03  0.9118800E+02  0.7818608E-02  0.1180000E+00
       11   -1    0    0    0    0  0.00000000000E+00  0.00000000000E+00  0.54999999763E+01  0.55000000000E+01  0.51109989000E-03 0.  1.
     -623   -1    0    0    0    0  0.00000000000E+00  0.00000000000E+00  0.93234578044E-11  0.17124000000E+03  0.17124000000E+03 0. -1.
       11    1    1    2    0    0  0.18433660431E-01  0.23423831041E-03  0.98760641367E-02  0.20920147475E-01  0.51109989000E-03 0.  1.
     -623    1    1    2    0    0 -0.29616788396E-01 -0.28549488354E-02  0.15766402126E-01  0.17124000331E+03  0.17124000000E+03 0. -1.
     -611    1    1    2    0    0  0.10465798458E+00 -0.44329608896E-01  0.20756167036E+01  0.20787263816E+01  0.51109989000E-03 0. -1.
      611    1    1    2    0    0 -0.93474856612E-01  0.46950319421E-01  0.33987408064E+01  0.34003501601E+01  0.51109989000E-03 0.  1.
</event>
<event>
 6   3  0.2312675E+03  0.9118800E+02  0.7818608E-02  0.1180000E+00
       11   -1    0    0    0    0  0.00000000000E+00  0.00000000000E+00  0.54999999763E+01  0.55000000000E+01  0.51109989000E-03 0.  1.
     -623   -1    0    0    0    0  0.00000000000E+00  0.00000000000E+00  0.93234578044E-11  0.17124000000E+03  0.17124000000E+03 0.  1.
       11    1    1    2    0    0  0.16322622301E-01  0.15325656735E-01  0.31969145496E+00  0.32047494652E+00  0.51109989000E-03 0.  1.
     -623    1    1    2    0    0 -0.87271349424E-02 -0.25179576923E-01  0.14377034734E-02  0.17124000208E+03  0.17124000000E+03 0.  1.
     -611    1    1    2    0    0 -0.32115487913E-01  0.34690496868E-01  0.30169072453E+01  0.30172776510E+01  0.51109989000E-03 0.  1.
      611    1    1    2    0    0  0.24520000554E-01 -0.24836576680E-01  0.21619635724E+01  0.21622453228E+01  0.51109989000E-03 0. -1.
</event>
<event>
 6   3  0.2312675E+03  0.9118800E+02  0.7818608E-02  0.1180000E+00
       11   -1    0    0    0    0  0.00000000000E+00  0.00000000000E+00  0.54999999763E+01  0.55000000000E+01  0.51109989000E-03 0.  1.
     -623   -1    0    0    0    0  0.00000000000E+00  0.00000000000E+00  0.93234578044E-11  0.17124000000E+03  0.17124000000E+03 0.  1.
       11    1    1    2    0    0 -0.17099371761E-01  0.52793548308E-02  0.68174199283E+00  0.68197702756E+00  0.51109989000E-03 0.  1.
     -623    1    1    2    0    0  0.88705621081E-01 -0.15764146837E-01  0.80761568868E-03  0.17124002370E+03  0.17124000000E+03 0.  1.
     -611    1    1    2    0    0 -0.56451504394E-01  0.95978832761E-02  0.36273682134E+01  0.36278201869E+01  0.51109989000E-03 0.  1.
      611    1    1    2    0    0 -0.15154744904E-01  0.88690872564E-03  0.11900821529E+01  0.11901790810E+01  0.51109989000E-03 0. -1.
</event>
<event>
 6   3  0.2312675E+03  0.9118800E+02  0.7818608E-02  0.1180000E+00
       11   -1    0    0    0    0  0.00000000000E+00  0.00000000000E+00  0.54999999763E+01  0.55000000000E+01  0.51109989000E-03 0.  1.
     -623   -1    0    0    0    0  0.00000000000E+00  0.00000000000E+00  0.93234578044E-11  0.17124000000E+03  0.17124000000E+03 0. -1.
       11    1    1    2    0    0  0.24494272962E-01  0.61151844151E-03  0.23171424847E-01  0.33727133220E-01  0.51109989000E-03 0.  1.
     -623    1    1    2    0    0  0.50491855168E-02 -0.13143091371E-01  0.12541058097E-01  0.17124000104E+03  0.17124000000E+03 0. -1.
     -611    1    1    2    0    0  0.41302908964E-01  0.47927601670E-01  0.17578949128E+01  0.17590331921E+01  0.51109989000E-03 0. -1.
      611    1    1    2    0    0 -0.70846367442E-01 -0.35396028741E-01  0.37063925805E+01  0.37072386366E+01  0.51109989000E-03 0.  1.
</event>
<event>
 6   3  0.2312675E+03  0.9118800E+02  0.7818608E-02  0.1180000E+00
       11   -1    0    0    0    0  0.00000000000E+00  0.00000000000E+00  0.54999999763E+01  0.55000000000E+01  0.51109989000E-03 0. -1.
     -623   -1    0    0    0    0  0.00000000000E+00  0.00000000000E+00  0.93234578044E-11  0.17124000000E+03  0.17124000000E+03 0.  1.
       11    1    1    2    0    0  0.88032842110E-02  0.22543580566E-01  0.80226435568E+00  0.80262947146E+00  0.51109989000E-03 0. -1.
     -623    1    1    2    0    0  0.59142624823E-01 -0.79261835906E-01  0.12290926023E-02  0.17124002856E+03  0.17124000000E+03 0.  1.
     -611    1    1    2    0    0 -0.57751828452E-01  0.48242882399E-01  0.39235357558E+01  0.39242573485E+01  0.51109989000E-03 0. -1.
      611    1    1    2    0    0 -0.10194080568E-01  0.84753729272E-02  0.77297077119E+00  0.77308461734E+00  0.51109989000E-03 0.  1.
</event>
<event>
 6   3  0.2312675E+03  0.9118800E+02  0.7818608E-02  0.1180000E+00
       11   -1    0    0    0    0  0.00000000000E+00  0.00000000000E+00  0.54999999763E+01  0.55000000000E+01  0.51109989000E-03 0. -1.
     -623   -1    0    0    0    0  0.00000000000E+00  0.00000000000E+00  0.93234578044E-11  0.17124000000E+03  0.17124000000E+03 0. -1.
       11    1    1    2    0    0  0.11753352777E-02  0.18092644354E-02 -0.27075848626E-02  0.34995842179E-02  0.51109989000E-03 0. -1.
     -623    1    1    2    0    0 -0.93944852652E-02 -0.93147554823E-02  0.11648706304E-01  0.17124000091E+03  0.17124000000E+03 0. -1.
     -611    1    1    2    0    0 -0.96862437373E-01  0.71649892071E-01  0.29518753696E+01  0.29543331731E+01  0.51109989000E-03 0. -1.
      611    1    1    2    0    0  0.10508158736E+00 -0.64144401024E-01  0.25391834852E+01  0.25421663354E+01  0.51109989000E-03 0.  1.
</event>
<event>
 6   3  0.2312675E+03  0.9118800E+02  0.7818608E-02  0.1180000E+00
       11   -1    0    0    0    0  0.00000000000E+00  0.00000000000E+00  0.54999999763E+01  0.55000000000E+01  0.51109989000E-03 0.  1.
     -623   -1    0    0    0    0  0.00000000000E+00  0.00000000000E+00  0.93234578044E-11  0.17124000000E+03  0.17124000000E+03 0. -1.
       11    1    1    2    0    0 -0.33309632564E-02  0.41597058843E-02  0.42454172160E+00  0.42457547394E+00  0.51109989000E-03 0.  1.
     -623    1    1    2    0    0 -0.57435779619E-01  0.25704643654E-01  0.49906142618E-03  0.17124001156E+03  0.17124000000E+03 0. -1.
     -611    1    1    2    0    0  0.42461231553E-01 -0.18535200676E-01  0.34615528623E+01  0.34618629362E+01  0.51109989000E-03 0.  1.
      611    1    1    2    0    0  0.18305511314E-01 -0.11329148858E-01  0.16134063302E+01  0.16135500268E+01  0.51109989000E-03 0. -1.
</event>
<event>
 6   3  0.2312675E+03  0.9118800E+02  0.7818608E-02  0.1180000E+00
       11   -1    0    0    0    0  0.00000000000E+00  0.00000000000E+00  0.54999999763E+01  0.55000000000E+01  0.51109989000E-03 0.  1.
     -623   -1    0    0    0    0  0.00000000000E+00  0.00000000000E+00  0.93234578044E-11  0.17124000000E+03  0.17124000000E+03 0.  1.
       11    1    1    2    0    0  0.55782685577E-01  0.16101389711E-01  0.69746841467E+00  0.69988099949E+00  0.51109989000E-03 0.  1.
     -623    1    1    2    0    0  0.77920767832E-02 -0.20424672168E-02  0.28546039143E-02  0.17124000021E+03  0.17124000000E+03 0.  1.
     -611    1    1    2    0    0 -0.38275530440E-01 -0.89562229644E-02  0.29014744610E+01  0.29017407774E+01  0.51109989000E-03 0.  1.
      611    1    1    2    0    0 -0.25299231980E-01 -0.51026995435E-02  0.18982025012E+01  0.18983780144E+01  0.51109989000E-03 0.  1.
</event>
<event>
 6   3  0.2312675E+03  0.9118800E+02  0.7818608E-02  0.1180000E+00
       11   -1    0    0    0    0  0.00000000000E+00  0.00000000000E+00  0.54999999763E+01  0.55000000000E+01  0.51109989000E-03 0.  1.
     -623   -1    0    0    0    0  0.00000000000E+00  0.00000000000E+00  0.93234578044E-11  0.17124000000E+03  0.17124000000E+03 0.  1.
       11    1    1    2    0    0 -0.43475227917E-01  0.13909032413E-01  0.83701774350E+00  0.83826160641E+00  0.51109989000E-03 0.  1.
     -623    1    1    2    0    0 -0.57167724189E-02 -0.18984506903E-01  0.15078291239E-02  0.17124000115E+03  0.17124000000E+03 0.  1.
     -611    1    1    2    0    0  0.21197397133E-01  0.16172876736E-02  0.20772546290E+01  0.20773634733E+01  0.51109989000E-03 0. -1.
      611    1    1    2    0    0  0.27994603186E-01  0.34581868151E-02  0.25842197731E+01  0.25843737643E+01  0.51109989000E-03 0.  1.
</event>
<event>
 6   3  0.2312675E+03  0.9118800E+02  0.7818608E-02  0.1180000E+00
       11   -1    0    0    0    0  0.00000000000E+00  0.00000000000E+00  0.54999999763E+01  0.55000000000E+01  0.51109989000E-03 0. -1.
     -623   -1    0    0    0    0  0.00000000000E+00  0.00000000000E+00  0.93234578044E-11  0.17124000000E+03  0.17124000000E+03 0. -1.
       11    1    1    2    0    0  0.40372539037E-02 -0.28615372313E-02  0.22741084059E-01  0.23278873291E-01  0.51109989000E-03 0. -1.
     -623    1    1    2    0    0  0.18760202130E-02  0.31683434287E-02  0.21082571773E-02  0.17124000005E+03  0.17124000000E+03 0. -1.
     -611    1    1    2    0    0 -0.49270157684E-01 -0.28438527056E-01  0.43621465200E+01  0.43625174867E+01  0.51109989000E-03 0. -1.
      611    1    1    2    0    0  0.43356883567E-01  0.28131720859E-01  0.11130041150E+01  0.11142035875E+01  0.51109989000E-03 0.  1.
</event>
<event>
 6   3  0.2312675E+03  0.9118800E+02  0.7818608E-02  0.1180000E+00
       11   -1    0    0    0    0  0.00000000000E+00  0.00000000000E+00  0.54999999763E+01  0.55000000000E+01  0.51109989000E-03 0. -1.
     -623   -1    0    0    0    0  0.00000000000E+00  0.00000000000E+00  0.93234578044E-11  0.17124000000E+03  0.17124000000E+03 0.  1.
       11    1    1    2    0    0  0.61534714230E-01 -0.15586076281E-01  0.51216757108E+00  0.51608655177E+00  0.51109989000E-03 0. -1.
     -623    1    1    2    0    0  0.26109087816E-01 -0.12379727294E-01  0.47729604836E-02  0.17124000250E+03  0.17124000000E+03 0.  1.
     -611    1    1    2    0    0 -0.20884246887E-01  0.49117958127E-02  0.12195368239E+01  0.12197256264E+01  0.51109989000E-03 0.  1.
      611    1    1    2    0    0 -0.66759555163E-01  0.23054007764E-01  0.37635226210E+01  0.37641853177E+01  0.51109989000E-03 0. -1.
</event>
<event>
 6   3  0.2312675E+03  0.9118800E+02  0.7818608E-02  0.1180000E+00
       11   -1    0    0    0    0  0.00000000000E+00  0.00000000000E+00  0.54999999763E+01  0.55000000000E+01  0.51109989000E-03 0.  1.
     -623   -1    0    0    0    0  0.00000000000E+00  0.00000000000E+00  0.93234578044E-11  0.17124000000E+03  0.17124000000E+03 0.  1.
       11    1    1    2    0    0 -0.10142403243E-01 -0.51165049615E-02  0.34632909188E-01  0.36451976469E-01  0.51109989000E-03 0.  1.
     -623    1    1    2    0    0  0.17886889010E-01 -0.16870003434E-01  0.32906160020E-02  0.17124000180E+03  0.17124000000E+03 0.  1.
     -611    1    1    2    0    0  0.52294602025E-01  0.20667698929E-02  0.14012735008E+01  0.14022505775E+01  0.51109989000E-03 0. -1.
      611    1    1    2    0    0 -0.60039087792E-01  0.19919738502E-01  0.40608029503E+01  0.40612956492E+01  0.51109989000E-03 0.  1.
</event>
<event>
 6   3  0.2312675E+03  0.9118800E+02  0.7818608E-02  0.1180000E+00
       11   -1    0    0    0    0  0.00000000000E+00  0.00000000000E+00  0.54999999763E+01  0.55000000000E+01  0.51109989000E-03 0.  1.
     -623   -1    0    0    0    0  0.00000000000E+00  0.00000000000E+00  0.93234578044E-11  0.17124000000E+03  0.17124000000E+03 0. -1.
       11    1    1    2    0    0 -0.51946600481E-02  0.57000849113E-02  0.11137629263E+00  0.11164414559E+00  0.51109989000E-03 0.  1.
     -623    1    1    2    0    0 -0.36881896929E-02 -0.65695485900E-02  0.10738514259E-02  0.17124000017E+03  0.17124000000E+03 0. -1.
     -611    1    1    2    0    0 -0.38332918730E-01 -0.20830281805E-02  0.14037231760E+01  0.14042481147E+01  0.51109989000E-03 0.  1.
      611    1    1    2    0    0  0.47215768471E-01  0.29524918591E-02  0.39838266561E+01  0.39841075705E+01  0.51109989000E-03 0. -1.
</event>
<event>
 6   3  0.2312675E+03  0.9118800E+02  0.7818608E-02  0.1180000E+00
       11   -1    0    0    0    0  0.00000000000E+00  0.00000000000E+00  0.54999999763E+01  0.55000000000E+01  0.51109989000E-03 0. -1.
     -623   -1    0    0    0    0  0.00000000000E+00  0.00000000000E+00  0.93234578044E-11  0.17124000000E+03  0.17124000000E+03 0.  1.
       11    1    1    2    0    0 -0.69832271977E-02  0.54725982400E-02  0.98162604987E+00  0.98166627618E+00  0.51109989000E-03 0. -1.
     -623    1    1    2    0    0 -0.47417097577E-01 -0.11833528849E-01  0.37954816593E-03  0.17124000697E+03  0.17124000000E+03 0.  1.
     -611    1    1    2    0    0  0.16562014143E-01  0.26347656144E-02  0.13737107102E+01  0.13738131674E+01  0.51109989000E-03 0. -1.
      611    1    1    2    0    0  0.37838310622E-01  0.37261649940E-02  0.31442836673E+01  0.31445135814E+01  0.51109989000E-03 0. -1.
</event>
<event>
 6   3  0.2312675E+03  0.9118800E+02  0.7818608E-02  0.1180000E+00
       11   -1    0    0    0    0  0.00000000000E+00  0.00000000000E+00  0.54999999763E+01  0.55000000000E+01  0.51109989000E-03 0.  1.
     -623   -1    0    0    0    0  0.00000000000E+00  0.00000000000E+00  0.93234578044E-11  0.17124000000E+03  0.17124000000E+03 0. -1.
       11    1    1    2    0    0 -0.14518763399E-01 -0.20060805735E-01  0.22437975267E-01  0.33420867352E-01  0.51109989000E-03 0.  1.
     -623    1    1    2    0    0  0.10107508374E-01 -0.79237849746E-02  0.12301785838E-01  0.17124000092E+03  0.17124000000E+03 0. -1.
     -611    1    1    2    0    0  0.38773073409E-01  0.59633491064E-01  0.27702520439E+01  0.27711651254E+01  0.51109989000E-03 0.  1.
      611    1    1    2    0    0 -0.34361818384E-01 -0.31648900355E-01  0.26950081713E+01  0.26954130837E+01  0.51109989000E-03 0. -1.
</event>
<event>
 6   3  0.2312675E+03  0.9118800E+02  0.7818608E-02  0.1180000E+00
       11   -1    0    0    0    0  0.00000000000E+00  0.00000000000E+00  0.54999999763E+01  0.55000000000E+01  0.51109989000E-03 0.  1.
     -623   -1    0    0    0    0  0.00000000000E+00  0.00000000000E+00  0.93234578044E-11  0.17124000000E+03  0.17124000000E+03 0.  1.
       11    1    1    2    0    0  0.51765962015E-01 -0.51801289636E-02  0.72196366624E+00  0.72383585512E+00  0.51109989000E-03 0.  1.
     -623    1    1    2    0    0  0.10826992629E-02  0.11833877744E-02  0.21666736029E-02  0.17124000002E+03  0.17124000000E+03 0.  1.
     -611    1    1    2    0    0 -0.38729713373E-01  0.27158989555E-02  0.35591322308E+01  0.35593440217E+01  0.51109989000E-03 0.  1.
      611    1    1    2    0    0 -0.14118947928E-01  0.12808422355E-02  0.12167374078E+01  0.12168201042E+01  0.51109989000E-03 0. -1.
</event>
<event>
 6   3  0.2312675E+03  0.9118800E+02  0.7818608E-02  0.1180000E+00
       11   -1    0    0    0    0  0.00000000000E+00  0.00000000000E+00  0.54999999763E+01  0.55000000000E+01  0.51109989000E-03 0. -1.
     -623   -1    0    0    0    0  0.00000000000E+00  0.00000000000E+00  0.93234578044E-11  0.17124000000E+03  0.17124000000E+03 0.  1.
       11    1    1    2    0    0  0.93065094020E-01 -0.52300642389E-01  0.10599610255E+01  0.10653234747E+01  0.51109989000E-03 0. -1.
     -623    1    1    2    0    0 -0.10657535422E-01 -0.78656688759E-03  0.64476557708E-02  0.17124000045E+03  0.17124000000E+03 0.  1.
     -611    1    1    2    0    0 -0.35947198484E-01  0.24974186871E-01  0.19915460037E+01  0.19920270222E+01  0.51109989000E-03 0. -1.
      611    1    1    2    0    0 -0.46460360091E-01  0.28113022391E-01  0.24420452900E+01  0.24426490470E+01  0.51109989000E-03 0.  1.
</event>
<event>
 6   3  0.2312675E+03  0.9118800E+02  0.7818608E-02  0.1180000E+00
       11   -1    0    0    0    0  0.00000000000E+00  0.00000000000E+00  0.54999999763E+01  0.55000000000E+01  0.51109989000E-03 0. -1.
     -623   -1    0    0    0    0  0.00000000000E+00  0.00000000000E+00  0.93234578044E-11  0.17124000000E+03  0.17124000000E+03 0. -1.
       11    1    1    2    0    0 -0.44415841522E-01 -0.38626592619E-01  0.63202038394E+00  0.63475570700E+00  0.51109989000E-03 0. -1.
     -623    1    1    2    0    0  0.44814769284E-01  0.44467004955E-01  0.32749200977E-02  0.17124001167E+03  0.17124000000E+03 0. -1.
     -611    1    1    2    0    0  0.31428203707E-01 -0.18944342099E-01  0.22085092586E+01  0.22088141675E+01  0.51109989000E-03 0.  1.
      611    1    1    2    0    0 -0.31827131470E-01  0.13103929762E-01  0.26561954137E+01  0.26564184565E+01  0.51109989000E-03 0. -1.
</event>
<event>
 6   3  0.2312675E+03  0.9118800E+02  0.7818608E-02  0.1180000E+00
       11   -1    0    0    0    0  0.00000000000E+00  0.00000000000E+00  0.54999999763E+01  0.55000000000E+01  0.51109989000E-03 0. -1.
     -623   -1    0    0    0    0  0.00000000000E+00  0.00000000000E+00  0.93234578044E-11  0.17124000000E+03  0.17124000000E+03 0. -1.
       11    1    1    2    0    0 -0.55988959926E-01 -0.39289729564E-01  0.64494141056E+00  0.64855850219E+00  0.51109989000E-03 0. -1.
     -623    1    1    2    0    0 -0.10313044168E-01  0.30254989578E-01  0.49248258941E-02  0.17124000305E+03  0.17124000000E+03 0. -1.
     -611    1    1    2    0    0 -0.17348161188E-01 -0.17163330916E-01  0.88997245368E+00  0.89030712013E+00  0.51109989000E-03 0.  1.
      611    1    1    2    0    0  0.83650165282E-01  0.26198070902E-01  0.39601612861E+01  0.39611313235E+01  0.51109989000E-03 0. -1.
</event>
<event>
 6   3  0.2312675E+03  0.9118800E+02  0.7818608E-02  0.1180000E+00
       11   -1    0    0    0    0  0.00000000000E+00  0.00000000000E+00  0.54999999763E+01  0.55000000000E+01  0.51109989000E-03 0. -1.
     -623   -1    0    0    0    0  0.00000000000E+00  0.00000000000E+00  0.93234578044E-11  0.17124000000E+03  0.17124000000E+03 0.  1.
       11    1    1    2    0    0 -0.87353151271E-01 -0.26308247657E-02  0.28344844002E+00  0.29661553171E+00  0.51109989000E-03 0. -1.
     -623    1    1    2    0    0  0.56157388452E-02  0.21897590517E-01  0.13847364731E-01  0.17124000205E+03  0.17124000000E+03 0.  1.
     -611    1    1    2    0    0  0.15419879821E-01 -0.44071074650E-02  0.10073106865E+01  0.10074384724E+01  0.51109989000E-03 0.  1.
      611    1    1    2    0    0  0.66317532628E-01 -0.14859658292E-01  0.41953934864E+01  0.41959439453E+01  0.51109989000E-03 0. -1.
</event>
<event>
 6   3  0.2554508E+03  0.9118800E+02  0.7818608E-02  0.1180000E+00
       11   -1    0    0    0    0  0.00000000000E+00  0.00000000000E+00  0.54999999763E+01  0.55000000000E+01  0.51109989000E-03 0.  1.
     -623   -1    0    0    0    0  0.00000000000E+00  0.00000000000E+00  0.93234578044E-11  0.17124000000E+03  0.17124000000E+03 0. -1.
       11    1    1    2    0    0  0.65665141351E-03 -0.24974252233E-02  0.23597947241E-01  0.23744318498E-01  0.51109989000E-03 0.  1.
     -623    1    1    2    0    0 -0.76892833583E-03  0.31120311835E-02  0.11439375558E-02  0.17124000003E+03  0.17124000000E+03 0. -1.
     -611    1    1    2    0    0  0.39006786999E-01 -0.28566106170E-01  0.16809826652E+01  0.16816778924E+01  0.51109989000E-03 0. -1.
      611    1    1    2    0    0 -0.38894510077E-01  0.27951500210E-01  0.37942754263E+01  0.37945777553E+01  0.51109989000E-03 0.  1.
</event>
<event>
 6   3  0.2312675E+03  0.9118800E+02  0.7818608E-02  0.1180000E+00
       11   -1    0    0    0    0  0.00000000000E+00  0.00000000000E+00  0.54999999763E+01  0.55000000000E+01  0.51109989000E-03 0.  1.
     -623   -1    0    0    0    0  0.00000000000E+00  0.00000000000E+00  0.93234578044E-11  0.17124000000E+03  0.17124000000E+03 0. -1.
       11    1    1    2    0    0 -0.16160518945E-02 -0.12760514992E-02  0.20266402739E-02  0.29340117675E-02  0.51109989000E-03 0. -1.
     -623    1    1    2    0    0  0.35103964005E-02 -0.42859109837E-02  0.19600331107E-02  0.17124000010E+03  0.17124000000E+03 0. -1.
     -611    1    1    2    0    0  0.46316132621E-01 -0.22782887653E-01  0.26939945472E+01  0.26944890287E+01  0.51109989000E-03 0.  1.
      611    1    1    2    0    0 -0.48210477127E-01  0.28344850136E-01  0.28020187556E+01  0.28025768586E+01  0.51109989000E-03 0. -1.
</event>
<event>
 6   3  0.2312675E+03  0.9118800E+02  0.7818608E-02  0.1180000E+00
       11   -1    0    0    0    0  0.00000000000E+00  0.00000000000E+00  0.54999999763E+01  0.55000000000E+01  0.51109989000E-03 0.  1.
     -623   -1    0    0    0    0  0.00000000000E+00  0.00000000000E+00  0.93234578044E-11  0.17124000000E+03  0.17124000000E+03 0. -1.
       11    1    1    2    0    0  0.50630799100E-02 -0.16797366505E-01  0.51486409959E+00  0.51516316694E+00  0.51109989000E-03 0.  1.
     -623    1    1    2    0    0  0.14942551308E-01 -0.10091993587E-02  0.97373066944E-03  0.17124000066E+03  0.17124000000E+03 0. -1.
     -611    1    1    2    0    0  0.29721332260E-01  0.11065362773E-01  0.18315092030E+01  0.18317838359E+01  0.51109989000E-03 0. -1.
      611    1    1    2    0    0 -0.49726963478E-01  0.67412030904E-02  0.31526529430E+01  0.31530523394E+01  0.51109989000E-03 0.  1.
</event>
<event>
 6   3  0.2312675E+03  0.9118800E+02  0.7818608E-02  0.1180000E+00
       11   -1    0    0    0    0  0.00000000000E+00  0.00000000000E+00  0.54999999763E+01  0.55000000000E+01  0.51109989000E-03 0.  1.
     -623   -1    0    0    0    0  0.00000000000E+00  0.00000000000E+00  0.93234578044E-11  0.17124000000E+03  0.17124000000E+03 0.  1.
       11    1    1    2    0    0  0.85202926201E-02 -0.21640549942E-01  0.96047089948E-01  0.98824154430E-01  0.51109989000E-03 0.  1.
     -623    1    1    2    0    0  0.34638618709E-02  0.75682594704E-02  0.34093840926E-02  0.17124000024E+03  0.17124000000E+03 0.  1.
     -611    1    1    2    0    0  0.29297331621E-01  0.26454813058E-01  0.24862796718E+01  0.24865930625E+01  0.51109989000E-03 0. -1.
      611    1    1    2    0    0 -0.41281486112E-01 -0.12382522586E-01  0.29142638304E+01  0.29145825469E+01  0.51109989000E-03 0.  1.
</event>
<event>
 6   3  0.2312675E+03  0.9118800E+02  0.7818608E-02  0.1180000E+00
       11   -1    0    0    0    0  0.00000000000E+00  0.00000000000E+00  0.54999999763E+01  0.55000000000E+01  0.51109989000E-03 0. -1.
     -623   -1    0    0    0    0  0.00000000000E+00  0.00000000000E+00  0.93234578044E-11  0.17124000000E+03  0.17124000000E+03 0. -1.
       11    1    1    2    0    0  0.20651805453E-01 -0.34899470558E-02  0.21893635201E-01  0.30302958343E-01  0.51109989000E-03 0. -1.
     -623    1    1    2    0    0 -0.14126314415E-01  0.21944079109E-01  0.94666266372E-02  0.17124000225E+03  0.17124000000E+03 0. -1.
     -611    1    1    2    0    0 -0.41496582695E-01  0.25670002221E-01  0.19827009863E+01  0.19833013835E+01  0.51109989000E-03 0.  1.
      611    1    1    2    0    0  0.34971091657E-01 -0.44124134274E-01  0.34859387281E+01  0.34863934078E+01  0.51109989000E-03 0. -1.
</event>
<event>
 6   3  0.2312675E+03  0.9118800E+02  0.7818608E-02  0.1180000E+00
       11   -1    0    0    0    0  0.00000000000E+00  0.00000000000E+00  0.54999999763E+01  0.55000000000E+01  0.51109989000E-03 0.  1.
     -623   -1    0    0    0    0  0.00000000000E+00  0.00000000000E+00  0.93234578044E-11  0.17124000000E+03  0.17124000000E+03 0. -1.
       11    1    1    2    0    0  0.30717007286E-01 -0.24915078784E-01  0.54564769066E+00  0.54707948164E+00  0.51109989000E-03 0.  1.
     -623    1    1    2    0    0  0.25064634046E-01 -0.59385723783E-02  0.18497755170E-02  0.17124000195E+03  0.17124000000E+03 0. -1.
     -611    1    1    2    0    0 -0.32577880561E-01  0.20046712139E-01  0.27122192599E+01  0.27124890348E+01  0.51109989000E-03 0. -1.
      611    1    1    2    0    0 -0.23203760770E-01  0.10806939022E-01  0.22402832501E+01  0.22404295361E+01  0.51109989000E-03 0.  1.
</event>
<event>
 6   3  0.2312675E+03  0.9118800E+02  0.7818608E-02  0.1180000E+00
       11   -1    0    0    0    0  0.00000000000E+00  0.00000000000E+00  0.54999999763E+01  0.55000000000E+01  0.51109989000E-03 0. -1.
     -623   -1    0    0    0    0  0.00000000000E+00  0.00000000000E+00  0.93234578044E-11  0.17124000000E+03  0.17124000000E+03 0. -1.
       11    1    1    2    0    0 -0.33241096323E-02  0.71163630767E-03  0.38181579579E-01  0.38336019268E-01  0.51109989000E-03 0. -1.
     -623    1    1    2    0    0  0.77771694704E-01 -0.31860414893E-01  0.77283837747E-03  0.17124002063E+03  0.17124000000E+03 0. -1.
     -611    1    1    2    0    0 -0.49796079366E-01  0.22798841491E-01  0.36768019664E+01  0.36772098660E+01  0.51109989000E-03 0. -1.
      611    1    1    2    0    0 -0.24651505689E-01  0.83499370878E-02  0.17842435907E+01  0.17844334872E+01  0.51109989000E-03 0.  1.
</event>
<event>
 6   3  0.2312675E+03  0.9118800E+02  0.7818608E-02  0.1180000E+00
       11   -1    0    0    0    0  0.00000000000E+00  0.00000000000E+00  0.54999999763E+01  0.55000000000E+01  0.51109989000E-03 0. -1.
     -623   -1    0    0    0    0  0.00000000000E+00  0.00000000000E+00  0.93234578044E-11  0.17124000000E+03  0.17124000000E+03 0. -1.
       11    1    1    2    0    0 -0.11333405779E-02  0.15389995670E-02  0.50019600357E+00  0.50019991622E+00  0.51109989000E-03 0. -1.
     -623    1    1    2    0    0  0.64516342137E-01 -0.10166488709E-01  0.43058230271E-03  0.17124001246E+03  0.17124000000E+03 0. -1.
     -611    1    1    2    0    0 -0.23265438712E-01  0.78387929518E-03  0.20048779613E+01  0.20050131661E+01  0.51109989000E-03 0.  1.
      611    1    1    2    0    0 -0.40117562915E-01  0.78436098571E-02  0.29944954348E+01  0.29947744676E+01  0.51109989000E-03 0. -1.
</event>
<event>
 6   3  0.2312675E+03  0.9118800E+02  0.7818608E-02  0.1180000E+00
       11   -1    0    0    0    0  0.00000000000E+00  0.00000000000E+00  0.54999999763E+01  0.55000000000E+01  0.51109989000E-03 0.  1.
     -623   -1    0    0    0    0  0.00000000000E+00  0.00000000000E+00  0.93234578044E-11  0.17124000000E+03  0.17124000000E+03 0. -1.
       11    1    1    2    0    0  0.56087370058E-01 -0.38238329341E-01  0.51426870241E+00  0.51872972000E+00  0.51109989000E-03 0.  1.
     -623    1    1    2    0    0  0.17352435024E-01  0.15430932906E-01  0.50566608218E-02  0.17124000165E+03  0.17124000000E+03 0. -1.
     -611    1    1    2    0    0 -0.55695742923E-01  0.17118354302E-01  0.38160520945E+01  0.38164969413E+01  0.51109989000E-03 0.  1.
      611    1    1    2    0    0 -0.17744062163E-01  0.56890421352E-02  0.11646225189E+01  0.11647716899E+01  0.51109989000E-03 0.  1.
</event>
<event>
 6   3  0.2312675E+03  0.9118800E+02  0.7818608E-02  0.1180000E+00
       11   -1    0    0    0    0  0.00000000000E+00  0.00000000000E+00  0.54999999763E+01  0.55000000000E+01  0.51109989000E-03 0. -1.
     -623   -1    0    0    0    0  0.00000000000E+00  0.00000000000E+00  0.93234578044E-11  0.17124000000E+03  0.17124000000E+03 0. -1.
       11    1    1    2    0    0  0.92969898386E-02 -0.11017700699E-01  0.23752219138E+00  0.23795982092E+00  0.51109989000E-03 0. -1.
     -623    1    1    2    0    0 -0.79371826401E-01 -0.43629576922E-01  0.14122699470E-02  0.17124002396E+03  0.17124000000E+03 0. -1.
     -611    1    1    2    0    0  0.29415391909E-01  0.49359186430E-01  0.26007954598E+01  0.26014301604E+01  0.51109989000E-03 0. -1.
      611    1    1    2    0    0  0.40659444653E-01  0.52880911914E-02  0.26602700552E+01  0.26605860599E+01  0.51109989000E-03 0.  1.
</event>
<event>
 6   3  0.2312675E+03  0.9118800E+02  0.7818608E-02  0.1180000E+00
       11   -1    0    0    0    0  0.00000000000E+00  0.00000000000E+00  0.54999999763E+01  0.55000000000E+01  0.51109989000E-03 0. -1.
     -623   -1    0    0    0    0  0.00000000000E+00  0.00000000000E+00  0.93234578044E-11  0.17124000000E+03  0.17124000000E+03 0.  1.
       11    1    1    2    0    0  0.30420201350E-01  0.14265082033E-02  0.10642439675E+01  0.10646797205E+01  0.51109989000E-03 0. -1.
     -623    1    1    2    0    0  0.15563194627E-01  0.49697764223E-01  0.97688018064E-03  0.17124000792E+03  0.17124000000E+03 0.  1.
     -611    1    1    2    0    0 -0.25114387108E-01 -0.28199889610E-01  0.24142202964E+01  0.24145156589E+01  0.51109989000E-03 0. -1.
      611    1    1    2    0    0 -0.20869008915E-01 -0.22924382868E-01  0.20205588367E+01  0.20207967035E+01  0.51109989000E-03 0. -1.
</event>
<event>
 6   3  0.2312675E+03  0.9118800E+02  0.7818608E-02  0.1180000E+00
       11   -1    0    0    0    0  0.00000000000E+00  0.00000000000E+00  0.54999999763E+01  0.55000000000E+01  0.51109989000E-03 0.  1.
     -623   -1    0    0    0    0  0.00000000000E+00  0.00000000000E+00  0.93234578044E-11  0.17124000000E+03  0.17124000000E+03 0. -1.
       11    1    1    2    0    0  0.14084802968E-01  0.61402727569E-02  0.11811435593E+00  0.11911064992E+00  0.51109989000E-03 0.  1.
     -623    1    1    2    0    0 -0.21597827851E-02  0.36299967670E-02  0.42189322034E-02  0.17124000010E+03  0.17124000000E+03 0. -1.
     -611    1    1    2    0    0 -0.82843993749E-01 -0.45877390544E-01  0.19492947005E+01  0.19515936957E+01  0.51109989000E-03 0. -1.
      611    1    1    2    0    0  0.70918973566E-01  0.36107121021E-01  0.34283719876E+01  0.34292955503E+01  0.51109989000E-03 0.  1.
</event>
<event>
 6   3  0.2312675E+03  0.9118800E+02  0.7818608E-02  0.1180000E+00
       11   -1    0    0    0    0  0.00000000000E+00  0.00000000000E+00  0.54999999763E+01  0.55000000000E+01  0.51109989000E-03 0. -1.
     -623   -1    0    0    0    0  0.00000000000E+00  0.00000000000E+00  0.93234578044E-11  0.17124000000E+03  0.17124000000E+03 0. -1.
       11    1    1    2    0    0 -0.61643449512E-03 -0.11991160596E-01  0.10814426803E+00  0.10880998049E+00  0.51109989000E-03 0. -1.
     -623    1    1    2    0    0  0.15788732155E-01  0.49205023669E-02  0.11419130138E-02  0.17124000080E+03  0.17124000000E+03 0. -1.
     -611    1    1    2    0    0  0.27589815625E-01  0.77523863972E-02  0.19875955687E+01  0.19878022294E+01  0.51109989000E-03 0. -1.
      611    1    1    2    0    0 -0.42762113285E-01 -0.68172816841E-03  0.34031182266E+01  0.34033869878E+01  0.51109989000E-03 0.  1.
</event>
<event>
 6   3  0.2312675E+03  0.9118800E+02  0.7818608E-02  0.1180000E+00
       11   -1    0    0    0    0  0.00000000000E+00  0.00000000000E+00  0.54999999763E+01  0.55000000000E+01  0.51109989000E-03 0. -1.
     -623   -1    0    0    0    0  0.00000000000E+00  0.00000000000E+00  0.93234578044E-11  0.17124000000E+03  0.17124000000E+03 0.  1.
       11    1    1    2    0    0  0.74132371886E-02 -0.15536860407E-01  0.66896076088E+00  0.66918241978E+00  0.51109989000E-03 0. -1.
     -623    1    1    2    0    0 -0.63170637111E-02 -0.34198116510E-03  0.86112866128E-03  0.17124000012E+03  0.17124000000E+03 0.  1.
     -611    1    1    2    0    0  0.36499986580E-01  0.12462218876E-01  0.30154159971E+01  0.30156626888E+01  0.51109989000E-03 0. -1.
      611    1    1    2    0    0 -0.37596160058E-01  0.34166226954E-02  0.18147620895E+01  0.18151547722E+01  0.51109989000E-03 0.  1.
</event>
<event>
 6   3  0.2312675E+03  0.9118800E+02  0.7818608E-02  0.1180000E+00
       11   -1    0    0    0    0  0.00000000000E+00  0.00000000000E+00  0.54999999763E+01  0.55000000000E+01  0.51109989000E-03 0.  1.
     -623   -1    0    0    0    0  0.00000000000E+00  0.00000000000E+00  0.93234578044E-11  0.17124000000E+03  0.17124000000E+03 0.  1.
       11    1    1    2    0    0 -0.64209651210E-02 -0.67936789349E-02  0.20451540150E+00  0.20472956196E+00  0.51109989000E-03 0.  1.
     -623    1    1    2    0    0 -0.21514500702E-03  0.41647410486E-02  0.17389156622E-02  0.17124000006E+03  0.17124000000E+03 0.  1.
     -611    1    1    2    0    0  0.63415095464E-01  0.17169376644E-02  0.36334762556E+01  0.36340300471E+01  0.51109989000E-03 0.  1.
      611    1    1    2    0    0 -0.56778985335E-01  0.91200022184E-03  0.16602694035E+01  0.16612403313E+01  0.51109989000E-03 0. -1.
</event>
<event>
 6   3  0.2312675E+03  0.9118800E+02  0.7818608E-02  0.1180000E+00
       11   -1    0    0    0    0  0.00000000000E+00  0.00000000000E+00  0.54999999763E+01  0.55000000000E+01  0.51109989000E-03 0.  1.
     -623   -1    0    0    0    0  0.00000000000E+00  0.00000000000E+00  0.93234578044E-11  0.17124000000E+03  0.17124000000E+03 0.  1.
       11    1    1    2    0    0 -0.68970575502E-02 -0.17661481356E-01  0.73690150863E+00  0.73714557041E+00  0.51109989000E-03 0.  1.
     -623    1    1    2    0    0 -0.10497528630E-02  0.29112820434E-02  0.11851609611E-02  0.17124000003E+03  0.17124000000E+03 0.  1.
     -611    1    1    2    0    0 -0.35426493398E-01 -0.18252858244E-01  0.22061512073E+01  0.22065111860E+01  0.51109989000E-03 0.  1.
      611    1    1    2    0    0  0.43373303812E-01  0.33003057556E-01  0.25557620993E+01  0.25563432115E+01  0.51109989000E-03 0. -1.
</event>
<event>
 6   3  0.2312675E+03  0.9118800E+02  0.7818608E-02  0.1180000E+00
       11   -1    0    0    0    0  0.00000000000E+00  0.00000000000E+00  0.54999999763E+01  0.55000000000E+01  0.51109989000E-03 0. -1.
     -623   -1    0    0    0    0  0.00000000000E+00  0.00000000000E+00  0.93234578044E-11  0.17124000000E+03  0.17124000000E+03 0. -1.
       11    1    1    2    0    0  0.15137438120E+00 -0.13698825033E-02  0.92863388399E+00  0.94089172149E+00  0.51109989000E-03 0. -1.
     -623    1    1    2    0    0 -0.15210902587E-02  0.14549267649E-01  0.14745234235E-01  0.17124000126E+03  0.17124000000E+03 0. -1.
     -611    1    1    2    0    0 -0.47299681671E-01 -0.61432962186E-02  0.13916077673E+01  0.13924250211E+01  0.51109989000E-03 0.  1.
      611    1    1    2    0    0 -0.10255360928E+00 -0.70360889273E-02  0.31650130908E+01  0.31666819979E+01  0.51109989000E-03 0. -1.
</event>
<event>
 6   3  0.2312675E+03  0.9118800E+02  0.7818608E-02  0.1180000E+00
       11   -1    0    0    0    0  0.00000000000E+00  0.00000000000E+00  0.54999999763E+01  0.55000000000E+01  0.51109989000E-03 0. -1.
     -623   -1    0    0    0    0  0.00000000000E+00  0.00000000000E+00  0.93234578044E-11  0.17124000000E+03  0.17124000000E+03 0.  1.
       11    1    1    2    0    0  0.16075121319E-01  0.76612118688E-02  0.35138276763E+00  0.35183407211E+00  0.51109989000E-03 0. -1.
     -623    1    1    2    0    0 -0.18759919727E-01 -0.16770727204E-01  0.10881413974E-02  0.17124000185E+03  0.17124000000E+03 0.  1.
     -611    1    1    2    0    0 -0.35829171829E-01 -0.79493644300E-02  0.18340329301E+01  0.18344001668E+01  0.51109989000E-03 0.  1.
      611    1    1    2    0    0  0.38513970238E-01  0.17058879766E-01  0.33134961372E+01  0.33137639089E+01  0.51109989000E-03 0. -1.
</event>
<event>
 6   3  0.2312675E+03  0.9118800E+02  0.7818608E-02  0.1180000E+00
       11   -1    0    0    0    0  0.00000000000E+00  0.00000000000E+00  0.54999999763E+01  0.55000000000E+01  0.51109989000E-03 0.  1.
     -623   -1    0    0    0    0  0.00000000000E+00  0.00000000000E+00  0.93234578044E-11  0.17124000000E+03  0.17124000000E+03 0. -1.
       11    1    1    2    0    0  0.48788997700E-01  0.81209282042E-01  0.95857651379E+00  0.96324685714E+00  0.51109989000E-03 0.  1.
     -623    1    1    2    0    0  0.21565518215E-01 -0.36027599469E-01  0.54909486988E-02  0.17124000524E+03  0.17124000000E+03 0. -1.
     -611    1    1    2    0    0 -0.24079856056E-01 -0.71782477012E-02  0.16771670193E+01  0.16773553108E+01  0.51109989000E-03 0.  1.
      611    1    1    2    0    0 -0.46274659858E-01 -0.38003434872E-01  0.28587654944E+01  0.28593925961E+01  0.51109989000E-03 0. -1.
</event>
<event>
 6   3  0.2312675E+03  0.9118800E+02  0.7818608E-02  0.1180000E+00
       11   -1    0    0    0    0  0.00000000000E+00  0.00000000000E+00  0.54999999763E+01  0.55000000000E+01  0.51109989000E-03 0. -1.
     -623   -1    0    0    0    0  0.00000000000E+00  0.00000000000E+00  0.93234578044E-11  0.17124000000E+03  0.17124000000E+03 0.  1.
       11    1    1    2    0    0 -0.34403299740E-02  0.14738828173E-01  0.72049278838E+00  0.72065191892E+00  0.51109989000E-03 0. -1.
     -623    1    1    2    0    0 -0.44960910118E-01 -0.48602896760E-01  0.53710260219E-03  0.17124001280E+03  0.17124000000E+03 0.  1.
     -611    1    1    2    0    0  0.32576199443E-01  0.22821393321E-01  0.32175142093E+01  0.32177600863E+01  0.51109989000E-03 0. -1.
      611    1    1    2    0    0  0.15825040648E-01  0.11042675263E-01  0.15614558758E+01  0.15615751938E+01  0.51109989000E-03 0. -1.
</event>
<event>
 6   3  0.2312675E+03  0.9118800E+02  0.7818608E-02  0.1180000E+00
       11   -1    0    0    0    0  0.00000000000E+00  0.00000000000E+00  0.54999999763E+01  0.55000000000E+01  0.51109989000E-03 0. -1.
     -623   -1    0    0    0    0  0.00000000000E+00  0.00000000000E+00  0.93234578044E-11  0.17124000000E+03  0.17124000000E+03 0.  1.
       11    1    1    2    0    0  0.55266518101E-02  0.23878384371E-03  0.18694769417E-02  0.58614900057E-02  0.51109989000E-03 0. -1.
     -623    1    1    2    0    0 -0.11087273043E-02 -0.66867017967E-02  0.74246001109E-02  0.17124000030E+03  0.17124000000E+03 0.  1.
     -611    1    1    2    0    0 -0.55659630151E-01 -0.69321870417E-01  0.16946230551E+01  0.16969534691E+01  0.51109989000E-03 0.  1.
      611    1    1    2    0    0  0.51241705645E-01  0.75769788370E-01  0.37960828441E+01  0.37971847458E+01  0.51109989000E-03 0. -1.
</event>
<event>
 6   3  0.2312675E+03  0.9118800E+02  0.7818608E-02  0.1180000E+00
       11   -1    0    0    0    0  0.00000000000E+00  0.00000000000E+00  0.54999999763E+01  0.55000000000E+01  0.51109989000E-03 0. -1.
     -623   -1    0    0    0    0  0.00000000000E+00  0.00000000000E+00  0.93234578044E-11  0.17124000000E+03  0.17124000000E+03 0. -1.
       11    1    1    2    0    0 -0.73545938358E-01  0.39740046704E-01  0.30244872271E+00  0.31378936797E+00  0.51109989000E-03 0. -1.
     -623    1    1    2    0    0 -0.44502828852E-02 -0.75349924750E-02  0.12031421936E-01  0.17124000065E+03  0.17124000000E+03 0. -1.
     -611    1    1    2    0    0  0.21662060687E-01 -0.60716737120E-02  0.13818538449E+01  0.13820370545E+01  0.51109989000E-03 0. -1.
      611    1    1    2    0    0  0.56334160558E-01 -0.26133380518E-01  0.38036659868E+01  0.38041729314E+01  0.51109989000E-03 0. -1.
</event>
<event>
 6   3  0.2312675E+03  0.9118800E+02  0.7818608E-02  0.1180000E+00
       11   -1    0    0    0    0  0.00000000000E+00  0.00000000000E+00  0.54999999763E+01  0.55000000000E+01  0.51109989000E-03 0. -1.
     -623   -1    0    0    0    0  0.00000000000E+00  0.00000000000E+00  0.93234578044E-11  0.17124000000E+03  0.17124000000E+03 0.  1.
       11    1    1    2    0    0  0.12863805065E-02 -0.21875333509E-02  0.10387751069E-01  0.10705450590E-01  0.51109989000E-03 0. -1.
     -623    1    1    2    0    0  0.20604582533E-02  0.13045394993E-02  0.10140549607E-02  0.17124000002E+03  0.17124000000E+03 0.  1.
     -611    1    1    2    0    0 -0.33976078935E-01  0.29691313646E-01  0.26302145513E+01  0.26306016033E+01  0.51109989000E-03 0.  1.
      611    1    1    2    0    0  0.30629240175E-01 -0.28808319794E-01  0.28583836189E+01  0.28586929257E+01  0.51109989000E-03 0. -1.
</event>
<event>
 6   3  0.2312675E+03  0.9118800E+02  0.7818608E-02  0.1180000E+00
       11   -1    0    0    0    0  0.00000000000E+00  0.00000000000E+00  0.54999999763E+01  0.55000000000E+01  0.51109989000E-03 0. -1.
     -623   -1    0    0    0    0  0.00000000000E+00  0.00000000000E+00  0.93234578044E-11  0.17124000000E+03  0.17124000000E+03 0. -1.
       11    1    1    2    0    0  0.28493984176E-01  0.13515893820E-01  0.45742673735E+00  0.45851288726E+00  0.51109989000E-03 0. -1.
     -623    1    1    2    0    0 -0.30891906781E-01 -0.11702198965E-01  0.49273658530E-02  0.17124000326E+03  0.17124000000E+03 0. -1.
     -611    1    1    2    0    0  0.46175983534E-01  0.83103780387E-01  0.31344244650E+01  0.31358659806E+01  0.51109989000E-03 0. -1.
      611    1    1    2    0    0 -0.43778060929E-01 -0.84917475242E-01  0.19032214080E+01  0.19056178750E+01  0.51109989000E-03 0.  1.
</event>
<event>
 6   3  0.2312675E+03  0.9118800E+02  0.7818608E-02  0.1180000E+00
       11   -1    0    0    0    0  0.00000000000E+00  0.00000000000E+00  0.54999999763E+01  0.55000000000E+01  0.51109989000E-03 0.  1.
     -623   -1    0    0    0    0  0.00000000000E+00  0.00000000000E+00  0.93234578044E-11  0.17124000000E+03  0.17124000000E+03 0. -1.
       11    1    1    2    0    0  0.65250684514E-01  0.34150321857E-02  0.16969250512E+00  0.18183817474E+00  0.51109989000E-03 0.  1.
     -623    1    1    2    0    0  0.14357397054E-01 -0.10834952350E-01  0.12863812650E-01  0.17124000143E+03  0.17124000000E+03 0. -1.
     -611    1    1    2    0    0 -0.30571862287E-01  0.99430522577E-02  0.12239416473E+01  0.12243638839E+01  0.51109989000E-03 0. -1.
      611    1    1    2    0    0 -0.49036219281E-01 -0.25231320929E-02  0.40935020112E+01  0.40937965135E+01  0.51109989000E-03 0.  1.
</event>
<event>
 6   3  0.2312675E+03  0.9118800E+02  0.7818608E-02  0.1180000E+00
       11   -1    0    0    0    0  0.00000000000E+00  0.00000000000E+00  0.54999999763E+01  0.55000000000E+01  0.51109989000E-03 0.  1.
     -623   -1    0    0    0    0  0.00000000000E+00  0.00000000000E+00  0.93234578044E-11  0.17124000000E+03  0.17124000000E+03 0. -1.
       11    1    1    2    0    0  0.74779774980E-01 -0.71561628639E-03  0.10257156929E+01  0.10284383650E+01  0.51109989000E-03 0.  1.
     -623    1    1    2    0    0 -0.13461959652E-01 -0.35169946154E-02  0.31473948785E-02  0.17124000059E+03  0.17124000000E+03 0. -1.
     -611    1    1    2    0    0 -0.40036289550E-01  0.17200359968E-02  0.28055812277E+01  0.28058674504E+01  0.51109989000E-03 0.  1.
      611    1    1    2    0    0 -0.21281525763E-01  0.25125749040E-02  0.16655556598E+01  0.16656935893E+01  0.51109989000E-03 0. -1.
</event>
<event>
 6   3  0.2312675E+03  0.9118800E+02  0.7818608E-02  0.1180000E+00
       11   -1    0    0    0    0  0.00000000000E+00  0.00000000000E+00  0.54999999763E+01  0.55000000000E+01  0.51109989000E-03 0.  1.
     -623   -1    0    0    0    0  0.00000000000E+00  0.00000000000E+00  0.93234578044E-11  0.17124000000E+03  0.17124000000E+03 0.  1.
       11    1    1    2    0    0 -0.81881323991E-02 -0.29957390708E-01  0.45215863907E+00  0.45322421259E+00  0.51109989000E-03 0.  1.
     -623    1    1    2    0    0  0.57012497567E-02 -0.37468789843E-02  0.55728286304E-02  0.17124000023E+03  0.17124000000E+03 0.  1.
     -611    1    1    2    0    0 -0.94385865924E-01 -0.12913763184E-01  0.16039206565E+01  0.16067473948E+01  0.51109989000E-03 0. -1.
      611    1    1    2    0    0  0.96872748567E-01  0.46618032877E-01  0.34383478520E+01  0.34400281660E+01  0.51109989000E-03 0.  1.
</event>
<event>
 6   3  0.2312675E+03  0.9118800E+02  0.7818608E-02  0.1180000E+00
       11   -1    0    0    0    0  0.00000000000E+00  0.00000000000E+00  0.54999999763E+01  0.55000000000E+01  0.51109989000E-03 0.  1.
     -623   -1    0    0    0    0  0.00000000000E+00  0.00000000000E+00  0.93234578044E-11  0.17124000000E+03  0.17124000000E+03 0. -1.
       11    1    1    2    0    0  0.38962908099E-01 -0.37239761400E-01  0.20995597461E+00  0.21676411265E+00  0.51109989000E-03 0.  1.
     -623    1    1    2    0    0  0.24786433466E-01 -0.17224911367E-01  0.74769703073E-02  0.17124000282E+03  0.17124000000E+03 0. -1.
     -611    1    1    2    0    0 -0.32747928880E-01  0.28031082747E-01  0.26403433796E+01  0.26406952857E+01  0.51109989000E-03 0. -1.
      611    1    1    2    0    0 -0.31001412705E-01  0.26433590038E-01  0.26422236534E+01  0.26425377798E+01  0.51109989000E-03 0.  1.
</event>
<event>
 6   3  0.2312675E+03  0.9118800E+02  0.7818608E-02  0.1180000E+00
       11   -1    0    0    0    0  0.00000000000E+00  0.00000000000E+00  0.54999999763E+01  0.55000000000E+01  0.51109989000E-03 0.  1.
     -623   -1    0    0    0    0  0.00000000000E+00  0.00000000000E+00  0.93234578044E-11  0.17124000000E+03  0.17124000000E+03 0. -1.
       11    1    1    2    0    0  0.33254052458E-01  0.35471147509E-02  0.20679938230E+00  0.20948665774E+00  0.51109989000E-03 0.  1.
     -623    1    1    2    0    0 -0.28796000227E-01  0.17293165674E-01  0.77682429574E-02  0.17124000347E+03  0.17124000000E+03 0. -1.
     -611    1    1    2    0    0 -0.91087952972E-01  0.55688792090E-01  0.18018456339E+01  0.18050058743E+01  0.51109989000E-03 0.  1.
      611    1    1    2    0    0  0.86629900742E-01 -0.76529072514E-01  0.34835867171E+01  0.34855039973E+01  0.51109989000E-03 0. -1.
</event>
<event>
 6   3  0.2312675E+03  0.9118800E+02  0.7818608E-02  0.1180000E+00
       11   -1    0    0    0    0  0.00000000000E+00  0.00000000000E+00  0.54999999763E+01  0.55000000000E+01  0.51109989000E-03 0.  1.
     -623   -1    0    0    0    0  0.00000000000E+00  0.00000000000E+00  0.93234578044E-11  0.17124000000E+03  0.17124000000E+03 0.  1.
       11    1    1    2    0    0 -0.19060078269E-01 -0.99322725867E-02  0.10251002775E+01  0.10253256930E+01  0.51109989000E-03 0.  1.
     -623    1    1    2    0    0  0.88810923460E-01  0.18655558473E-01  0.80607499785E-03  0.17124002405E+03  0.17124000000E+03 0.  1.
     -611    1    1    2    0    0 -0.20203254260E-01 -0.26412435781E-02  0.11255420624E+01  0.11257265845E+01  0.51109989000E-03 0. -1.
      611    1    1    2    0    0 -0.49547590959E-01 -0.60820423140E-02  0.33485515631E+01  0.33489236759E+01  0.51109989000E-03 0.  1.
</event>
<event>
 6   3  0.2312675E+03  0.9118800E+02  0.7818608E-02  0.1180000E+00
       11   -1    0    0    0    0  0.00000000000E+00  0.00000000000E+00  0.54999999763E+01  0.55000000000E+01  0.51109989000E-03 0. -1.
     -623   -1    0    0    0    0  0.00000000000E+00  0.00000000000E+00  0.93234578044E-11  0.17124000000E+03  0.17124000000E+03 0.  1.
       11    1    1    2    0    0  0.41137873246E-02 -0.42520105388E-02  0.33448918253E-01  0.33971961898E-01  0.51109989000E-03 0. -1.
     -623    1    1    2    0    0 -0.80827281859E-02  0.28300512950E-02  0.16243287998E-02  0.17124000022E+03  0.17124000000E+03 0.  1.
     -611    1    1    2    0    0 -0.41779410453E-01 -0.32249268136E-01  0.27609431065E+01  0.27614475611E+01  0.51109989000E-03 0.  1.
      611    1    1    2    0    0  0.45748351315E-01  0.33671227380E-01  0.27039836228E+01  0.27045802552E+01  0.51109989000E-03 0. -1.
</event>
<event>
 6   3  0.2312675E+03  0.9118800E+02  0.7818608E-02  0.1180000E+00
       11   -1    0    0    0    0  0.00000000000E+00  0.00000000000E+00  0.54999999763E+01  0.55000000000E+01  0.51109989000E-03 0. -1.
     -623   -1    0    0    0    0  0.00000000000E+00  0.00000000000E+00  0.93234578044E-11  0.17124000000E+03  0.17124000000E+03 0. -1.
       11    1    1    2    0    0 -0.67696822704E-01 -0.72189269774E-02  0.84773829854E+00  0.85046778701E+00  0.51109989000E-03 0. -1.
     -623    1    1    2    0    0  0.11769017654E-01 -0.21796571600E-01  0.31584193966E-02  0.17124000182E+03  0.17124000000E+03 0. -1.
     -611    1    1    2    0    0  0.21473842773E-01  0.11418343849E-01  0.17672851958E+01  0.17674526101E+01  0.51109989000E-03 0. -1.
      611    1    1    2    0    0  0.34453962302E-01  0.17597154742E-01  0.28818180646E+01  0.28820777842E+01  0.51109989000E-03 0. -1.
</event>
<event>
 6   3  0.2312675E+03  0.9118800E+02  0.7818608E-02  0.1180000E+00
       11   -1    0    0    0    0  0.00000000000E+00  0.00000000000E+00  0.54999999763E+01  0.55000000000E+01  0.51109989000E-03 0.  1.
     -623   -1    0    0    0    0  0.00000000000E+00  0.00000000000E+00  0.93234578044E-11  0.17124000000E+03  0.17124000000E+03 0. -1.
       11    1    1    2    0    0  0.34749333974E-01  0.16753565821E-01  0.66855918053E+00  0.66967143979E+00  0.51109989000E-03 0.  1.
     -623    1    1    2    0    0  0.17454722405E-01  0.13239659202E-01  0.14895236025E-02  0.17124000141E+03  0.17124000000E+03 0. -1.
     -611    1    1    2    0    0 -0.37661322698E-01 -0.22395776682E-01  0.35720752819E+01  0.35723440521E+01  0.51109989000E-03 0.  1.
      611    1    1    2    0    0 -0.14542733661E-01 -0.75974483303E-02  0.12578759885E+01  0.12579830985E+01  0.51109989000E-03 0. -1.
</event>
<event>
 6   3  0.2312675E+03  0.9118800E+02  0.7818608E-02  0.1180000E+00
       11   -1    0    0    0    0  0.00000000000E+00  0.00000000000E+00  0.54999999763E+01  0.55000000000E+01  0.51109989000E-03 0.  1.
     -623   -1    0    0    0    0  0.00000000000E+00  0.00000000000E+00  0.93234578044E-11  0.17124000000E+03  0.17124000000E+03 0.  1.
       11    1    1    2    0    0  0.10595665920E+00  0.71496545529E-01  0.39436673707E+00  0.41456477682E+00  0.51109989000E-03 0.  1.
     -623    1    1    2    0    0  0.10594932888E-01 -0.29469223054E-01  0.22798357523E-01  0.17124000438E+03  0.17124000000E+03 0.  1.
     -611    1    1    2    0    0 -0.13143885724E+00 -0.49889305473E-01  0.40100132846E+01  0.40124770305E+01  0.51109989000E-03 0.  1.
      611    1    1    2    0    0  0.14887265146E-01  0.78619829977E-02  0.10728215971E+01  0.10729538116E+01  0.51109989000E-03 0. -1.
</event>
<event>
 6   3  0.2312675E+03  0.9118800E+02  0.7818608E-02  0.1180000E+00
       11   -1    0    0    0    0  0.00000000000E+00  0.00000000000E+00  0.54999999763E+01  0.55000000000E+01  0.51109989000E-03 0. -1.
     -623   -1    0    0    0    0  0.00000000000E+00  0.00000000000E+00  0.93234578044E-11  0.17124000000E+03  0.17124000000E+03 0. -1.
       11    1    1    2    0    0 -0.49112253521E-01 -0.22438466831E-01  0.10243480840E+01  0.10257703236E+01  0.51109989000E-03 0. -1.
     -623    1    1    2    0    0 -0.26067975823E-01 -0.52113560354E-02  0.21442390853E-02  0.17124000208E+03  0.17124000000E+03 0. -1.
     -611    1    1    2    0    0  0.42642874826E-01  0.18199194076E-01  0.26168919750E+01  0.26173027138E+01  0.51109989000E-03 0. -1.
      611    1    1    2    0    0  0.32537354520E-01  0.94506287913E-02  0.18566156782E+01  0.18569248858E+01  0.51109989000E-03 0.  1.
</event>
<event>
 6   3  0.2312675E+03  0.9118800E+02  0.7818608E-02  0.1180000E+00
       11   -1    0    0    0    0  0.00000000000E+00  0.00000000000E+00  0.54999999763E+01  0.55000000000E+01  0.51109989000E-03 0. -1.
     -623   -1    0    0    0    0  0.00000000000E+00  0.00000000000E+00  0.93234578044E-11  0.17124000000E+03  0.17124000000E+03 0. -1.
       11    1    1    2    0    0 -0.15318634556E-01 -0.12293755472E-01  0.42294675979E-01  0.46635799849E-01  0.51109989000E-03 0. -1.
     -623    1    1    2    0    0 -0.11851341007E-01 -0.50655273662E-02  0.52147205663E-02  0.17124000056E+03  0.17124000000E+03 0. -1.
     -611    1    1    2    0    0  0.61498528160E-01  0.11317023401E-01  0.33372186249E+01  0.33378044514E+01  0.51109989000E-03 0. -1.
      611    1    1    2    0    0 -0.34328552597E-01  0.60422594364E-02  0.21152719548E+01  0.21155591843E+01  0.51109989000E-03 0.  1.
</event>
<event>
 6   3  0.2312675E+03  0.9118800E+02  0.7818608E-02  0.1180000E+00
       11   -1    0    0    0    0  0.00000000000E+00  0.00000000000E+00  0.54999999763E+01  0.55000000000E+01  0.51109989000E-03 0. -1.
     -623   -1    0    0    0    0  0.00000000000E+00  0.00000000000E+00  0.93234578044E-11  0.17124000000E+03  0.17124000000E+03 0.  1.
       11    1    1    2    0    0 -0.28949818767E-02 -0.20762190307E-01  0.69788002009E+00  0.69819498217E+00  0.51109989000E-03 0. -1.
     -623    1    1    2    0    0 -0.27270932382E-01 -0.16106752022E-01  0.97181178364E-03  0.17124000293E+03  0.17124000000E+03 0.  1.
     -611    1    1    2    0    0  0.49675328198E-01  0.24082906004E-01  0.36503130543E+01  0.36507305133E+01  0.51109989000E-03 0. -1.
      611    1    1    2    0    0 -0.19509413939E-01  0.12786036325E-01  0.11508350901E+01  0.11510715728E+01  0.51109989000E-03 0.  1.
</event>
<event>
 6   3  0.2312675E+03  0.9118800E+02  0.7818608E-02  0.1180000E+00
       11   -1    0    0    0    0  0.00000000000E+00  0.00000000000E+00  0.54999999763E+01  0.55000000000E+01  0.51109989000E-03 0. -1.
     -623   -1    0    0    0    0  0.00000000000E+00  0.00000000000E+00  0.93234578044E-11  0.17124000000E+03  0.17124000000E+03 0.  1.
       11    1    1    2    0    0 -0.52430414926E-01  0.34284683676E-01  0.88432352693E+00  0.88653976192E+00  0.51109989000E-03 0. -1.
     -623    1    1    2    0    0 -0.33279888006E-01  0.53514981305E-02  0.33220900269E-02  0.17124000335E+03  0.17124000000E+03 0.  1.
     -611    1    1    2    0    0  0.27459427020E-01 -0.45926252531E-02  0.77433076247E+00  0.77483127407E+00  0.51109989000E-03 0.  1.
      611    1    1    2    0    0  0.58250875912E-01 -0.35043556553E-01  0.38380235968E+01  0.38386256143E+01  0.51109989000E-03 0. -1.
</event>
<event>
 6   3  0.2312675E+03  0.9118800E+02  0.7818608E-02  0.1180000E+00
       11   -1    0    0    0    0  0.00000000000E+00  0.00000000000E+00  0.54999999763E+01  0.55000000000E+01  0.51109989000E-03 0. -1.
     -623   -1    0    0    0    0  0.00000000000E+00  0.00000000000E+00  0.93234578044E-11  0.17124000000E+03  0.17124000000E+03 0.  1.
       11    1    1    2    0    0  0.17336100073E-01 -0.25579107840E-02  0.73401233961E-01  0.75465791213E-01  0.51109989000E-03 0. -1.
     -623    1    1    2    0    0 -0.16439813319E-01  0.17662357257E-01  0.24372893519E-02  0.17124000172E+03  0.17124000000E+03 0.  1.
     -611    1    1    2    0    0 -0.28458219029E-01  0.50535944917E-02  0.27872337543E+01  0.27873836606E+01  0.51109989000E-03 0. -1.
      611    1    1    2    0    0  0.27561932275E-01 -0.20158040964E-01  0.26369276986E+01  0.26371488307E+01  0.51109989000E-03 0.  1.
</event>
<event>
 6   3  0.2312675E+03  0.9118800E+02  0.7818608E-02  0.1180000E+00
       11   -1    0    0    0    0  0.00000000000E+00  0.00000000000E+00  0.54999999763E+01  0.55000000000E+01  0.51109989000E-03 0.  1.
     -623   -1    0    0    0    0  0.00000000000E+00  0.00000000000E+00  0.93234578044E-11  0.17124000000E+03  0.17124000000E+03 0. -1.
       11    1    1    2    0    0 -0.43478207049E-02 -0.26806174084E-02  0.73525329202E-01  0.73704304569E-01  0.51109989000E-03 0.  1.
     -623    1    1    2    0    0 -0.54368940660E-01 -0.55139681434E-02  0.51308069373E-03  0.17124000872E+03  0.17124000000E+03 0. -1.
     -611    1    1    2    0    0  0.25648948170E-01  0.44312540936E-02  0.25437257435E+01  0.25438589631E+01  0.51109989000E-03 0.  1.
      611    1    1    2    0    0  0.33067813199E-01  0.37633314589E-02  0.28822358232E+01  0.28824280121E+01  0.51109989000E-03 0.  1.
</event>
<event>
 6   3  0.2312675E+03  0.9118800E+02  0.7818608E-02  0.1180000E+00
       11   -1    0    0    0    0  0.00000000000E+00  0.00000000000E+00  0.54999999763E+01  0.55000000000E+01  0.51109989000E-03 0.  1.
     -623   -1    0    0    0    0  0.00000000000E+00  0.00000000000E+00  0.93234578044E-11  0.17124000000E+03  0.17124000000E+03 0. -1.
       11    1    1    2    0    0  0.76130501355E-01 -0.24566090840E-02  0.10053557711E+01  0.10082372617E+01  0.51109989000E-03 0.  1.
     -623    1    1    2    0    0  0.29507309346E-02  0.24809032210E-02  0.35855811942E-02  0.17124000008E+03  0.17124000000E+03 0. -1.
     -611    1    1    2    0    0 -0.15171922760E-01 -0.30435581377E-03  0.10612027074E+01  0.10613113244E+01  0.51109989000E-03 0. -1.
      611    1    1    2    0    0 -0.63909309529E-01  0.28006167681E-03  0.34298559166E+01  0.34304513330E+01  0.51109989000E-03 0.  1.
</event>
<event>
 6   3  0.2312675E+03  0.9118800E+02  0.7818608E-02  0.1180000E+00
       11   -1    0    0    0    0  0.00000000000E+00  0.00000000000E+00  0.54999999763E+01  0.55000000000E+01  0.51109989000E-03 0.  1.
     -623   -1    0    0    0    0  0.00000000000E+00  0.00000000000E+00  0.93234578044E-11  0.17124000000E+03  0.17124000000E+03 0.  1.
       11    1    1    2    0    0 -0.37210151781E-01  0.14497876585E+00  0.78649472797E+00  0.80061080201E+00  0.51109989000E-03 0.  1.
     -623    1    1    2    0    0 -0.92411935450E-01 -0.82302592672E-01  0.16385354396E-01  0.17124004550E+03  0.17124000000E+03 0.  1.
     -611    1    1    2    0    0  0.59262498122E-01 -0.27572534366E-01  0.23391124425E+01  0.23400255486E+01  0.51109989000E-03 0. -1.
      611    1    1    2    0    0  0.70359589108E-01 -0.35103638814E-01  0.23580074514E+01  0.23593181514E+01  0.51109989000E-03 0.  1.
</event>
<event>
 6   3  0.2312675E+03  0.9118800E+02  0.7818608E-02  0.1180000E+00
       11   -1    0    0    0    0  0.00000000000E+00  0.00000000000E+00  0.54999999763E+01  0.55000000000E+01  0.51109989000E-03 0. -1.
     -623   -1    0    0    0    0  0.00000000000E+00  0.00000000000E+00  0.93234578044E-11  0.17124000000E+03  0.17124000000E+03 0.  1.
       11    1    1    2    0    0 -0.51388319407E-01 -0.30272928374E-01  0.44702497884E+00  0.45098647707E+00  0.51109989000E-03 0. -1.
     -623    1    1    2    0    0 -0.37533577850E-03  0.63630453275E-02  0.42837628382E-02  0.17124000017E+03  0.17124000000E+03 0.  1.
     -611    1    1    2    0    0  0.21011682371E-01  0.93701598265E-02  0.20401679159E+01  0.20402976932E+01  0.51109989000E-03 0. -1.
      611    1    1    2    0    0  0.30751972832E-01  0.14539723228E-01  0.30085233204E+01  0.30087156592E+01  0.51109989000E-03 0. -1.
</event>
<event>
 6   3  0.2312675E+03  0.9118800E+02  0.7818608E-02  0.1180000E+00
       11   -1    0    0    0    0  0.00000000000E+00  0.00000000000E+00  0.54999999763E+01  0.55000000000E+01  0.51109989000E-03 0.  1.
     -623   -1    0    0    0    0  0.00000000000E+00  0.00000000000E+00  0.93234578044E-11  0.17124000000E+03  0.17124000000E+03 0. -1.
       11    1    1    2    0    0 -0.74477867509E-01  0.18280445239E-01  0.91825517609E+00  0.92145209157E+00  0.51109989000E-03 0.  1.
     -623    1    1    2    0    0  0.17348233788E-02  0.12360870998E-01  0.39682659007E-02  0.17124000050E+03  0.17124000000E+03 0. -1.
     -611    1    1    2    0    0  0.53949279094E-01 -0.30271926823E-01  0.28660998178E+01  0.28667674027E+01  0.51109989000E-03 0.  1.
      611    1    1    2    0    0  0.18793765036E-01 -0.36938941458E-03  0.17116767165E+01  0.17117800049E+01  0.51109989000E-03 0. -1.
</event>
<event>
 6   3  0.2312675E+03  0.9118800E+02  0.7818608E-02  0.1180000E+00
       11   -1    0    0    0    0  0.00000000000E+00  0.00000000000E+00  0.54999999763E+01  0.55000000000E+01  0.51109989000E-03 0.  1.
     -623   -1    0    0    0    0  0.00000000000E+00  0.00000000000E+00  0.93234578044E-11  0.17124000000E+03  0.17124000000E+03 0. -1.
       11    1    1    2    0    0  0.59016089110E-01  0.26356758838E-01  0.17823252962E+00  0.18959080502E+00  0.51109989000E-03 0.  1.
     -623    1    1    2    0    0  0.70837985236E-02 -0.32010232886E-01  0.11778351284E-01  0.17124000354E+03  0.17124000000E+03 0. -1.
     -611    1    1    2    0    0 -0.26745917955E-01  0.16594466041E-03  0.22063997277E+01  0.22065618939E+01  0.51109989000E-03 0. -1.
      611    1    1    2    0    0 -0.39353969675E-01  0.54875293871E-02  0.31035893673E+01  0.31038437574E+01  0.51109989000E-03 0.  1.
</event>
<event>
 6   3  0.2312675E+03  0.9118800E+02  0.7818608E-02  0.1180000E+00
       11   -1    0    0    0    0  0.00000000000E+00  0.00000000000E+00  0.54999999763E+01  0.55000000000E+01  0.51109989000E-03 0.  1.
     -623   -1    0    0    0    0  0.00000000000E+00  0.00000000000E+00  0.93234578044E-11  0.17124000000E+03  0.17124000000E+03 0.  1.
       11    1    1    2    0    0 -0.20306838168E-02  0.55999770542E-02  0.91131679431E-03  0.60477385169E-02  0.51109989000E-03 0.  1.
     -623    1    1    2    0    0 -0.99148136845E-02 -0.12209530308E-01  0.62107580344E-02  0.17124000083E+03  0.17124000000E+03 0.  1.
     -611    1    1    2    0    0 -0.41933698522E-01  0.11311887700E-01  0.13015638118E+01  0.13022883749E+01  0.51109989000E-03 0. -1.
      611    1    1    2    0    0  0.53879196023E-01 -0.47023344462E-02  0.41913140896E+01  0.41916630517E+01  0.51109989000E-03 0.  1.
</event>
<event>
 6   3  0.2312675E+03  0.9118800E+02  0.7818608E-02  0.1180000E+00
       11   -1    0    0    0    0  0.00000000000E+00  0.00000000000E+00  0.54999999763E+01  0.55000000000E+01  0.51109989000E-03 0. -1.
     -623   -1    0    0    0    0  0.00000000000E+00  0.00000000000E+00  0.93234578044E-11  0.17124000000E+03  0.17124000000E+03 0.  1.
       11    1    1    2    0    0  0.14622979998E-01  0.12165698425E-01  0.77071178824E-01  0.79385537666E-01  0.51109989000E-03 0. -1.
     -623    1    1    2    0    0 -0.17019242805E-01 -0.79810356897E-02  0.41022599346E-02  0.17124000108E+03  0.17124000000E+03 0.  1.
     -611    1    1    2    0    0 -0.55746908817E-01 -0.24453669319E-01  0.14095186291E+01  0.14108326360E+01  0.51109989000E-03 0.  1.
      611    1    1    2    0    0  0.58143171624E-01  0.20269006584E-01  0.40093079084E+01  0.40097807455E+01  0.51109989000E-03 0. -1.
</event>
<event>
 6   3  0.2312675E+03  0.9118800E+02  0.7818608E-02  0.1180000E+00
       11   -1    0    0    0    0  0.00000000000E+00  0.00000000000E+00  0.54999999763E+01  0.55000000000E+01  0.51109989000E-03 0. -1.
     -623   -1    0    0    0    0  0.00000000000E+00  0.00000000000E+00  0.93234578044E-11  0.17124000000E+03  0.17124000000E+03 0. -1.
       11    1    1    2    0    0  0.96662677475E-02 -0.23817051528E-01  0.48734509713E+00  0.48802273881E+00  0.51109989000E-03 0. -1.
     -623    1    1    2    0    0  0.13676147020E-01  0.53556248455E-01  0.29038379681E-02  0.17124000895E+03  0.17124000000E+03 0. -1.
     -611    1    1    2    0    0  0.24185831344E-01 -0.58343957548E-01  0.10923235389E+01  0.10941480461E+01  0.51109989000E-03 0.  1.
      611    1    1    2    0    0 -0.47528246111E-01  0.28604760621E-01  0.39174275022E+01  0.39178202693E+01  0.51109989000E-03 0. -1.
</event>
<event>
 6   3  0.2312675E+03  0.9118800E+02  0.7818608E-02  0.1180000E+00
       11   -1    0    0    0    0  0.00000000000E+00  0.00000000000E+00  0.54999999763E+01  0.55000000000E+01  0.51109989000E-03 0. -1.
     -623   -1    0    0    0    0  0.00000000000E+00  0.00000000000E+00  0.93234578044E-11  0.17124000000E+03  0.17124000000E+03 0. -1.
       11    1    1    2    0    0 -0.85419276786E-02  0.53785564797E-01  0.74837242490E+00  0.75035151702E+00  0.51109989000E-03 0. -1.
     -623    1    1    2    0    0  0.67591855879E-01 -0.24151227005E-01  0.24658638105E-02  0.17124001506E+03  0.17124000000E+03 0. -1.
     -611    1    1    2    0    0 -0.44174039907E-01 -0.20371217419E-01  0.37818460133E+01  0.37821588890E+01  0.51109989000E-03 0. -1.
      611    1    1    2    0    0 -0.14875888294E-01 -0.92631203729E-02  0.96731567423E+00  0.96747453315E+00  0.51109989000E-03 0.  1.
</event>
<event>
 6   3  0.2312675E+03  0.9118800E+02  0.7818608E-02  0.1180000E+00
       11   -1    0    0    0    0  0.00000000000E+00  0.00000000000E+00  0.54999999763E+01  0.55000000000E+01  0.51109989000E-03 0.  1.
     -623   -1    0    0    0    0  0.00000000000E+00  0.00000000000E+00  0.93234578044E-11  0.17124000000E+03  0.17124000000E+03 0. -1.
       11    1    1    2    0    0 -0.17398929493E-01  0.11158021263E-01  0.73694446789E+00  0.73723444993E+00  0.51109989000E-03 0.  1.
     -623    1    1    2    0    0 -0.36165327376E-01  0.58953323491E-02  0.62605957147E-03  0.17124000392E+03  0.17124000000E+03 0. -1.
     -611    1    1    2    0    0  0.34822832297E-01 -0.10366506602E-01  0.30377325204E+01  0.30379498385E+01  0.51109989000E-03 0.  1.
      611    1    1    2    0    0  0.18741424589E-01 -0.66868470160E-02  0.17246969298E+01  0.17248117914E+01  0.51109989000E-03 0.  1.
</event>
<event>
 6   3  0.2312675E+03  0.9118800E+02  0.7818608E-02  0.1180000E+00
       11   -1    0    0    0    0  0.00000000000E+00  0.00000000000E+00  0.54999999763E+01  0.55000000000E+01  0.51109989000E-03 0. -1.
     -623   -1    0    0    0    0  0.00000000000E+00  0.00000000000E+00  0.93234578044E-11  0.17124000000E+03  0.17124000000E+03 0. -1.
       11    1    1    2    0    0  0.93990257422E-01  0.21524048824E-01  0.51771715680E+00  0.52662013714E+00  0.51109989000E-03 0. -1.
     -623    1    1    2    0    0  0.40162715964E-01  0.19725053766E-01  0.12300172459E-01  0.17124000629E+03  0.17124000000E+03 0. -1.
     -611    1    1    2    0    0 -0.15329774351E+00 -0.24681603372E-01  0.38969735700E+01  0.39000657233E+01  0.51109989000E-03 0. -1.
      611    1    1    2    0    0  0.19144770128E-01 -0.16567499218E-01  0.10730090770E+01  0.10733078518E+01  0.51109989000E-03 0.  1.
</event>
<event>
 6   3  0.2312675E+03  0.9118800E+02  0.7818608E-02  0.1180000E+00
       11   -1    0    0    0    0  0.00000000000E+00  0.00000000000E+00  0.54999999763E+01  0.55000000000E+01  0.51109989000E-03 0. -1.
     -623   -1    0    0    0    0  0.00000000000E+00  0.00000000000E+00  0.93234578044E-11  0.17124000000E+03  0.17124000000E+03 0. -1.
       11    1    1    2    0    0 -0.18323419688E-01 -0.32125524669E-01  0.17389009911E+00  0.17778027122E+00  0.51109989000E-03 0. -1.
     -623    1    1    2    0    0  0.10075604645E+00  0.83976398164E-01  0.48316283064E-02  0.17124005030E+03  0.17124000000E+03 0. -1.
     -611    1    1    2    0    0 -0.47127447612E-01 -0.29232277292E-01  0.30286650253E+01  0.30291727615E+01  0.51109989000E-03 0. -1.
      611    1    1    2    0    0 -0.35305179260E-01 -0.22618596273E-01  0.22926132307E+01  0.22929966732E+01  0.51109989000E-03 0. -1.
</event>
<event>
 6   3  0.2312675E+03  0.9118800E+02  0.7818608E-02  0.1180000E+00
       11   -1    0    0    0    0  0.00000000000E+00  0.00000000000E+00  0.54999999763E+01  0.55000000000E+01  0.51109989000E-03 0.  1.
     -623   -1    0    0    0    0  0.00000000000E+00  0.00000000000E+00  0.93234578044E-11  0.17124000000E+03  0.17124000000E+03 0. -1.
       11    1    1    2    0    0 -0.42479602102E-02  0.20501710201E-02  0.79940422945E-01  0.80081088972E-01  0.51109989000E-03 0.  1.
     -623    1    1    2    0    0  0.18308489887E-02  0.13276738873E-02  0.10796449273E-02  0.17124000002E+03  0.17124000000E+03 0. -1.
     -611    1    1    2    0    0 -0.44874611832E-01  0.57674921788E-02  0.16140445486E+01  0.16146786246E+01  0.51109989000E-03 0. -1.
      611    1    1    2    0    0  0.47291723054E-01 -0.91453370861E-02  0.38049353598E+01  0.38052402681E+01  0.51109989000E-03 0.  1.
</event>
<event>
 6   3  0.2312675E+03  0.9118800E+02  0.7818608E-02  0.1180000E+00
       11   -1    0    0    0    0  0.00000000000E+00  0.00000000000E+00  0.54999999763E+01  0.55000000000E+01  0.51109989000E-03 0.  1.
     -623   -1    0    0    0    0  0.00000000000E+00  0.00000000000E+00  0.93234578044E-11  0.17124000000E+03  0.17124000000E+03 0.  1.
       11    1    1    2    0    0  0.14499802614E-01  0.13565868394E-01  0.44279073826E+00  0.44323602761E+00  0.51109989000E-03 0.  1.
     -623    1    1    2    0    0 -0.50107836707E-02 -0.63421409227E-02  0.13407175995E-02  0.17124000020E+03  0.17124000000E+03 0.  1.
     -611    1    1    2    0    0  0.34956722308E-01 -0.28428072768E-01  0.27529692549E+01  0.27533379937E+01  0.51109989000E-03 0.  1.
      611    1    1    2    0    0 -0.44445741251E-01  0.21204345297E-01  0.23028992656E+01  0.23034257828E+01  0.51109989000E-03 0. -1.
</event>
<event>
 6   3  0.2312675E+03  0.9118800E+02  0.7818608E-02  0.1180000E+00
       11   -1    0    0    0    0  0.00000000000E+00  0.00000000000E+00  0.54999999763E+01  0.55000000000E+01  0.51109989000E-03 0. -1.
     -623   -1    0    0    0    0  0.00000000000E+00  0.00000000000E+00  0.93234578044E-11  0.17124000000E+03  0.17124000000E+03 0. -1.
       11    1    1    2    0    0 -0.97702600497E-03  0.61139388322E-02  0.62617543931E+00  0.62620625743E+00  0.51109989000E-03 0. -1.
     -623    1    1    2    0    0  0.62635844517E-01 -0.55047398634E-01  0.69240336094E-03  0.17124002030E+03  0.17124000000E+03 0. -1.
     -611    1    1    2    0    0 -0.73412872710E-02  0.49255537419E-02  0.69601478685E+00  0.69607111728E+00  0.51109989000E-03 0.  1.
      611    1    1    2    0    0 -0.54317531252E-01  0.44007906070E-01  0.41771173477E+01  0.41777023216E+01  0.51109989000E-03 0. -1.
</event>
<event>
 6   3  0.2312675E+03  0.9118800E+02  0.7818608E-02  0.1180000E+00
       11   -1    0    0    0    0  0.00000000000E+00  0.00000000000E+00  0.54999999763E+01  0.55000000000E+01  0.51109989000E-03 0.  1.
     -623   -1    0    0    0    0  0.00000000000E+00  0.00000000000E+00  0.93234578044E-11  0.17124000000E+03  0.17124000000E+03 0. -1.
       11    1    1    2    0    0  0.21275556468E-01 -0.22358117295E-02  0.32426767459E+00  0.32497297452E+00  0.51109989000E-03 0.  1.
     -623    1    1    2    0    0 -0.51752780801E-03  0.12745987107E-02  0.10878079190E-02  0.17124000001E+03  0.17124000000E+03 0. -1.
     -611    1    1    2    0    0 -0.40492038234E-01  0.92034379999E-02  0.34230862293E+01  0.34233381227E+01  0.51109989000E-03 0.  1.
      611    1    1    2    0    0  0.19734009575E-01 -0.82422249812E-02  0.17515582646E+01  0.17516888939E+01  0.51109989000E-03 0. -1.
</event>
<event>
 6   3  0.2312675E+03  0.9118800E+02  0.7818608E-02  0.1180000E+00
       11   -1    0    0    0    0  0.00000000000E+00  0.00000000000E+00  0.54999999763E+01  0.55000000000E+01  0.51109989000E-03 0.  1.
     -623   -1    0    0    0    0  0.00000000000E+00  0.00000000000E+00  0.93234578044E-11  0.17124000000E+03  0.17124000000E+03 0.  1.
       11    1    1    2    0    0 -0.17314384323E-01 -0.64832376186E-02  0.27486295065E-01  0.33129713461E-01  0.51109989000E-03 0.  1.
     -623    1    1    2    0    0  0.52449383618E-02 -0.42451562745E-02  0.80358822138E-02  0.17124000032E+03  0.17124000000E+03 0.  1.
     -611    1    1    2    0    0 -0.60994038795E-01 -0.12409086480E-01  0.39178146011E+01  0.39183090445E+01  0.51109989000E-03 0.  1.
      611    1    1    2    0    0  0.73063484756E-01  0.23137480373E-01  0.15466631978E+01  0.15485609205E+01  0.51109989000E-03 0. -1.
</event>
<event>
 6   3  0.2312675E+03  0.9118800E+02  0.7818608E-02  0.1180000E+00
       11   -1    0    0    0    0  0.00000000000E+00  0.00000000000E+00  0.54999999763E+01  0.55000000000E+01  0.51109989000E-03 0. -1.
     -623   -1    0    0    0    0  0.00000000000E+00  0.00000000000E+00  0.93234578044E-11  0.17124000000E+03  0.17124000000E+03 0.  1.
       11    1    1    2    0    0 -0.59891607660E-01  0.63839603653E-01  0.86751943951E+00  0.87192473231E+00  0.51109989000E-03 0. -1.
     -623    1    1    2    0    0 -0.22470716811E-01 -0.17190141807E-01  0.55347982582E-02  0.17124000243E+03  0.17124000000E+03 0.  1.
     -611    1    1    2    0    0  0.48900278561E-01 -0.32381302248E-01  0.36102632502E+01  0.36107396448E+01  0.51109989000E-03 0. -1.
      611    1    1    2    0    0  0.33462045910E-01 -0.14268159598E-01  0.10166824883E+01  0.10173331962E+01  0.51109989000E-03 0.  1.
</event>
<event>
 6   3  0.2312675E+03  0.9118800E+02  0.7818608E-02  0.1180000E+00
       11   -1    0    0    0    0  0.00000000000E+00  0.00000000000E+00  0.54999999763E+01  0.55000000000E+01  0.51109989000E-03 0.  1.
     -623   -1    0    0    0    0  0.00000000000E+00  0.00000000000E+00  0.93234578044E-11  0.17124000000E+03  0.17124000000E+03 0. -1.
       11    1    1    2    0    0  0.79452011157E-02  0.17534801520E-01  0.63460065931E+00  0.63489278899E+00  0.51109989000E-03 0.  1.
     -623    1    1    2    0    0 -0.62004772991E-01 -0.38615497250E-02  0.62310372446E-03  0.17124001127E+03  0.17124000000E+03 0. -1.
     -611    1    1    2    0    0  0.27403474356E-01 -0.72454524810E-02  0.24861365332E+01  0.24862981659E+01  0.51109989000E-03 0.  1.
      611    1    1    2    0    0  0.26656097507E-01 -0.64277993138E-02  0.23786396789E+01  0.23787977735E+01  0.51109989000E-03 0. -1.
</event>
<event>
 6   3  0.2312675E+03  0.9118800E+02  0.7818608E-02  0.1180000E+00
       11   -1    0    0    0    0  0.00000000000E+00  0.00000000000E+00  0.54999999763E+01  0.55000000000E+01  0.51109989000E-03 0.  1.
     -623   -1    0    0    0    0  0.00000000000E+00  0.00000000000E+00  0.93234578044E-11  0.17124000000E+03  0.17124000000E+03 0.  1.
       11    1    1    2    0    0  0.55715573064E-02 -0.11628318678E-02  0.30060689693E-01  0.30599031303E-01  0.51109989000E-03 0.  1.
     -623    1    1    2    0    0 -0.15098653211E-01 -0.11010648678E-02  0.84099039055E-03  0.17124000067E+03  0.17124000000E+03 0.  1.
     -611    1    1    2    0    0 -0.23462475994E-01  0.61322480742E-02  0.23051107159E+01  0.23052383317E+01  0.51109989000E-03 0. -1.
      611    1    1    2    0    0  0.32989571898E-01 -0.38683513385E-02  0.31639875803E+01  0.31641619658E+01  0.51109989000E-03 0.  1.
</event>
<event>
 6   3  0.2312675E+03  0.9118800E+02  0.7818608E-02  0.1180000E+00
       11   -1    0    0    0    0  0.00000000000E+00  0.00000000000E+00  0.54999999763E+01  0.55000000000E+01  0.51109989000E-03 0. -1.
     -623   -1    0    0    0    0  0.00000000000E+00  0.00000000000E+00  0.93234578044E-11  0.17124000000E+03  0.17124000000E+03 0.  1.
       11    1    1    2    0    0 -0.53235694123E-01 -0.43143994216E-02  0.48078640512E+00  0.48374423174E+00  0.51109989000E-03 0. -1.
     -623    1    1    2    0    0  0.23742179516E-02  0.33994365035E-03  0.32215936136E-02  0.17124000005E+03  0.17124000000E+03 0.  1.
     -611    1    1    2    0    0  0.13704664716E-01  0.39261260503E-02  0.13410215888E+01  0.13410974592E+01  0.51109989000E-03 0.  1.
      611    1    1    2    0    0  0.37156811455E-01  0.48329720931E-04  0.36749703888E+01  0.36751582620E+01  0.51109989000E-03 0. -1.
</event>
<event>
 6   3  0.2599374E+03  0.9118800E+02  0.7818608E-02  0.1180000E+00
       11   -1    0    0    0    0  0.00000000000E+00  0.00000000000E+00  0.54999999763E+01  0.55000000000E+01  0.51109989000E-03 0.  1.
     -623   -1    0    0    0    0  0.00000000000E+00  0.00000000000E+00  0.93234578044E-11  0.17124000000E+03  0.17124000000E+03 0. -1.
       11    1    1    2    0    0  0.17547442226E-02  0.15782392124E-02  0.15156524989E+00  0.15158448523E+00  0.51109989000E-03 0.  1.
     -623    1    1    2    0    0 -0.68948293030E-03 -0.14357592529E-02  0.32700211852E-03  0.17124000001E+03  0.17124000000E+03 0. -1.
     -611    1    1    2    0    0 -0.29192484591E-01  0.34341963428E-03  0.28266936954E+01  0.28268445002E+01  0.51109989000E-03 0.  1.
      611    1    1    2    0    0  0.28127223298E-01 -0.48589959375E-03  0.25214140290E+01  0.25215710071E+01  0.51109989000E-03 0. -1.
</event>
<event>
 6   3  0.2312675E+03  0.9118800E+02  0.7818608E-02  0.1180000E+00
       11   -1    0    0    0    0  0.00000000000E+00  0.00000000000E+00  0.54999999763E+01  0.55000000000E+01  0.51109989000E-03 0.  1.
     -623   -1    0    0    0    0  0.00000000000E+00  0.00000000000E+00  0.93234578044E-11  0.17124000000E+03  0.17124000000E+03 0. -1.
       11    1    1    2    0    0  0.44131169897E-01 -0.93729032284E-02  0.90591826042E+00  0.90704110560E+00  0.51109989000E-03 0.  1.
     -623    1    1    2    0    0  0.32394624544E-01  0.12015835090E-01  0.17728987311E-02  0.17124000349E+03  0.17124000000E+03 0. -1.
     -611    1    1    2    0    0 -0.55915346972E-01 -0.18869674738E-02  0.35704791798E+01  0.35709175181E+01  0.51109989000E-03 0.  1.
      611    1    1    2    0    0 -0.20610447468E-01 -0.75596438817E-03  0.10218296373E+01  0.10220378813E+01  0.51109989000E-03 0. -1.
</event>
<event>
 6   3  0.2312675E+03  0.9118800E+02  0.7818608E-02  0.1180000E+00
       11   -1    0    0    0    0  0.00000000000E+00  0.00000000000E+00  0.54999999763E+01  0.55000000000E+01  0.51109989000E-03 0.  1.
     -623   -1    0    0    0    0  0.00000000000E+00  0.00000000000E+00  0.93234578044E-11  0.17124000000E+03  0.17124000000E+03 0. -1.
       11    1    1    2    0    0 -0.15380072195E-01  0.41715144935E-01  0.27390090363E+00  0.27748633511E+00  0.51109989000E-03 0.  1.
     -623    1    1    2    0    0 -0.12454249664E-01 -0.78787229855E-02  0.55437902672E-02  0.17124000072E+03  0.17124000000E+03 0. -1.
     -611    1    1    2    0    0  0.80183416369E-01 -0.22971841765E-01  0.23954670286E+01  0.23969187788E+01  0.51109989000E-03 0. -1.
      611    1    1    2    0    0 -0.52349094510E-01 -0.10864580184E-01  0.28250882538E+01  0.28255941622E+01  0.51109989000E-03 0.  1.
</event>
<event>
 6   3  0.2312675E+03  0.9118800E+02  0.7818608E-02  0.1180000E+00
       11   -1    0    0    0    0  0.00000000000E+00  0.00000000000E+00  0.54999999763E+01  0.55000000000E+01  0.51109989000E-03 0.  1.
     -623   -1    0    0    0    0  0.00000000000E+00  0.00000000000E+00  0.93234578044E-11  0.17124000000E+03  0.17124000000E+03 0.  1.
       11    1    1    2    0    0 -0.66585869865E-01  0.26609907798E-01  0.21958163919E+00  0.23099377210E+00  0.51109989000E-03 0.  1.
     -623    1    1    2    0    0 -0.11968570486E-01 -0.89158774871E-02  0.12157708935E-01  0.17124000108E+03  0.17124000000E+03 0.  1.
     -611    1    1    2    0    0  0.40244301063E-01  0.89295623006E-03  0.16374376103E+01  0.16379324132E+01  0.51109989000E-03 0. -1.
      611    1    1    2    0    0  0.38310139289E-01 -0.18586986541E-01  0.36308230178E+01  0.36310727328E+01  0.51109989000E-03 0.  1.
</event>
<event>
 6   3  0.2312675E+03  0.9118800E+02  0.7818608E-02  0.1180000E+00
       11   -1    0    0    0    0  0.00000000000E+00  0.00000000000E+00  0.54999999763E+01  0.55000000000E+01  0.51109989000E-03 0.  1.
     -623   -1    0    0    0    0  0.00000000000E+00  0.00000000000E+00  0.93234578044E-11  0.17124000000E+03  0.17124000000E+03 0.  1.
       11    1    1    2    0    0 -0.78872460782E-02  0.56258694216E-02  0.18113762996E+00  0.18139724714E+00  0.51109989000E-03 0.  1.
     -623    1    1    2    0    0 -0.41739894046E-03 -0.92304729380E-03  0.64453023747E-03  0.17124000000E+03  0.17124000000E+03 0.  1.
     -611    1    1    2    0    0 -0.24929379325E-01  0.10857549697E-01  0.21237415217E+01  0.21239156463E+01  0.51109989000E-03 0. -1.
      611    1    1    2    0    0  0.33234024343E-01 -0.15560371825E-01  0.31944762943E+01  0.31946871024E+01  0.51109989000E-03 0.  1.
</event>
<event>
 6   3  0.2312675E+03  0.9118800E+02  0.7818608E-02  0.1180000E+00
       11   -1    0    0    0    0  0.00000000000E+00  0.00000000000E+00  0.54999999763E+01  0.55000000000E+01  0.51109989000E-03 0.  1.
     -623   -1    0    0    0    0  0.00000000000E+00  0.00000000000E+00  0.93234578044E-11  0.17124000000E+03  0.17124000000E+03 0. -1.
       11    1    1    2    0    0  0.12570864150E-01 -0.44452171285E-01  0.74824683533E+00  0.74967166811E+00  0.51109989000E-03 0.  1.
     -623    1    1    2    0    0 -0.34850445549E-02  0.76705192693E-03  0.23397807116E-02  0.17124000005E+03  0.17124000000E+03 0. -1.
     -611    1    1    2    0    0 -0.36435019601E-01 -0.19659360926E-02  0.26004973820E+01  0.26007534044E+01  0.51109989000E-03 0. -1.
      611    1    1    2    0    0  0.27349200006E-01  0.45651055450E-01  0.21489159782E+01  0.21495748743E+01  0.51109989000E-03 0.  1.
</event>
<event>
 6   3  0.2312675E+03  0.9118800E+02  0.7818608E-02  0.1180000E+00
       11   -1    0    0    0    0  0.00000000000E+00  0.00000000000E+00  0.54999999763E+01  0.55000000000E+01  0.51109989000E-03 0.  1.
     -623   -1    0    0    0    0  0.00000000000E+00  0.00000000000E+00  0.93234578044E-11  0.17124000000E+03  0.17124000000E+03 0. -1.
       11    1    1    2    0    0 -0.53786180748E-02 -0.16099699162E-02  0.72081608231E+00  0.72083812835E+00  0.51109989000E-03 0.  1.
     -623    1    1    2    0    0 -0.32691496363E-03 -0.17098967648E-02  0.44373154331E-03  0.17124000001E+03  0.17124000000E+03 0. -1.
     -611    1    1    2    0    0  0.33981855005E-01  0.73961944591E-02  0.24690551480E+01  0.24693001145E+01  0.51109989000E-03 0.  1.
      611    1    1    2    0    0 -0.28276321966E-01 -0.40763277782E-02  0.23096850141E+01  0.23098617475E+01  0.51109989000E-03 0. -1.
</event>
<event>
 6   3  0.2312675E+03  0.9118800E+02  0.7818608E-02  0.1180000E+00
       11   -1    0    0    0    0  0.00000000000E+00  0.00000000000E+00  0.54999999763E+01  0.55000000000E+01  0.51109989000E-03 0. -1.
     -623   -1    0    0    0    0  0.00000000000E+00  0.00000000000E+00  0.93234578044E-11  0.17124000000E+03  0.17124000000E+03 0.  1.
       11    1    1    2    0    0 -0.29599547773E-02  0.84523368366E-03  0.41695228734E-01  0.41811829362E-01  0.51109989000E-03 0. -1.
     -623    1    1    2    0    0  0.17287110305E-02  0.28898853080E-03  0.70083391154E-03  0.17124000001E+03  0.17124000000E+03 0.  1.
     -611    1    1    2    0    0 -0.37527355550E-01  0.54569428941E-02  0.33753883586E+01  0.33756014150E+01  0.51109989000E-03 0. -1.
      611    1    1    2    0    0  0.38758599297E-01 -0.65911651085E-02  0.20822155551E+01  0.20825867453E+01  0.51109989000E-03 0.  1.
</event>
<event>
 6   3  0.2312675E+03  0.9118800E+02  0.7818608E-02  0.1180000E+00
       11   -1    0    0    0    0  0.00000000000E+00  0.00000000000E+00  0.54999999763E+01  0.55000000000E+01  0.51109989000E-03 0.  1.
     -623   -1    0    0    0    0  0.00000000000E+00  0.00000000000E+00  0.93234578044E-11  0.17124000000E+03  0.17124000000E+03 0.  1.
       11    1    1    2    0    0 -0.30276773940E-01  0.22500190671E-02  0.93593852469E+00  0.93643095253E+00  0.51109989000E-03 0.  1.
     -623    1    1    2    0    0 -0.21739810016E-01  0.14554825644E-01  0.82234128582E-03  0.17124000200E+03  0.17124000000E+03 0.  1.
     -611    1    1    2    0    0  0.30775588727E-01 -0.10940492457E-01  0.27153768073E+01  0.27155732909E+01  0.51109989000E-03 0.  1.
      611    1    1    2    0    0  0.21240995262E-01 -0.58643522658E-02  0.18478623059E+01  0.18479937590E+01  0.51109989000E-03 0. -1.
</event>
<event>
 6   3  0.2312675E+03  0.9118800E+02  0.7818608E-02  0.1180000E+00
       11   -1    0    0    0    0  0.00000000000E+00  0.00000000000E+00  0.54999999763E+01  0.55000000000E+01  0.51109989000E-03 0.  1.
     -623   -1    0    0    0    0  0.00000000000E+00  0.00000000000E+00  0.93234578044E-11  0.17124000000E+03  0.17124000000E+03 0. -1.
       11    1    1    2    0    0  0.52778640249E-01  0.13864822855E-01  0.48850192106E+00  0.49154064561E+00  0.51109989000E-03 0.  1.
     -623    1    1    2    0    0  0.64619708839E-02 -0.26174211564E-02  0.34019906559E-02  0.17124000018E+03  0.17124000000E+03 0. -1.
     -611    1    1    2    0    0 -0.21535383440E-01 -0.40308981637E-02  0.18293031348E+01  0.18294344047E+01  0.51109989000E-03 0.  1.
      611    1    1    2    0    0 -0.37705227628E-01 -0.72165035223E-02  0.31787929242E+01  0.31790247684E+01  0.51109989000E-03 0.  1.
</event>
<event>
 6   3  0.2312675E+03  0.9118800E+02  0.7818608E-02  0.1180000E+00
       11   -1    0    0    0    0  0.00000000000E+00  0.00000000000E+00  0.54999999763E+01  0.55000000000E+01  0.51109989000E-03 0. -1.
     -623   -1    0    0    0    0  0.00000000000E+00  0.00000000000E+00  0.93234578044E-11  0.17124000000E+03  0.17124000000E+03 0.  1.
       11    1    1    2    0    0 -0.24189647266E-02  0.18126320676E-03  0.48714907795E-02  0.54659758700E-02  0.51109989000E-03 0. -1.
     -623    1    1    2    0    0  0.12893203126E-02 -0.13317263314E-01  0.16306543405E-02  0.17124000053E+03  0.17124000000E+03 0.  1.
     -611    1    1    2    0    0  0.52404212546E-01  0.17325909317E-02  0.22542239875E+01  0.22548337523E+01  0.51109989000E-03 0.  1.
      611    1    1    2    0    0 -0.51274568132E-01  0.11403409175E-01  0.32392738436E+01  0.32396997414E+01  0.51109989000E-03 0. -1.
</event>
<event>
 6   3  0.2312675E+03  0.9118800E+02  0.7818608E-02  0.1180000E+00
       11   -1    0    0    0    0  0.00000000000E+00  0.00000000000E+00  0.54999999763E+01  0.55000000000E+01  0.51109989000E-03 0. -1.
     -623   -1    0    0    0    0  0.00000000000E+00  0.00000000000E+00  0.93234578044E-11  0.17124000000E+03  0.17124000000E+03 0. -1.
       11    1    1    2    0    0 -0.89745238978E-02 -0.11764125178E-01  0.98546406966E+00  0.98557527898E+00  0.51109989000E-03 0. -1.
     -623    1    1    2    0    0  0.64348193360E-02  0.18103444544E-02  0.42114508352E-03  0.17124000013E+03  0.17124000000E+03 0. -1.
     -611    1    1    2    0    0  0.26277399572E-01  0.11478104850E-01  0.21819681918E+01  0.21821566626E+01  0.51109989000E-03 0.  1.
      611    1    1    2    0    0 -0.23737695010E-01 -0.15243241264E-02  0.23321465696E+01  0.23322679274E+01  0.51109989000E-03 0. -1.
</event>
<event>
 6   3  0.2312675E+03  0.9118800E+02  0.7818608E-02  0.1180000E+00
       11   -1    0    0    0    0  0.00000000000E+00  0.00000000000E+00  0.54999999763E+01  0.55000000000E+01  0.51109989000E-03 0.  1.
     -623   -1    0    0    0    0  0.00000000000E+00  0.00000000000E+00  0.93234578044E-11  0.17124000000E+03  0.17124000000E+03 0. -1.
       11    1    1    2    0    0 -0.31855332537E-01 -0.14734118191E-01  0.64479681627E+00  0.64575154041E+00  0.51109989000E-03 0.  1.
     -623    1    1    2    0    0 -0.17676274865E-01  0.12110514129E-01  0.12098211572E-02  0.17124000134E+03  0.17124000000E+03 0. -1.
     -611    1    1    2    0    0  0.21122383459E-01  0.18407806894E-02  0.20989766360E+01  0.20990837818E+01  0.51109989000E-03 0.  1.
      611    1    1    2    0    0  0.28409223947E-01  0.78282337287E-03  0.27550167033E+01  0.27551633333E+01  0.51109989000E-03 0.  1.
</event>
<event>
 6   3  0.2312675E+03  0.9118800E+02  0.7818608E-02  0.1180000E+00
       11   -1    0    0    0    0  0.00000000000E+00  0.00000000000E+00  0.54999999763E+01  0.55000000000E+01  0.51109989000E-03 0. -1.
     -623   -1    0    0    0    0  0.00000000000E+00  0.00000000000E+00  0.93234578044E-11  0.17124000000E+03  0.17124000000E+03 0.  1.
       11    1    1    2    0    0 -0.11925529538E-01 -0.29435458147E-01  0.67345592422E+00  0.67420457395E+00  0.51109989000E-03 0. -1.
     -623    1    1    2    0    0  0.65453750109E-03  0.45494226083E-05  0.14411634940E-02  0.17124000001E+03  0.17124000000E+03 0.  1.
     -611    1    1    2    0    0 -0.28630199358E-01 -0.48439960026E-02  0.15995579348E+01  0.15998215528E+01  0.51109989000E-03 0. -1.
      611    1    1    2    0    0  0.39901191395E-01  0.34274904727E-01  0.32255449537E+01  0.32259738659E+01  0.51109989000E-03 0.  1.
</event>
<event>
 6   3  0.2312675E+03  0.9118800E+02  0.7818608E-02  0.1180000E+00
       11   -1    0    0    0    0  0.00000000000E+00  0.00000000000E+00  0.54999999763E+01  0.55000000000E+01  0.51109989000E-03 0. -1.
     -623   -1    0    0    0    0  0.00000000000E+00  0.00000000000E+00  0.93234578044E-11  0.17124000000E+03  0.17124000000E+03 0. -1.
       11    1    1    2    0    0  0.48439051733E-02 -0.28852340185E-01  0.72067491563E+00  0.72126868516E+00  0.51109989000E-03 0. -1.
     -623    1    1    2    0    0  0.54855698102E-01  0.29340988322E-01  0.97839255007E-03  0.17124001130E+03  0.17124000000E+03 0. -1.
     -611    1    1    2    0    0 -0.46348183626E-01 -0.91924293786E-03  0.36826360433E+01  0.36829278418E+01  0.51109989000E-03 0. -1.
      611    1    1    2    0    0 -0.13351419663E-01  0.43059480102E-03  0.10957106259E+01  0.10957921713E+01  0.51109989000E-03 0. -1.
</event>
<event>
 6   3  0.2312675E+03  0.9118800E+02  0.7818608E-02  0.1180000E+00
       11   -1    0    0    0    0  0.00000000000E+00  0.00000000000E+00  0.54999999763E+01  0.55000000000E+01  0.51109989000E-03 0. -1.
     -623   -1    0    0    0    0  0.00000000000E+00  0.00000000000E+00  0.93234578044E-11  0.17124000000E+03  0.17124000000E+03 0. -1.
       11    1    1    2    0    0  0.60909073245E-01  0.22692507096E-01  0.99352118690E+00  0.99564525566E+00  0.51109989000E-03 0. -1.
     -623    1    1    2    0    0  0.12660558150E-01  0.75397294406E-02  0.28309344976E-02  0.17124000066E+03  0.17124000000E+03 0. -1.
     -611    1    1    2    0    0 -0.12705923407E-01 -0.42482435698E-02  0.87639514952E+00  0.87649769388E+00  0.51109989000E-03 0.  1.
      611    1    1    2    0    0 -0.60863707984E-01 -0.25983992965E-01  0.36272527051E+01  0.36278563928E+01  0.51109989000E-03 0. -1.
</event>
<event>
 6   3  0.2312675E+03  0.9118800E+02  0.7818608E-02  0.1180000E+00
       11   -1    0    0    0    0  0.00000000000E+00  0.00000000000E+00  0.54999999763E+01  0.55000000000E+01  0.51109989000E-03 0. -1.
     -623   -1    0    0    0    0  0.00000000000E+00  0.00000000000E+00  0.93234578044E-11  0.17124000000E+03  0.17124000000E+03 0. -1.
       11    1    1    2    0    0  0.70950022766E-01  0.11818143845E-01  0.70160180608E+00  0.70527932748E+00  0.51109989000E-03 0. -1.
     -623    1    1    2    0    0  0.54556684842E-02  0.50369775417E-02  0.43165879138E-02  0.17124000022E+03  0.17124000000E+03 0. -1.
     -611    1    1    2    0    0 -0.66285760745E-01 -0.14942845284E-01  0.41416328305E+01  0.41421902243E+01  0.51109989000E-03 0. -1.
      611    1    1    2    0    0 -0.10119930521E-01 -0.19122761060E-02  0.65244875280E+00  0.65253023382E+00  0.51109989000E-03 0.  1.
</event>
<event>
 6   3  0.2312675E+03  0.9118800E+02  0.7818608E-02  0.1180000E+00
       11   -1    0    0    0    0  0.00000000000E+00  0.00000000000E+00  0.54999999763E+01  0.55000000000E+01  0.51109989000E-03 0. -1.
     -623   -1    0    0    0    0  0.00000000000E+00  0.00000000000E+00  0.93234578044E-11  0.17124000000E+03  0.17124000000E+03 0.  1.
       11    1    1    2    0    0  0.34933682689E-03 -0.83931441165E-03  0.26872287491E-01  0.26892518346E-01  0.51109989000E-03 0.  1.
     -623    1    1    2    0    0 -0.11235770734E+00  0.38796824441E-01  0.13407987750E-02  0.17124004126E+03  0.17124000000E+03 0.  1.
     -611    1    1    2    0    0  0.43655373693E-01 -0.16745304403E-01  0.21672540201E+01  0.21677583919E+01  0.51109989000E-03 0. -1.
      611    1    1    2    0    0  0.68352996739E-01 -0.21212205600E-01  0.33045328661E+01  0.33053078245E+01  0.51109989000E-03 0. -1.
</event>
<event>
 6   3  0.2312675E+03  0.9118800E+02  0.7818608E-02  0.1180000E+00
       11   -1    0    0    0    0  0.00000000000E+00  0.00000000000E+00  0.54999999763E+01  0.55000000000E+01  0.51109989000E-03 0.  1.
     -623   -1    0    0    0    0  0.00000000000E+00  0.00000000000E+00  0.93234578044E-11  0.17124000000E+03  0.17124000000E+03 0. -1.
       11    1    1    2    0    0  0.43601349540E-01  0.29081572615E-01  0.10380760970E+01  0.10393984126E+01  0.51109989000E-03 0.  1.
     -623    1    1    2    0    0  0.46957505199E-02 -0.10330705761E-02  0.16722405313E-02  0.17124000008E+03  0.17124000000E+03 0. -1.
     -611    1    1    2    0    0 -0.13079041792E-01 -0.79215039354E-02  0.12089288144E+01  0.12090256205E+01  0.51109989000E-03 0.  1.
      611    1    1    2    0    0 -0.35218058297E-01 -0.20126998120E-01  0.32513228269E+01  0.32515758939E+01  0.51109989000E-03 0.  1.
</event>
<event>
 6   3  0.2312675E+03  0.9118800E+02  0.7818608E-02  0.1180000E+00
       11   -1    0    0    0    0  0.00000000000E+00  0.00000000000E+00  0.54999999763E+01  0.55000000000E+01  0.51109989000E-03 0.  1.
     -623   -1    0    0    0    0  0.00000000000E+00  0.00000000000E+00  0.93234578044E-11  0.17124000000E+03  0.17124000000E+03 0. -1.
       11    1    1    2    0    0  0.26605930380E-01 -0.69690766593E-02  0.22799332285E+00  0.22964681589E+00  0.51109989000E-03 0.  1.
     -623    1    1    2    0    0 -0.26727526187E-02  0.70118675816E-02  0.30537766083E-02  0.17124000019E+03  0.17124000000E+03 0. -1.
     -611    1    1    2    0    0  0.33335064520E-01 -0.23728619156E-01  0.86829334569E+00  0.86925707894E+00  0.51109989000E-03 0. -1.
      611    1    1    2    0    0 -0.57268242281E-01  0.23685828233E-01  0.44006595312E+01  0.44010959136E+01  0.51109989000E-03 0.  1.
</event>
<event>
 6   3  0.2312675E+03  0.9118800E+02  0.7818608E-02  0.1180000E+00
       11   -1    0    0    0    0  0.00000000000E+00  0.00000000000E+00  0.54999999763E+01  0.55000000000E+01  0.51109989000E-03 0. -1.
     -623   -1    0    0    0    0  0.00000000000E+00  0.00000000000E+00  0.93234578044E-11  0.17124000000E+03  0.17124000000E+03 0.  1.
       11    1    1    2    0    0 -0.21048928078E-02  0.13480125626E-02  0.44053063545E-01  0.44126877777E-01  0.51109989000E-03 0. -1.
     -623    1    1    2    0    0 -0.61206034217E-01  0.15061908556E-01  0.47770246550E-03  0.17124001160E+03  0.17124000000E+03 0.  1.
     -611    1    1    2    0    0  0.10105165123E-01 -0.22851654606E-02  0.88253146717E+00  0.88259242468E+00  0.51109989000E-03 0. -1.
      611    1    1    2    0    0  0.53205761954E-01 -0.14124755672E-01  0.45729377477E+01  0.45732691007E+01  0.51109989000E-03 0. -1.
</event>
<event>
 6   3  0.2312675E+03  0.9118800E+02  0.7818608E-02  0.1180000E+00
       11   -1    0    0    0    0  0.00000000000E+00  0.00000000000E+00  0.54999999763E+01  0.55000000000E+01  0.51109989000E-03 0.  1.
     -623   -1    0    0    0    0  0.00000000000E+00  0.00000000000E+00  0.93234578044E-11  0.17124000000E+03  0.17124000000E+03 0. -1.
       11    1    1    2    0    0 -0.54552293444E-02  0.31132060263E-04  0.13265904902E-01  0.14352907453E-01  0.51109989000E-03 0.  1.
     -623    1    1    2    0    0  0.55440551542E-03  0.72861229614E-02  0.41506625686E-02  0.17124000021E+03  0.17124000000E+03 0. -1.
     -611    1    1    2    0    0 -0.64959766461E-01 -0.51531499115E-01  0.39207057497E+01  0.39215824744E+01  0.51109989000E-03 0.  1.
      611    1    1    2    0    0  0.69860590290E-01  0.44214244093E-01  0.15618776591E+01  0.15640644119E+01  0.51109989000E-03 0. -1.
</event>
<event>
 6   3  0.2312675E+03  0.9118800E+02  0.7818608E-02  0.1180000E+00
       11   -1    0    0    0    0  0.00000000000E+00  0.00000000000E+00  0.54999999763E+01  0.55000000000E+01  0.51109989000E-03 0. -1.
     -623   -1    0    0    0    0  0.00000000000E+00  0.00000000000E+00  0.93234578044E-11  0.17124000000E+03  0.17124000000E+03 0.  1.
       11    1    1    2    0    0  0.19579262596E-01 -0.24720847774E-02  0.70658460007E+00  0.70686032355E+00  0.51109989000E-03 0. -1.
     -623    1    1    2    0    0  0.68788033402E-02 -0.19328401958E-01  0.31253956756E-02  0.17124000126E+03  0.17124000000E+03 0.  1.
     -611    1    1    2    0    0 -0.54533982884E-01 -0.37184040954E-01  0.38570448849E+01  0.38576096373E+01  0.51109989000E-03 0. -1.
      611    1    1    2    0    0  0.28075916948E-01  0.58984527690E-01  0.93324509566E+00  0.93552878172E+00  0.51109989000E-03 0.  1.
</event>
<event>
 6   3  0.2312675E+03  0.9118800E+02  0.7818608E-02  0.1180000E+00
       11   -1    0    0    0    0  0.00000000000E+00  0.00000000000E+00  0.54999999763E+01  0.55000000000E+01  0.51109989000E-03 0. -1.
     -623   -1    0    0    0    0  0.00000000000E+00  0.00000000000E+00  0.93234578044E-11  0.17124000000E+03  0.17124000000E+03 0.  1.
       11    1    1    2    0    0 -0.16768520158E-01  0.40348904268E-02  0.28833606107E+00  0.28885188063E+00  0.51109989000E-03 0. -1.
     -623    1    1    2    0    0 -0.60566622095E-02  0.28079483060E-02  0.17447879565E-02  0.17124000014E+03  0.17124000000E+03 0.  1.
     -611    1    1    2    0    0  0.52827554619E-01 -0.41359109826E-01  0.28988274266E+01  0.28996037724E+01  0.51109989000E-03 0.  1.
      611    1    1    2    0    0 -0.30002372251E-01  0.34516271093E-01  0.23110917007E+01  0.23115442080E+01  0.51109989000E-03 0. -1.
</event>
<event>
 6   3  0.2312675E+03  0.9118800E+02  0.7818608E-02  0.1180000E+00
       11   -1    0    0    0    0  0.00000000000E+00  0.00000000000E+00  0.54999999763E+01  0.55000000000E+01  0.51109989000E-03 0. -1.
     -623   -1    0    0    0    0  0.00000000000E+00  0.00000000000E+00  0.93234578044E-11  0.17124000000E+03  0.17124000000E+03 0.  1.
       11    1    1    2    0    0  0.63656590812E-02  0.62535428430E-03  0.50607657736E+00  0.50611725525E+00  0.51109989000E-03 0. -1.
     -623    1    1    2    0    0 -0.64024977992E-01  0.54039687147E-02  0.38935301594E-03  0.17124001205E+03  0.17124000000E+03 0.  1.
     -611    1    1    2    0    0  0.36215048643E-01 -0.38790714216E-02  0.31240871284E+01  0.31242994773E+01  0.51109989000E-03 0. -1.
      611    1    1    2    0    0  0.21444271069E-01 -0.21502516441E-02  0.18694469863E+01  0.18695712813E+01  0.51109989000E-03 0. -1.
</event>
<event>
 6   3  0.2312675E+03  0.9118800E+02  0.7818608E-02  0.1180000E+00
       11   -1    0    0    0    0  0.00000000000E+00  0.00000000000E+00  0.54999999763E+01  0.55000000000E+01  0.51109989000E-03 0.  1.
     -623   -1    0    0    0    0  0.00000000000E+00  0.00000000000E+00  0.93234578044E-11  0.17124000000E+03  0.17124000000E+03 0.  1.
       11    1    1    2    0    0  0.14541360731E-01 -0.27255949279E-01  0.49287128301E+00  0.49383873965E+00  0.51109989000E-03 0.  1.
     -623    1    1    2    0    0 -0.14042706698E-01 -0.15793178930E-02  0.21842343577E-02  0.17124000060E+03  0.17124000000E+03 0.  1.
     -611    1    1    2    0    0  0.31335189138E-01  0.58741557904E-01  0.31163483973E+01  0.31170595213E+01  0.51109989000E-03 0. -1.
      611    1    1    2    0    0 -0.31833843171E-01 -0.29906290732E-01  0.18885960616E+01  0.18891011421E+01  0.51109989000E-03 0.  1.
</event>
<event>
 6   3  0.2312675E+03  0.9118800E+02  0.7818608E-02  0.1180000E+00
       11   -1    0    0    0    0  0.00000000000E+00  0.00000000000E+00  0.54999999763E+01  0.55000000000E+01  0.51109989000E-03 0.  1.
     -623   -1    0    0    0    0  0.00000000000E+00  0.00000000000E+00  0.93234578044E-11  0.17124000000E+03  0.17124000000E+03 0. -1.
       11    1    1    2    0    0 -0.74387020522E-02  0.96428514295E-02  0.83934174264E+00  0.83943024786E+00  0.51109989000E-03 0.  1.
     -623    1    1    2    0    0 -0.13404442355E-02 -0.23539358564E-02  0.58248763112E-03  0.17124000002E+03  0.17124000000E+03 0. -1.
     -611    1    1    2    0    0 -0.28727217985E-01  0.26941206219E-02  0.18206613508E+01  0.18208900370E+01  0.51109989000E-03 0. -1.
      611    1    1    2    0    0  0.37506364273E-01 -0.99830361951E-02  0.28394143951E+01  0.28396796926E+01  0.51109989000E-03 0.  1.
</event>
<event>
 6   3  0.2312675E+03  0.9118800E+02  0.7818608E-02  0.1180000E+00
       11   -1    0    0    0    0  0.00000000000E+00  0.00000000000E+00  0.54999999763E+01  0.55000000000E+01  0.51109989000E-03 0.  1.
     -623   -1    0    0    0    0  0.00000000000E+00  0.00000000000E+00  0.93234578044E-11  0.17124000000E+03  0.17124000000E+03 0.  1.
       11    1    1    2    0    0  0.29944284968E-04 -0.39457975400E-03  0.26079032118E-02  0.26868144897E-02  0.51109989000E-03 0. -1.
     -623    1    1    2    0    0  0.20041493685E-02 -0.68678766165E-03  0.56058881425E-03  0.17124000001E+03  0.17124000000E+03 0.  1.
     -611    1    1    2    0    0  0.29903004956E-01  0.19660330681E-01  0.26263445724E+01  0.26265884323E+01  0.51109989000E-03 0.  1.
      611    1    1    2    0    0 -0.31937098609E-01 -0.18578963265E-01  0.28704869120E+01  0.28707247394E+01  0.51109989000E-03 0. -1.
</event>
<event>
 6   3  0.2312675E+03  0.9118800E+02  0.7818608E-02  0.1180000E+00
       11   -1    0    0    0    0  0.00000000000E+00  0.00000000000E+00  0.54999999763E+01  0.55000000000E+01  0.51109989000E-03 0. -1.
     -623   -1    0    0    0    0  0.00000000000E+00  0.00000000000E+00  0.93234578044E-11  0.17124000000E+03  0.17124000000E+03 0.  1.
       11    1    1    2    0    0 -0.51492295248E-01  0.30277918484E-01  0.28577254893E+00  0.29194934451E+00  0.51109989000E-03 0. -1.
     -623    1    1    2    0    0 -0.25890490221E-01  0.37662709850E-02  0.68654757670E-02  0.17124000214E+03  0.17124000000E+03 0.  1.
     -611    1    1    2    0    0  0.31786432087E-01 -0.13840215648E-01  0.21848181118E+01  0.21850932181E+01  0.51109989000E-03 0. -1.
      611    1    1    2    0    0  0.45596353419E-01 -0.20203973837E-01  0.30225438422E+01  0.30229553035E+01  0.51109989000E-03 0.  1.
</event>
<event>
 6   3  0.2312675E+03  0.9118800E+02  0.7818608E-02  0.1180000E+00
       11   -1    0    0    0    0  0.00000000000E+00  0.00000000000E+00  0.54999999763E+01  0.55000000000E+01  0.51109989000E-03 0. -1.
     -623   -1    0    0    0    0  0.00000000000E+00  0.00000000000E+00  0.93234578044E-11  0.17124000000E+03  0.17124000000E+03 0.  1.
       11    1    1    2    0    0 -0.34632301509E-01  0.13541525366E-01  0.71968630076E+00  0.72064651664E+00  0.51109989000E-03 0. -1.
     -623    1    1    2    0    0 -0.20364439909E-04 -0.51976731583E-02  0.18587844878E-02  0.17124000009E+03  0.17124000000E+03 0.  1.
     -611    1    1    2    0    0  0.59564220589E-01 -0.11734202141E-01  0.24083257085E+01  0.24090908176E+01  0.51109989000E-03 0. -1.
      611    1    1    2    0    0 -0.24911554640E-01  0.33903499331E-02  0.23701291824E+01  0.23702625767E+01  0.51109989000E-03 0.  1.
</event>
<event>
 6   3  0.2312675E+03  0.9118800E+02  0.7818608E-02  0.1180000E+00
       11   -1    0    0    0    0  0.00000000000E+00  0.00000000000E+00  0.54999999763E+01  0.55000000000E+01  0.51109989000E-03 0.  1.
     -623   -1    0    0    0    0  0.00000000000E+00  0.00000000000E+00  0.93234578044E-11  0.17124000000E+03  0.17124000000E+03 0.  1.
       11    1    1    2    0    0 -0.71915583147E-01 -0.10768144219E-01  0.10759901812E+01  0.10784446835E+01  0.51109989000E-03 0.  1.
     -623    1    1    2    0    0 -0.55979593571E-03  0.84642114422E-02  0.30545270842E-02  0.17124000024E+03  0.17124000000E+03 0.  1.
     -611    1    1    2    0    0  0.22459111038E-01 -0.23753916899E-02  0.13706491379E+01  0.13708352835E+01  0.51109989000E-03 0. -1.
      611    1    1    2    0    0  0.50016268044E-01  0.46793244664E-02  0.30503061300E+01  0.30507197956E+01  0.51109989000E-03 0.  1.
</event>
<event>
 6   3  0.2367631E+03  0.9118800E+02  0.7818608E-02  0.1180000E+00
       11   -1    0    0    0    0  0.00000000000E+00  0.00000000000E+00  0.54999999763E+01  0.55000000000E+01  0.51109989000E-03 0.  1.
     -623   -1    0    0    0    0  0.00000000000E+00  0.00000000000E+00  0.93234578044E-11  0.17124000000E+03  0.17124000000E+03 0. -1.
       11    1    1    2    0    0 -0.47609194856E-02 -0.60020145226E-02  0.77695526331E-02  0.10923264342E-01  0.51109989000E-03 0.  1.
     -623    1    1    2    0    0  0.17080439317E-03  0.66251222867E-02  0.52937421262E-02  0.17124000021E+03  0.17124000000E+03 0. -1.
     -611    1    1    2    0    0  0.53669664552E-01  0.35310859879E-01  0.12078001725E+01  0.12095076716E+01  0.51109989000E-03 0. -1.
      611    1    1    2    0    0 -0.49079549459E-01 -0.35933967643E-01  0.42791365090E+01  0.42795688540E+01  0.51109989000E-03 0.  1.
</event>
<event>
 6   3  0.2312675E+03  0.9118800E+02  0.7818608E-02  0.1180000E+00
       11   -1    0    0    0    0  0.00000000000E+00  0.00000000000E+00  0.54999999763E+01  0.55000000000E+01  0.51109989000E-03 0. -1.
     -623   -1    0    0    0    0  0.00000000000E+00  0.00000000000E+00  0.93234578044E-11  0.17124000000E+03  0.17124000000E+03 0.  1.
       11    1    1    2    0    0 -0.53305231425E-01 -0.36007162734E-02  0.91772146650E+00  0.91927545608E+00  0.51109989000E-03 0. -1.
     -623    1    1    2    0    0 -0.68051876186E-02  0.11121740925E-02  0.19493372244E-02  0.17124000015E+03  0.17124000000E+03 0.  1.
     -611    1    1    2    0    0  0.38960550605E-01  0.16137586572E-02  0.29608786222E+01  0.29611354251E+01  0.51109989000E-03 0. -1.
      611    1    1    2    0    0  0.21149868393E-01  0.87478352184E-03  0.16194505468E+01  0.16195889654E+01  0.51109989000E-03 0. -1.
</event>
<event>
 6   3  0.2312675E+03  0.9118800E+02  0.7818608E-02  0.1180000E+00
       11   -1    0    0    0    0  0.00000000000E+00  0.00000000000E+00  0.54999999763E+01  0.55000000000E+01  0.51109989000E-03 0.  1.
     -623   -1    0    0    0    0  0.00000000000E+00  0.00000000000E+00  0.93234578044E-11  0.17124000000E+03  0.17124000000E+03 0. -1.
       11    1    1    2    0    0  0.67842861082E-02 -0.71769160165E-02  0.32777894730E-01  0.34237205895E-01  0.51109989000E-03 0.  1.
     -623    1    1    2    0    0  0.55268785004E-02  0.55921561262E-02  0.29935382607E-02  0.17124000021E+03  0.17124000000E+03 0. -1.
     -611    1    1    2    0    0  0.40652685124E-01 -0.32055526958E-01  0.37982615890E+01  0.37986144260E+01  0.51109989000E-03 0.  1.
      611    1    1    2    0    0 -0.52963849733E-01  0.33640286849E-01  0.16659669542E+01  0.16671481614E+01  0.51109989000E-03 0. -1.
</event>
<event>
 6   3  0.2312675E+03  0.9118800E+02  0.7818608E-02  0.1180000E+00
       11   -1    0    0    0    0  0.00000000000E+00  0.00000000000E+00  0.54999999763E+01  0.55000000000E+01  0.51109989000E-03 0.  1.
     -623   -1    0    0    0    0  0.00000000000E+00  0.00000000000E+00  0.93234578044E-11  0.17124000000E+03  0.17124000000E+03 0. -1.
       11    1    1    2    0    0  0.45049905480E-01  0.35333193591E-01  0.42723160801E-01  0.71438492740E-01  0.51109989000E-03 0.  1.
     -623    1    1    2    0    0  0.18014632993E-01  0.59574195532E-02  0.29260994312E-01  0.17124000355E+03  0.17124000000E+03 0. -1.
     -611    1    1    2    0    0 -0.32365989269E-01 -0.27665788244E-01  0.27086656174E+01  0.27090003029E+01  0.51109989000E-03 0.  1.
      611    1    1    2    0    0 -0.30698549204E-01 -0.13624824901E-01  0.27193502038E+01  0.27195576532E+01  0.51109989000E-03 0. -1.
</event>
<event>
 6   3  0.2312675E+03  0.9118800E+02  0.7818608E-02  0.1180000E+00
       11   -1    0    0    0    0  0.00000000000E+00  0.00000000000E+00  0.54999999763E+01  0.55000000000E+01  0.51109989000E-03 0. -1.
     -623   -1    0    0    0    0  0.00000000000E+00  0.00000000000E+00  0.93234578044E-11  0.17124000000E+03  0.17124000000E+03 0.  1.
       11    1    1    2    0    0  0.56646418423E-01  0.85141715982E-01  0.70882079464E+00  0.71615997420E+00  0.51109989000E-03 0. -1.
     -623    1    1    2    0    0  0.18646411696E-01 -0.11640239889E-02  0.86707324710E-02  0.17124000124E+03  0.17124000000E+03 0.  1.
     -611    1    1    2    0    0 -0.54512348423E-01 -0.61552414723E-01  0.34553816166E+01  0.34563597431E+01  0.51109989000E-03 0. -1.
      611    1    1    2    0    0 -0.20780481728E-01 -0.22425277304E-01  0.13271268345E+01  0.13274790459E+01  0.51109989000E-03 0. -1.
</event>
<event>
 6   3  0.2312675E+03  0.9118800E+02  0.7818608E-02  0.1180000E+00
       11   -1    0    0    0    0  0.00000000000E+00  0.00000000000E+00  0.54999999763E+01  0.55000000000E+01  0.51109989000E-03 0.  1.
     -623   -1    0    0    0    0  0.00000000000E+00  0.00000000000E+00  0.93234578044E-11  0.17124000000E+03  0.17124000000E+03 0. -1.
       11    1    1    2    0    0 -0.11776748878E-02 -0.73862691900E-02  0.19104665358E-02  0.77366010735E-02  0.51109989000E-03 0.  1.
     -623    1    1    2    0    0  0.13445046763E-01  0.10470592514E-01  0.70909073065E-02  0.17124000099E+03  0.17124000000E+03 0. -1.
     -611    1    1    2    0    0 -0.42375259911E-01  0.44534321476E-01  0.28671209098E+01  0.28677798976E+01  0.51109989000E-03 0. -1.
      611    1    1    2    0    0  0.30107888036E-01 -0.47618644799E-01  0.26238776926E+01  0.26244825066E+01  0.51109989000E-03 0.  1.
</event>
<event>
 6   3  0.2312675E+03  0.9118800E+02  0.7818608E-02  0.1180000E+00
       11   -1    0    0    0    0  0.00000000000E+00  0.00000000000E+00  0.54999999763E+01  0.55000000000E+01  0.51109989000E-03 0.  1.
     -623   -1    0    0    0    0  0.00000000000E+00  0.00000000000E+00  0.93234578044E-11  0.17124000000E+03  0.17124000000E+03 0. -1.
       11    1    1    2    0    0  0.51605051153E-02  0.20068882751E-02  0.65066946805E-01  0.65304113218E-01  0.51109989000E-03 0.  1.
     -623    1    1    2    0    0 -0.59597051680E-02 -0.37828954064E-03  0.70449583246E-03  0.17124000011E+03  0.17124000000E+03 0. -1.
     -611    1    1    2    0    0 -0.32478448387E-01 -0.14507871698E-01  0.26943708171E+01  0.26946056649E+01  0.51109989000E-03 0.  1.
      611    1    1    2    0    0  0.33277648440E-01  0.12879272964E-01  0.27398577166E+01  0.27400901164E+01  0.51109989000E-03 0. -1.
</event>
<event>
 6   3  0.2312675E+03  0.9118800E+02  0.7818608E-02  0.1180000E+00
       11   -1    0    0    0    0  0.00000000000E+00  0.00000000000E+00  0.54999999763E+01  0.55000000000E+01  0.51109989000E-03 0. -1.
     -623   -1    0    0    0    0  0.00000000000E+00  0.00000000000E+00  0.93234578044E-11  0.17124000000E+03  0.17124000000E+03 0. -1.
       11    1    1    2    0    0 -0.58289734616E-01 -0.41547923025E-01  0.10719969505E+01  0.10743843103E+01  0.51109989000E-03 0. -1.
     -623    1    1    2    0    0 -0.39978467083E-02 -0.20879463102E-02  0.30479803904E-02  0.17124000009E+03  0.17124000000E+03 0. -1.
     -611    1    1    2    0    0  0.38680960230E-01  0.22820774161E-01  0.25076055306E+01  0.25080077279E+01  0.51109989000E-03 0. -1.
      611    1    1    2    0    0  0.23606621096E-01  0.20815095175E-01  0.19173495148E+01  0.19176078754E+01  0.51109989000E-03 0.  1.
</event>
<event>
 6   3  0.2312675E+03  0.9118800E+02  0.7818608E-02  0.1180000E+00
       11   -1    0    0    0    0  0.00000000000E+00  0.00000000000E+00  0.54999999763E+01  0.55000000000E+01  0.51109989000E-03 0.  1.
     -623   -1    0    0    0    0  0.00000000000E+00  0.00000000000E+00  0.93234578044E-11  0.17124000000E+03  0.17124000000E+03 0.  1.
       11    1    1    2    0    0  0.12435741616E-01 -0.39953075859E-03  0.72119516107E+00  0.72130266107E+00  0.51109989000E-03 0.  1.
     -623    1    1    2    0    0 -0.83362827901E-01  0.68955404098E-03  0.65460860361E-03  0.17124002029E+03  0.17124000000E+03 0.  1.
     -611    1    1    2    0    0  0.45452888636E-01 -0.87978694669E-03  0.30303191452E+01  0.30306601792E+01  0.51109989000E-03 0.  1.
      611    1    1    2    0    0  0.25474197204E-01  0.58976366807E-03  0.17478310321E+01  0.17480168365E+01  0.51109989000E-03 0.  1.
</event>
<event>
 6   3  0.2312675E+03  0.9118800E+02  0.7818608E-02  0.1180000E+00
       11   -1    0    0    0    0  0.00000000000E+00  0.00000000000E+00  0.54999999763E+01  0.55000000000E+01  0.51109989000E-03 0. -1.
     -623   -1    0    0    0    0  0.00000000000E+00  0.00000000000E+00  0.93234578044E-11  0.17124000000E+03  0.17124000000E+03 0.  1.
       11    1    1    2    0    0 -0.20687685268E-02  0.71931194955E-02  0.58801777714E-02  0.95319717276E-02  0.51109989000E-03 0. -1.
     -623    1    1    2    0    0 -0.10219672284E-01  0.42721547694E-02  0.74938207723E-02  0.17124000052E+03  0.17124000000E+03 0.  1.
     -611    1    1    2    0    0 -0.53107383799E-01  0.44806685862E-01  0.79022323598E+00  0.79327237266E+00  0.51109989000E-03 0.  1.
      611    1    1    2    0    0  0.65395824610E-01 -0.56271960127E-01  0.46964027417E+01  0.46971951334E+01  0.51109989000E-03 0. -1.
</event>
<event>
 6   3  0.2312675E+03  0.9118800E+02  0.7818608E-02  0.1180000E+00
       11   -1    0    0    0    0  0.00000000000E+00  0.00000000000E+00  0.54999999763E+01  0.55000000000E+01  0.51109989000E-03 0.  1.
     -623   -1    0    0    0    0  0.00000000000E+00  0.00000000000E+00  0.93234578044E-11  0.17124000000E+03  0.17124000000E+03 0. -1.
       11    1    1    2    0    0  0.88582569408E-01  0.63388393668E-02  0.40614762902E+00  0.41574416444E+00  0.51109989000E-03 0.  1.
     -623    1    1    2    0    0 -0.14103525717E-01  0.79993724724E-02  0.10738342853E-01  0.17124000110E+03  0.17124000000E+03 0. -1.
     -611    1    1    2    0    0 -0.17569079890E-01  0.30004307685E-01  0.13805703429E+01  0.13810082056E+01  0.51109989000E-03 0. -1.
      611    1    1    2    0    0 -0.56909963801E-01 -0.44342519525E-01  0.37025436615E+01  0.37032465256E+01  0.51109989000E-03 0.  1.
</event>
<event>
 6   3  0.2312675E+03  0.9118800E+02  0.7818608E-02  0.1180000E+00
       11   -1    0    0    0    0  0.00000000000E+00  0.00000000000E+00  0.54999999763E+01  0.55000000000E+01  0.51109989000E-03 0. -1.
     -623   -1    0    0    0    0  0.00000000000E+00  0.00000000000E+00  0.93234578044E-11  0.17124000000E+03  0.17124000000E+03 0. -1.
       11    1    1    2    0    0 -0.12450608193E-01 -0.28739916427E-01  0.98193615482E+00  0.98243568431E+00  0.51109989000E-03 0. -1.
     -623    1    1    2    0    0  0.28632474802E-03  0.92069517463E-03  0.14390528651E-02  0.17124000001E+03  0.17124000000E+03 0. -1.
     -611    1    1    2    0    0  0.31653829295E-01 -0.17743415117E-01  0.27664116848E+01  0.27666497185E+01  0.51109989000E-03 0. -1.
      611    1    1    2    0    0 -0.19489545850E-01  0.45562636370E-01  0.17502130836E+01  0.17509145883E+01  0.51109989000E-03 0.  1.
</event>
<event>
 6   3  0.2312675E+03  0.9118800E+02  0.7818608E-02  0.1180000E+00
       11   -1    0    0    0    0  0.00000000000E+00  0.00000000000E+00  0.54999999763E+01  0.55000000000E+01  0.51109989000E-03 0.  1.
     -623   -1    0    0    0    0  0.00000000000E+00  0.00000000000E+00  0.93234578044E-11  0.17124000000E+03  0.17124000000E+03 0. -1.
       11    1    1    2    0    0 -0.17255316334E-02 -0.13486614283E-02  0.31731074452E-02  0.38892391315E-02  0.51109989000E-03 0.  1.
     -623    1    1    2    0    0  0.38478426399E-02 -0.18567505930E-04  0.12104820327E-02  0.17124000005E+03  0.17124000000E+03 0. -1.
     -611    1    1    2    0    0 -0.37542877003E-01  0.35708862321E-02  0.31507042171E+01  0.31509299490E+01  0.51109989000E-03 0.  1.
      611    1    1    2    0    0  0.35420565997E-01 -0.22036572978E-02  0.23449121697E+01  0.23451807643E+01  0.51109989000E-03 0. -1.
</event>
<event>
 6   3  0.2312675E+03  0.9118800E+02  0.7818608E-02  0.1180000E+00
       11   -1    0    0    0    0  0.00000000000E+00  0.00000000000E+00  0.54999999763E+01  0.55000000000E+01  0.51109989000E-03 0.  1.
     -623   -1    0    0    0    0  0.00000000000E+00  0.00000000000E+00  0.93234578044E-11  0.17124000000E+03  0.17124000000E+03 0.  1.
       11    1    1    2    0    0 -0.48569018134E-01 -0.23764338249E-01  0.10784546800E+01  0.10798094514E+01  0.51109989000E-03 0.  1.
     -623    1    1    2    0    0 -0.81968871505E-02 -0.13453094079E-02  0.17925508320E-02  0.17124000021E+03  0.17124000000E+03 0.  1.
     -611    1    1    2    0    0  0.10694218838E-01  0.63414175792E-02  0.89709534223E+00  0.89718163945E+00  0.51109989000E-03 0.  1.
      611    1    1    2    0    0  0.46071686443E-01  0.18768230075E-01  0.35226574027E+01  0.35230086978E+01  0.51109989000E-03 0.  1.
</event>
<event>
 6   3  0.2312675E+03  0.9118800E+02  0.7818608E-02  0.1180000E+00
       11   -1    0    0    0    0  0.00000000000E+00  0.00000000000E+00  0.54999999763E+01  0.55000000000E+01  0.51109989000E-03 0. -1.
     -623   -1    0    0    0    0  0.00000000000E+00  0.00000000000E+00  0.93234578044E-11  0.17124000000E+03  0.17124000000E+03 0. -1.
       11    1    1    2    0    0  0.27254080930E-01 -0.42751658391E-01  0.73748953294E+00  0.73923038469E+00  0.51109989000E-03 0. -1.
     -623    1    1    2    0    0 -0.14145481384E-01  0.19162808624E-01  0.25504796174E-02  0.17124000168E+03  0.17124000000E+03 0. -1.
     -611    1    1    2    0    0  0.35008593730E-01  0.56378029830E-02  0.16213633586E+01  0.16217511487E+01  0.51109989000E-03 0. -1.
      611    1    1    2    0    0 -0.48117193276E-01  0.17951046785E-01  0.31385966051E+01  0.31390167911E+01  0.51109989000E-03 0.  1.
</event>
<event>
 6   3  0.2312675E+03  0.9118800E+02  0.7818608E-02  0.1180000E+00
       11   -1    0    0    0    0  0.00000000000E+00  0.00000000000E+00  0.54999999763E+01  0.55000000000E+01  0.51109989000E-03 0. -1.
     -623   -1    0    0    0    0  0.00000000000E+00  0.00000000000E+00  0.93234578044E-11  0.17124000000E+03  0.17124000000E+03 0. -1.
       11    1    1    2    0    0  0.17407127375E-01 -0.56671135163E-02  0.27757580090E-01  0.33254604713E-01  0.51109989000E-03 0. -1.
     -623    1    1    2    0    0 -0.39381479890E-02 -0.16073143271E-01  0.83226948030E-02  0.17124000100E+03  0.17124000000E+03 0. -1.
     -611    1    1    2    0    0  0.26408179286E-01 -0.66754776866E-01  0.16059665067E+01  0.16075703015E+01  0.51109989000E-03 0.  1.
      611    1    1    2    0    0 -0.39877158672E-01  0.88495033653E-01  0.38579531946E+01  0.38591740920E+01  0.51109989000E-03 0. -1.
</event>
<event>
 6   3  0.2312675E+03  0.9118800E+02  0.7818608E-02  0.1180000E+00
       11   -1    0    0    0    0  0.00000000000E+00  0.00000000000E+00  0.54999999763E+01  0.55000000000E+01  0.51109989000E-03 0. -1.
     -623   -1    0    0    0    0  0.00000000000E+00  0.00000000000E+00  0.93234578044E-11  0.17124000000E+03  0.17124000000E+03 0.  1.
       11    1    1    2    0    0  0.86023290225E-02 -0.39727081406E-01  0.14210935919E+00  0.14780924279E+00  0.51109989000E-03 0. -1.
     -623    1    1    2    0    0  0.70515142135E-01  0.70544302243E-01  0.75936383864E-02  0.17124002922E+03  0.17124000000E+03 0.  1.
     -611    1    1    2    0    0 -0.30725428262E-01  0.42551955861E-01  0.22981034953E+01  0.22987028205E+01  0.51109989000E-03 0.  1.
      611    1    1    2    0    0 -0.48392042895E-01 -0.73369176698E-01  0.30521934834E+01  0.30534587188E+01  0.51109989000E-03 0. -1.
</event>
<event>
 6   3  0.2312675E+03  0.9118800E+02  0.7818608E-02  0.1180000E+00
       11   -1    0    0    0    0  0.00000000000E+00  0.00000000000E+00  0.54999999763E+01  0.55000000000E+01  0.51109989000E-03 0.  1.
     -623   -1    0    0    0    0  0.00000000000E+00  0.00000000000E+00  0.93234578044E-11  0.17124000000E+03  0.17124000000E+03 0. -1.
       11    1    1    2    0    0  0.46616939244E-02  0.18060602372E-01  0.24059156234E+00  0.24131406474E+00  0.51109989000E-03 0.  1.
     -623    1    1    2    0    0  0.21929769335E-02  0.20944939772E-02  0.15266602134E-02  0.17124000003E+03  0.17124000000E+03 0. -1.
     -611    1    1    2    0    0 -0.42145913613E-01  0.22078928107E-02  0.37107739855E+01  0.37110140104E+01  0.51109989000E-03 0.  1.
      611    1    1    2    0    0  0.35291242755E-01 -0.22362989160E-01  0.15471077682E+01  0.15476718912E+01  0.51109989000E-03 0. -1.
</event>
<event>
 6   3  0.2312675E+03  0.9118800E+02  0.7818608E-02  0.1180000E+00
       11   -1    0    0    0    0  0.00000000000E+00  0.00000000000E+00  0.54999999763E+01  0.55000000000E+01  0.51109989000E-03 0.  1.
     -623   -1    0    0    0    0  0.00000000000E+00  0.00000000000E+00  0.93234578044E-11  0.17124000000E+03  0.17124000000E+03 0.  1.
       11    1    1    2    0    0 -0.99601808987E-02  0.18659517959E-01  0.70196376700E+00  0.70228254586E+00  0.51109989000E-03 0.  1.
     -623    1    1    2    0    0  0.17235687413E-02 -0.67711336780E-02  0.12424120660E-02  0.17124000015E+03  0.17124000000E+03 0.  1.
     -611    1    1    2    0    0  0.46362539464E-01  0.92300531694E-02  0.31152841721E+01  0.31156428571E+01  0.51109989000E-03 0.  1.
      611    1    1    2    0    0 -0.38125927307E-01 -0.21118437451E-01  0.16815096249E+01  0.16820744498E+01  0.51109989000E-03 0. -1.
</event>
<event>
 6   3  0.2312675E+03  0.9118800E+02  0.7818608E-02  0.1180000E+00
       11   -1    0    0    0    0  0.00000000000E+00  0.00000000000E+00  0.54999999763E+01  0.55000000000E+01  0.51109989000E-03 0. -1.
     -623   -1    0    0    0    0  0.00000000000E+00  0.00000000000E+00  0.93234578044E-11  0.17124000000E+03  0.17124000000E+03 0.  1.
       11    1    1    2    0    0  0.61516479200E-03 -0.48084987169E-03  0.70803233193E-02  0.71415576539E-02  0.51109989000E-03 0. -1.
     -623    1    1    2    0    0  0.53123430264E-03 -0.75656565296E-03  0.60698140548E-03  0.17124000000E+03  0.17124000000E+03 0.  1.
     -611    1    1    2    0    0  0.37573613214E-01  0.61218689756E-02  0.29644173244E+01  0.29646617999E+01  0.51109989000E-03 0. -1.
      611    1    1    2    0    0 -0.38720012309E-01 -0.48844534509E-02  0.25278953474E+01  0.25281966391E+01  0.51109989000E-03 0.  1.
</event>
<event>
 6   3  0.2312675E+03  0.9118800E+02  0.7818608E-02  0.1180000E+00
       11   -1    0    0    0    0  0.00000000000E+00  0.00000000000E+00  0.54999999763E+01  0.55000000000E+01  0.51109989000E-03 0.  1.
     -623   -1    0    0    0    0  0.00000000000E+00  0.00000000000E+00  0.93234578044E-11  0.17124000000E+03  0.17124000000E+03 0. -1.
       11    1    1    2    0    0  0.21948445494E-02 -0.62297931854E-02  0.12168469190E+00  0.12186489704E+00  0.51109989000E-03 0.  1.
     -623    1    1    2    0    0  0.63612815516E-03  0.10127360788E-02  0.11816902269E-02  0.17124000001E+03  0.17124000000E+03 0. -1.
     -611    1    1    2    0    0 -0.47402816129E-01 -0.21241962777E-01  0.27082590756E+01  0.27087572297E+01  0.51109989000E-03 0. -1.
      611    1    1    2    0    0  0.44571843424E-01  0.26459019883E-01  0.26688745185E+01  0.26693778649E+01  0.51109989000E-03 0.  1.
</event>
<event>
 6   3  0.2312675E+03  0.9118800E+02  0.7818608E-02  0.1180000E+00
       11   -1    0    0    0    0  0.00000000000E+00  0.00000000000E+00  0.54999999763E+01  0.55000000000E+01  0.51109989000E-03 0.  1.
     -623   -1    0    0    0    0  0.00000000000E+00  0.00000000000E+00  0.93234578044E-11  0.17124000000E+03  0.17124000000E+03 0.  1.
       11    1    1    2    0    0  0.18028464340E-01  0.78492308598E-01  0.78186885194E+00  0.78600587205E+00  0.51109989000E-03 0.  1.
     -623    1    1    2    0    0 -0.25126029305E-01 -0.96954888411E-03  0.97383176748E-02  0.17124000212E+03  0.17124000000E+03 0.  1.
     -611    1    1    2    0    0  0.35309984117E-01 -0.13822375575E+00  0.21523713824E+01  0.21570942099E+01  0.51109989000E-03 0. -1.
      611    1    1    2    0    0 -0.28212419152E-01  0.60700996038E-01  0.25560214243E+01  0.25568977950E+01  0.51109989000E-03 0.  1.
</event>
<event>
 6   3  0.2312675E+03  0.9118800E+02  0.7818608E-02  0.1180000E+00
       11   -1    0    0    0    0  0.00000000000E+00  0.00000000000E+00  0.54999999763E+01  0.55000000000E+01  0.51109989000E-03 0.  1.
     -623   -1    0    0    0    0  0.00000000000E+00  0.00000000000E+00  0.93234578044E-11  0.17124000000E+03  0.17124000000E+03 0. -1.
       11    1    1    2    0    0 -0.10593770734E-01  0.10133773276E-01  0.73333894245E-01  0.74786647253E-01  0.51109989000E-03 0.  1.
     -623    1    1    2    0    0  0.93084241599E-02 -0.17364423837E-01  0.21905901186E-02  0.17124000115E+03  0.17124000000E+03 0. -1.
     -611    1    1    2    0    0 -0.34372205771E-01  0.31200537030E-01  0.27728087785E+01  0.27731973794E+01  0.51109989000E-03 0. -1.
      611    1    1    2    0    0  0.35657552345E-01 -0.23969886469E-01  0.26516667135E+01  0.26520148259E+01  0.51109989000E-03 0.  1.
</event>
<event>
 6   3  0.2312675E+03  0.9118800E+02  0.7818608E-02  0.1180000E+00
       11   -1    0    0    0    0  0.00000000000E+00  0.00000000000E+00  0.54999999763E+01  0.55000000000E+01  0.51109989000E-03 0.  1.
     -623   -1    0    0    0    0  0.00000000000E+00  0.00000000000E+00  0.93234578044E-11  0.17124000000E+03  0.17124000000E+03 0. -1.
       11    1    1    2    0    0  0.11825880166E-01  0.39500460557E-01  0.92878418080E+00  0.92969911991E+00  0.51109989000E-03 0.  1.
     -623    1    1    2    0    0 -0.44920375361E-02  0.99855200572E-02  0.21526258109E-02  0.17124000036E+03  0.17124000000E+03 0. -1.
     -611    1    1    2    0    0  0.33769047794E-01 -0.66204464817E-02  0.28575396542E+01  0.28577468950E+01  0.51109989000E-03 0. -1.
      611    1    1    2    0    0 -0.41102890424E-01 -0.42865534132E-01  0.17115235153E+01  0.17125536215E+01  0.51109989000E-03 0.  1.
</event>
<event>
 6   3  0.2312675E+03  0.9118800E+02  0.7818608E-02  0.1180000E+00
       11   -1    0    0    0    0  0.00000000000E+00  0.00000000000E+00  0.54999999763E+01  0.55000000000E+01  0.51109989000E-03 0. -1.
     -623   -1    0    0    0    0  0.00000000000E+00  0.00000000000E+00  0.93234578044E-11  0.17124000000E+03  0.17124000000E+03 0.  1.
       11    1    1    2    0    0 -0.28275538955E-01 -0.22881527310E-01  0.70138722144E+00  0.70232995523E+00  0.51109989000E-03 0. -1.
     -623    1    1    2    0    0 -0.24083595968E-01  0.66577953842E-02  0.12579309098E-02  0.17124000183E+03  0.17124000000E+03 0.  1.
     -611    1    1    2    0    0  0.25168562830E-01  0.82517599526E-02  0.22860080183E+01  0.22861615142E+01  0.51109989000E-03 0. -1.
      611    1    1    2    0    0  0.27190572088E-01  0.79719719715E-02  0.25113468051E+01  0.25115067024E+01  0.51109989000E-03 0.  1.
</event>
<event>
 6   3  0.2312675E+03  0.9118800E+02  0.7818608E-02  0.1180000E+00
       11   -1    0    0    0    0  0.00000000000E+00  0.00000000000E+00  0.54999999763E+01  0.55000000000E+01  0.51109989000E-03 0.  1.
     -623   -1    0    0    0    0  0.00000000000E+00  0.00000000000E+00  0.93234578044E-11  0.17124000000E+03  0.17124000000E+03 0.  1.
       11    1    1    2    0    0  0.11217491053E-02 -0.13610422551E-01  0.78645309355E-02  0.15767497995E-01  0.51109989000E-03 0.  1.
     -623    1    1    2    0    0 -0.21670815479E-02  0.18409547671E-01  0.11697991229E-01  0.17124000140E+03  0.17124000000E+03 0.  1.
     -611    1    1    2    0    0  0.57741401835E-01  0.80934228404E-01  0.23376604117E+01  0.23397736815E+01  0.51109989000E-03 0. -1.
      611    1    1    2    0    0 -0.56696069393E-01 -0.85733353524E-01  0.31427770424E+01  0.31444574176E+01  0.51109989000E-03 0.  1.
</event>
<event>
 6   3  0.2312675E+03  0.9118800E+02  0.7818608E-02  0.1180000E+00
       11   -1    0    0    0    0  0.00000000000E+00  0.00000000000E+00  0.54999999763E+01  0.55000000000E+01  0.51109989000E-03 0. -1.
     -623   -1    0    0    0    0  0.00000000000E+00  0.00000000000E+00  0.93234578044E-11  0.17124000000E+03  0.17124000000E+03 0.  1.
       11    1    1    2    0    0 -0.15954719934E-01 -0.25919344442E-01  0.13713317801E+00  0.14047111888E+00  0.51109989000E-03 0. -1.
     -623    1    1    2    0    0 -0.18031969283E-01  0.22863955389E-01  0.44541206110E-02  0.17124000253E+03  0.17124000000E+03 0.  1.
     -611    1    1    2    0    0 -0.27361208505E-01  0.31416203660E-01  0.20317162650E+01  0.20321434143E+01  0.51109989000E-03 0. -1.
      611    1    1    2    0    0  0.61347897722E-01 -0.28360814607E-01  0.33266964126E+01  0.33273829331E+01  0.51109989000E-03 0.  1.
</event>
<event>
 6   3  0.2312675E+03  0.9118800E+02  0.7818608E-02  0.1180000E+00
       11   -1    0    0    0    0  0.00000000000E+00  0.00000000000E+00  0.54999999763E+01  0.55000000000E+01  0.51109989000E-03 0. -1.
     -623   -1    0    0    0    0  0.00000000000E+00  0.00000000000E+00  0.93234578044E-11  0.17124000000E+03  0.17124000000E+03 0.  1.
       11    1    1    2    0    0 -0.60470570936E-02 -0.28535183483E-02  0.16755954099E+00  0.16769368046E+00  0.51109989000E-03 0. -1.
     -623    1    1    2    0    0 -0.18012662150E-01  0.15272405519E-01  0.70797863533E-02  0.17124000177E+03  0.17124000000E+03 0.  1.
     -611    1    1    2    0    0 -0.10543702651E+00 -0.60950221807E-02  0.11258289704E+01  0.11307719698E+01  0.51109989000E-03 0.  1.
      611    1    1    2    0    0  0.12949674575E+00 -0.63238649897E-02  0.41995316785E+01  0.42015325749E+01  0.51109989000E-03 0. -1.
</event>
<event>
 6   3  0.2312675E+03  0.9118800E+02  0.7818608E-02  0.1180000E+00
       11   -1    0    0    0    0  0.00000000000E+00  0.00000000000E+00  0.54999999763E+01  0.55000000000E+01  0.51109989000E-03 0. -1.
     -623   -1    0    0    0    0  0.00000000000E+00  0.00000000000E+00  0.93234578044E-11  0.17124000000E+03  0.17124000000E+03 0. -1.
       11    1    1    2    0    0 -0.20866503017E-02  0.43726674892E-02  0.39563778571E+00  0.39566778114E+00  0.51109989000E-03 0. -1.
     -623    1    1    2    0    0  0.55490943475E-01  0.29305092231E-01  0.43207530372E-03  0.17124001150E+03  0.17124000000E+03 0. -1.
     -611    1    1    2    0    0 -0.30737669743E-01 -0.19538295575E-01  0.29520148101E+01  0.29522395312E+01  0.51109989000E-03 0. -1.
      611    1    1    2    0    0 -0.22666623434E-01 -0.14139464147E-01  0.21519153055E+01  0.21520811889E+01  0.51109989000E-03 0. -1.
</event>
<event>
 6   3  0.2312675E+03  0.9118800E+02  0.7818608E-02  0.1180000E+00
       11   -1    0    0    0    0  0.00000000000E+00  0.00000000000E+00  0.54999999763E+01  0.55000000000E+01  0.51109989000E-03 0. -1.
     -623   -1    0    0    0    0  0.00000000000E+00  0.00000000000E+00  0.93234578044E-11  0.17124000000E+03  0.17124000000E+03 0.  1.
       11    1    1    2    0    0 -0.93193181716E-01  0.16810290640E-01  0.97902873566E+00  0.98359802840E+00  0.51109989000E-03 0. -1.
     -623    1    1    2    0    0  0.68235352063E-02 -0.65408398691E-02  0.54124468917E-02  0.17124000035E+03  0.17124000000E+03 0.  1.
     -611    1    1    2    0    0  0.66553285448E-01 -0.56010563107E-02  0.35463138074E+01  0.35469427108E+01  0.51109989000E-03 0. -1.
      611    1    1    2    0    0  0.19816361063E-01 -0.46683944600E-02  0.96924498633E+00  0.96945891445E+00  0.51109989000E-03 0.  1.
</event>
<event>
 6   3  0.2312675E+03  0.9118800E+02  0.7818608E-02  0.1180000E+00
       11   -1    0    0    0    0  0.00000000000E+00  0.00000000000E+00  0.54999999763E+01  0.55000000000E+01  0.51109989000E-03 0. -1.
     -623   -1    0    0    0    0  0.00000000000E+00  0.00000000000E+00  0.93234578044E-11  0.17124000000E+03  0.17124000000E+03 0. -1.
       11    1    1    2    0    0  0.63428746417E-02 -0.23609394229E-03  0.36816481993E+00  0.36821988493E+00  0.51109989000E-03 0. -1.
     -623    1    1    2    0    0 -0.73566854178E-01 -0.17668668628E-01  0.54348585411E-03  0.17124001672E+03  0.17124000000E+03 0. -1.
     -611    1    1    2    0    0  0.14062510124E-01  0.39125938937E-02  0.10741050131E+01  0.10742043115E+01  0.51109989000E-03 0. -1.
      611    1    1    2    0    0  0.53161469321E-01  0.13992168654E-01  0.40571866507E+01  0.40575590818E+01  0.51109989000E-03 0. -1.
</event>
<event>
 6   3  0.2312675E+03  0.9118800E+02  0.7818608E-02  0.1180000E+00
       11   -1    0    0    0    0  0.00000000000E+00  0.00000000000E+00  0.54999999763E+01  0.55000000000E+01  0.51109989000E-03 0. -1.
     -623   -1    0    0    0    0  0.00000000000E+00  0.00000000000E+00  0.93234578044E-11  0.17124000000E+03  0.17124000000E+03 0. -1.
       11    1    1    2    0    0  0.55534637279E-02 -0.39846246543E-02  0.94430204242E+00  0.94432691730E+00  0.51109989000E-03 0. -1.
     -623    1    1    2    0    0 -0.68219070952E-01 -0.21551153825E-02  0.47383924529E-03  0.17124001360E+03  0.17124000000E+03 0. -1.
     -611    1    1    2    0    0  0.12688944743E-01  0.14280197588E-02  0.93877304071E+00  0.93886001712E+00  0.51109989000E-03 0. -1.
      611    1    1    2    0    0  0.49976662503E-01  0.47117202794E-02  0.36164510556E+01  0.36167994644E+01  0.51109989000E-03 0. -1.
</event>
<event>
 6   3  0.2312675E+03  0.9118800E+02  0.7818608E-02  0.1180000E+00
       11   -1    0    0    0    0  0.00000000000E+00  0.00000000000E+00  0.54999999763E+01  0.55000000000E+01  0.51109989000E-03 0. -1.
     -623   -1    0    0    0    0  0.00000000000E+00  0.00000000000E+00  0.93234578044E-11  0.17124000000E+03  0.17124000000E+03 0. -1.
       11    1    1    2    0    0 -0.58494976509E-01  0.23810621283E-02  0.84047158933E+00  0.84250821089E+00  0.51109989000E-03 0. -1.
     -623    1    1    2    0    0 -0.18107946007E-02  0.62690768670E-02  0.24366430566E-02  0.17124000014E+03  0.17124000000E+03 0. -1.
     -611    1    1    2    0    0  0.39419471994E-01 -0.68048721073E-02  0.31458690850E+01  0.31461234500E+01  0.51109989000E-03 0. -1.
      611    1    1    2    0    0  0.20886299121E-01 -0.18452668888E-02  0.15112226593E+01  0.15113681979E+01  0.51109989000E-03 0.  1.
</event>
<event>
 6   3  0.2312675E+03  0.9118800E+02  0.7818608E-02  0.1180000E+00
       11   -1    0    0    0    0  0.00000000000E+00  0.00000000000E+00  0.54999999763E+01  0.55000000000E+01  0.51109989000E-03 0.  1.
     -623   -1    0    0    0    0  0.00000000000E+00  0.00000000000E+00  0.93234578044E-11  0.17124000000E+03  0.17124000000E+03 0. -1.
       11    1    1    2    0    0  0.53152880541E-01 -0.72152083673E-01  0.90263160551E+00  0.90706958299E+00  0.51109989000E-03 0.  1.
     -623    1    1    2    0    0  0.98157542608E-02  0.34152175419E-02  0.53860108775E-02  0.17124000040E+03  0.17124000000E+03 0. -1.
     -611    1    1    2    0    0 -0.38285716108E-01  0.41687920387E-01  0.26999219750E+01  0.27005152492E+01  0.51109989000E-03 0.  1.
      611    1    1    2    0    0 -0.24682918690E-01  0.27048945741E-01  0.18920603846E+01  0.18924147675E+01  0.51109989000E-03 0. -1.
</event>
<event>
 6   3  0.2312675E+03  0.9118800E+02  0.7818608E-02  0.1180000E+00
       11   -1    0    0    0    0  0.00000000000E+00  0.00000000000E+00  0.54999999763E+01  0.55000000000E+01  0.51109989000E-03 0. -1.
     -623   -1    0    0    0    0  0.00000000000E+00  0.00000000000E+00  0.93234578044E-11  0.17124000000E+03  0.17124000000E+03 0.  1.
       11    1    1    2    0    0  0.24185727458E-01  0.20831692405E-01  0.21447134761E+00  0.21683433536E+00  0.51109989000E-03 0. -1.
     -623    1    1    2    0    0  0.54851436588E-01 -0.50094923087E-01  0.30593554379E-02  0.17124001614E+03  0.17124000000E+03 0.  1.
     -611    1    1    2    0    0 -0.70283673796E-02  0.18614321775E-02  0.63216375588E+00  0.63220577216E+00  0.51109989000E-03 0.  1.
      611    1    1    2    0    0 -0.72008796666E-01  0.27401798505E-01  0.46503055173E+01  0.46509437527E+01  0.51109989000E-03 0. -1.
</event>
<event>
 6   3  0.2312675E+03  0.9118800E+02  0.7818608E-02  0.1180000E+00
       11   -1    0    0    0    0  0.00000000000E+00  0.00000000000E+00  0.54999999763E+01  0.55000000000E+01  0.51109989000E-03 0.  1.
     -623   -1    0    0    0    0  0.00000000000E+00  0.00000000000E+00  0.93234578044E-11  0.17124000000E+03  0.17124000000E+03 0. -1.
       11    1    1    2    0    0 -0.28009906530E-02  0.43628350143E-02  0.14174725266E+00  0.14184295801E+00  0.51109989000E-03 0.  1.
     -623    1    1    2    0    0  0.91653997960E-02 -0.48884209436E-02  0.90432810959E-03  0.17124000032E+03  0.17124000000E+03 0. -1.
     -611    1    1    2    0    0  0.39732385244E-01  0.15944940106E-01  0.20147028093E+01  0.20151577046E+01  0.51109989000E-03 0.  1.
      611    1    1    2    0    0 -0.46096794387E-01 -0.15419354177E-01  0.33426455863E+01  0.33429990200E+01  0.51109989000E-03 0. -1.
</event>
<event>
 6   3  0.2312675E+03  0.9118800E+02  0.7818608E-02  0.1180000E+00
       11   -1    0    0    0    0  0.00000000000E+00  0.00000000000E+00  0.54999999763E+01  0.55000000000E+01  0.51109989000E-03 0.  1.
     -623   -1    0    0    0    0  0.00000000000E+00  0.00000000000E+00  0.93234578044E-11  0.17124000000E+03  0.17124000000E+03 0. -1.
       11    1    1    2    0    0 -0.93907202469E-02 -0.12107846083E-01  0.21695100417E-01  0.26565469481E-01  0.51109989000E-03 0.  1.
     -623    1    1    2    0    0 -0.89999823630E-02  0.44003243784E-02  0.95321279774E-02  0.17124000056E+03  0.17124000000E+03 0. -1.
     -611    1    1    2    0    0  0.92193408927E-01  0.32522290002E-01  0.12078997159E+01  0.12118495406E+01  0.51109989000E-03 0. -1.
      611    1    1    2    0    0 -0.73802706317E-01 -0.24814768297E-01  0.42608730319E+01  0.42615844316E+01  0.51109989000E-03 0.  1.
</event>
<event>
 6   3  0.2312675E+03  0.9118800E+02  0.7818608E-02  0.1180000E+00
       11   -1    0    0    0    0  0.00000000000E+00  0.00000000000E+00  0.54999999763E+01  0.55000000000E+01  0.51109989000E-03 0. -1.
     -623   -1    0    0    0    0  0.00000000000E+00  0.00000000000E+00  0.93234578044E-11  0.17124000000E+03  0.17124000000E+03 0.  1.
       11    1    1    2    0    0 -0.61000314499E-01 -0.48368163515E-02  0.84074565717E+00  0.84296972332E+00  0.51109989000E-03 0. -1.
     -623    1    1    2    0    0 -0.11596248711E-01 -0.41534432031E-01  0.33373267246E-02  0.17124000546E+03  0.17124000000E+03 0.  1.
     -611    1    1    2    0    0  0.34233418136E-01  0.32777526052E-01  0.13047387616E+01  0.13055993989E+01  0.51109989000E-03 0. -1.
      611    1    1    2    0    0  0.38363145073E-01  0.13593722330E-01  0.33511782308E+01  0.33514254155E+01  0.51109989000E-03 0.  1.
</event>
<event>
 6   3  0.2312675E+03  0.9118800E+02  0.7818608E-02  0.1180000E+00
       11   -1    0    0    0    0  0.00000000000E+00  0.00000000000E+00  0.54999999763E+01  0.55000000000E+01  0.51109989000E-03 0.  1.
     -623   -1    0    0    0    0  0.00000000000E+00  0.00000000000E+00  0.93234578044E-11  0.17124000000E+03  0.17124000000E+03 0. -1.
       11    1    1    2    0    0  0.38111783454E-02  0.23796512317E-02  0.17000463957E-01  0.17591612156E-01  0.51109989000E-03 0.  1.
     -623    1    1    2    0    0 -0.68741770259E-02  0.46836474355E-04  0.11024056837E-02  0.17124000014E+03  0.17124000000E+03 0. -1.
     -611    1    1    2    0    0  0.36540486169E-01 -0.14317823975E-01  0.30055532774E+01  0.30058095368E+01  0.51109989000E-03 0.  1.
      611    1    1    2    0    0 -0.33477487488E-01  0.11891336269E-01  0.24763438291E+01  0.24765987093E+01  0.51109989000E-03 0. -1.
</event>
<event>
 6   3  0.2312675E+03  0.9118800E+02  0.7818608E-02  0.1180000E+00
       11   -1    0    0    0    0  0.00000000000E+00  0.00000000000E+00  0.54999999763E+01  0.55000000000E+01  0.51109989000E-03 0.  1.
     -623   -1    0    0    0    0  0.00000000000E+00  0.00000000000E+00  0.93234578044E-11  0.17124000000E+03  0.17124000000E+03 0.  1.
       11    1    1    2    0    0 -0.42484323858E-01  0.17273686279E-01  0.73651573304E+00  0.73794239901E+00  0.51109989000E-03 0.  1.
     -623    1    1    2    0    0 -0.22914383354E-01  0.97481218843E-02  0.19591329980E-02  0.17124000182E+03  0.17124000000E+03 0.  1.
     -611    1    1    2    0    0  0.16576337134E-01 -0.39483482843E-02  0.12123827823E+01  0.12125026336E+01  0.51109989000E-03 0. -1.
      611    1    1    2    0    0  0.48822370077E-01 -0.23073459878E-01  0.35491423277E+01  0.35495531454E+01  0.51109989000E-03 0.  1.
</event>
<event>
 6   3  0.2312675E+03  0.9118800E+02  0.7818608E-02  0.1180000E+00
       11   -1    0    0    0    0  0.00000000000E+00  0.00000000000E+00  0.54999999763E+01  0.55000000000E+01  0.51109989000E-03 0.  1.
     -623   -1    0    0    0    0  0.00000000000E+00  0.00000000000E+00  0.93234578044E-11  0.17124000000E+03  0.17124000000E+03 0.  1.
       11    1    1    2    0    0  0.14118630504E-01  0.46202024545E-01  0.85886399542E+00  0.86022182410E+00  0.51109989000E-03 0.  1.
     -623    1    1    2    0    0  0.19544247228E-01  0.16866147965E-02  0.23164443066E-02  0.17124000114E+03  0.17124000000E+03 0.  1.
     -611    1    1    2    0    0  0.22141242149E-01 -0.12536212590E-01  0.84753907225E+00  0.84792106440E+00  0.51109989000E-03 0. -1.
      611    1    1    2    0    0 -0.55804119881E-01 -0.35352426751E-01  0.37912804643E+01  0.37918559722E+01  0.51109989000E-03 0.  1.
</event>
<event>
 6   3  0.2312675E+03  0.9118800E+02  0.7818608E-02  0.1180000E+00
       11   -1    0    0    0    0  0.00000000000E+00  0.00000000000E+00  0.54999999763E+01  0.55000000000E+01  0.51109989000E-03 0.  1.
     -623   -1    0    0    0    0  0.00000000000E+00  0.00000000000E+00  0.93234578044E-11  0.17124000000E+03  0.17124000000E+03 0.  1.
       11    1    1    2    0    0  0.80653083492E-01 -0.32348429497E-01  0.21046204407E+00  0.22769689059E+00  0.51109989000E-03 0.  1.
     -623    1    1    2    0    0 -0.51672671406E-02 -0.12551093276E-01  0.17968191514E-01  0.17124000148E+03  0.17124000000E+03 0.  1.
     -611    1    1    2    0    0 -0.52383271855E-01  0.30469553616E-01  0.36376139198E+01  0.36381187023E+01  0.51109989000E-03 0.  1.
      611    1    1    2    0    0 -0.23102544438E-01  0.14429969122E-01  0.16339558168E+01  0.16341829224E+01  0.51109989000E-03 0. -1.
</event>
<event>
 6   3  0.2312675E+03  0.9118800E+02  0.7818608E-02  0.1180000E+00
       11   -1    0    0    0    0  0.00000000000E+00  0.00000000000E+00  0.54999999763E+01  0.55000000000E+01  0.51109989000E-03 0.  1.
     -623   -1    0    0    0    0  0.00000000000E+00  0.00000000000E+00  0.93234578044E-11  0.17124000000E+03  0.17124000000E+03 0.  1.
       11    1    1    2    0    0 -0.49587479744E-01  0.13300880425E-01  0.83823120286E+00  0.83980214469E+00  0.51109989000E-03 0.  1.
     -623    1    1    2    0    0 -0.18286957161E-01  0.38467020498E-01  0.26388502035E-02  0.17124000532E+03  0.17124000000E+03 0.  1.
     -611    1    1    2    0    0 -0.69102733087E-02 -0.14054208603E-01  0.66641895659E+00  0.66660315000E+00  0.51109989000E-03 0. -1.
      611    1    1    2    0    0  0.74784710213E-01 -0.37713692320E-01  0.39927109666E+01  0.39935893879E+01  0.51109989000E-03 0.  1.
</event>
<event>
 6   3  0.2312675E+03  0.9118800E+02  0.7818608E-02  0.1180000E+00
       11   -1    0    0    0    0  0.00000000000E+00  0.00000000000E+00  0.54999999763E+01  0.55000000000E+01  0.51109989000E-03 0.  1.
     -623   -1    0    0    0    0  0.00000000000E+00  0.00000000000E+00  0.93234578044E-11  0.17124000000E+03  0.17124000000E+03 0.  1.
       11    1    1    2    0    0  0.71627614385E-01 -0.12948548694E+00  0.80746815997E+00  0.82091540189E+00  0.51109989000E-03 0.  1.
     -623    1    1    2    0    0  0.28840139552E-02  0.11166959127E+00  0.14114492029E-01  0.17124003702E+03  0.17124000000E+03 0.  1.
     -611    1    1    2    0    0 -0.34077023794E-01  0.81888281678E-02  0.22993369316E+01  0.22996040718E+01  0.51109989000E-03 0.  1.
      611    1    1    2    0    0 -0.40434604547E-01  0.96270675089E-02  0.23790803927E+01  0.23794435093E+01  0.51109989000E-03 0. -1.
</event>
<event>
 6   3  0.2312675E+03  0.9118800E+02  0.7818608E-02  0.1180000E+00
       11   -1    0    0    0    0  0.00000000000E+00  0.00000000000E+00  0.54999999763E+01  0.55000000000E+01  0.51109989000E-03 0. -1.
     -623   -1    0    0    0    0  0.00000000000E+00  0.00000000000E+00  0.93234578044E-11  0.17124000000E+03  0.17124000000E+03 0. -1.
       11    1    1    2    0    0 -0.11517281375E-02  0.21476217437E-04  0.68561955400E-03  0.14346554294E-02  0.51109989000E-03 0. -1.
     -623    1    1    2    0    0  0.89481643215E-03  0.15288397575E-02  0.12591504513E-02  0.17124000001E+03  0.17124000000E+03 0. -1.
     -611    1    1    2    0    0  0.36146306292E-01  0.60164495101E-02  0.33074712940E+01  0.33076743151E+01  0.51109989000E-03 0. -1.
      611    1    1    2    0    0 -0.35889394586E-01 -0.75667654851E-02  0.21905839124E+01  0.21908910158E+01  0.51109989000E-03 0.  1.
</event>
<event>
 6   3  0.2312675E+03  0.9118800E+02  0.7818608E-02  0.1180000E+00
       11   -1    0    0    0    0  0.00000000000E+00  0.00000000000E+00  0.54999999763E+01  0.55000000000E+01  0.51109989000E-03 0.  1.
     -623   -1    0    0    0    0  0.00000000000E+00  0.00000000000E+00  0.93234578044E-11  0.17124000000E+03  0.17124000000E+03 0.  1.
       11    1    1    2    0    0  0.12136938321E-01  0.33775022504E-02  0.68436004097E+00  0.68447617906E+00  0.51109989000E-03 0.  1.
     -623    1    1    2    0    0 -0.89120242389E-01 -0.26196233222E-01  0.81096809684E-03  0.17124002520E+03  0.17124000000E+03 0.  1.
     -611    1    1    2    0    0  0.62100515039E-01  0.18597574304E-01  0.38859164605E+01  0.38864571711E+01  0.51109989000E-03 0.  1.
      611    1    1    2    0    0  0.14882787405E-01  0.42211561896E-02  0.92891240654E+00  0.92904135310E+00  0.51109989000E-03 0.  1.
</event>
<event>
 6   3  0.2312675E+03  0.9118800E+02  0.7818608E-02  0.1180000E+00
       11   -1    0    0    0    0  0.00000000000E+00  0.00000000000E+00  0.54999999763E+01  0.55000000000E+01  0.51109989000E-03 0. -1.
     -623   -1    0    0    0    0  0.00000000000E+00  0.00000000000E+00  0.93234578044E-11  0.17124000000E+03  0.17124000000E+03 0.  1.
       11    1    1    2    0    0  0.65206911238E-01  0.21627499566E-01  0.37608378115E+00  0.38230741776E+00  0.51109989000E-03 0. -1.
     -623    1    1    2    0    0  0.61084431144E-02 -0.18840900596E-01  0.73781017642E-02  0.17124000130E+03  0.17124000000E+03 0.  1.
     -611    1    1    2    0    0 -0.88917691807E-01  0.11529577488E-02  0.38636510305E+01  0.38646742724E+01  0.51109989000E-03 0. -1.
      611    1    1    2    0    0  0.17602337455E-01 -0.39395567181E-02  0.12528870629E+01  0.12530170054E+01  0.51109989000E-03 0.  1.
</event>
<event>
 6   3  0.2312675E+03  0.9118800E+02  0.7818608E-02  0.1180000E+00
       11   -1    0    0    0    0  0.00000000000E+00  0.00000000000E+00  0.54999999763E+01  0.55000000000E+01  0.51109989000E-03 0.  1.
     -623   -1    0    0    0    0  0.00000000000E+00  0.00000000000E+00  0.93234578044E-11  0.17124000000E+03  0.17124000000E+03 0.  1.
       11    1    1    2    0    0  0.11767895701E-01  0.10437411847E-01  0.32202326491E-01  0.35842349111E-01  0.51109989000E-03 0.  1.
     -623    1    1    2    0    0 -0.11355297865E-01 -0.92094484886E-02  0.41576297704E-02  0.17124000067E+03  0.17124000000E+03 0.  1.
     -611    1    1    2    0    0 -0.37056936817E-01 -0.53093095771E-02  0.31612875857E+01  0.31615092703E+01  0.51109989000E-03 0. -1.
      611    1    1    2    0    0  0.36644338982E-01  0.40813462191E-02  0.23023524343E+01  0.23026477060E+01  0.51109989000E-03 0.  1.
</event>
<event>
 6   3  0.2312675E+03  0.9118800E+02  0.7818608E-02  0.1180000E+00
       11   -1    0    0    0    0  0.00000000000E+00  0.00000000000E+00  0.54999999763E+01  0.55000000000E+01  0.51109989000E-03 0.  1.
     -623   -1    0    0    0    0  0.00000000000E+00  0.00000000000E+00  0.93234578044E-11  0.17124000000E+03  0.17124000000E+03 0.  1.
       11    1    1    2    0    0 -0.14995369322E-01 -0.86558726282E-03  0.10311419595E+01  0.10312514786E+01  0.51109989000E-03 0.  1.
     -623    1    1    2    0    0  0.60634063612E-01  0.13492682227E-01  0.37247686696E-03  0.17124001127E+03  0.17124000000E+03 0.  1.
     -611    1    1    2    0    0 -0.30811018449E-01 -0.74097177429E-02  0.30284121790E+01  0.30285780178E+01  0.51109989000E-03 0.  1.
      611    1    1    2    0    0 -0.14827675625E-01 -0.52173771736E-02  0.14400733413E+01  0.14401592171E+01  0.51109989000E-03 0.  1.
</event>
<event>
 6   3  0.2312675E+03  0.9118800E+02  0.7818608E-02  0.1180000E+00
       11   -1    0    0    0    0  0.00000000000E+00  0.00000000000E+00  0.54999999763E+01  0.55000000000E+01  0.51109989000E-03 0. -1.
     -623   -1    0    0    0    0  0.00000000000E+00  0.00000000000E+00  0.93234578044E-11  0.17124000000E+03  0.17124000000E+03 0. -1.
       11    1    1    2    0    0 -0.44174761828E-02 -0.65115857047E-01  0.37778032004E+00  0.38337686467E+00  0.51109989000E-03 0. -1.
     -623    1    1    2    0    0 -0.22900355458E-01  0.30316078860E-01  0.15720727863E-01  0.17124000494E+03  0.17124000000E+03 0. -1.
     -611    1    1    2    0    0 -0.89088104959E-01 -0.93586787918E-01  0.30848468509E+01  0.30875517052E+01  0.51109989000E-03 0. -1.
      611    1    1    2    0    0  0.11640593660E+00  0.12838656610E+00  0.20216520774E+01  0.20290664937E+01  0.51109989000E-03 0.  1.
</event>
<event>
 6   3  0.2312675E+03  0.9118800E+02  0.7818608E-02  0.1180000E+00
       11   -1    0    0    0    0  0.00000000000E+00  0.00000000000E+00  0.54999999763E+01  0.55000000000E+01  0.51109989000E-03 0. -1.
     -623   -1    0    0    0    0  0.00000000000E+00  0.00000000000E+00  0.93234578044E-11  0.17124000000E+03  0.17124000000E+03 0. -1.
       11    1    1    2    0    0 -0.38895249780E-01 -0.21490038473E-01  0.90254093144E+00  0.90363435988E+00  0.51109989000E-03 0. -1.
     -623    1    1    2    0    0 -0.12246755308E-01 -0.88040317356E-02  0.14790779698E-02  0.17124000067E+03  0.17124000000E+03 0. -1.
     -611    1    1    2    0    0  0.12906929922E-01  0.67718741330E-02  0.10884267037E+01  0.10885244130E+01  0.51109989000E-03 0. -1.
      611    1    1    2    0    0  0.38235075165E-01  0.23522196075E-01  0.35075532629E+01  0.35078405563E+01  0.51109989000E-03 0.  1.
</event>
<event>
 6   3  0.2312675E+03  0.9118800E+02  0.7818608E-02  0.1180000E+00
       11   -1    0    0    0    0  0.00000000000E+00  0.00000000000E+00  0.54999999763E+01  0.55000000000E+01  0.51109989000E-03 0. -1.
     -623   -1    0    0    0    0  0.00000000000E+00  0.00000000000E+00  0.93234578044E-11  0.17124000000E+03  0.17124000000E+03 0. -1.
       11    1    1    2    0    0  0.79061264851E-02  0.11759166559E-02  0.35858622885E+00  0.35867566737E+00  0.51109989000E-03 0. -1.
     -623    1    1    2    0    0  0.84448763126E-03 -0.12317905474E-01  0.12431156764E-02  0.17124000045E+03  0.17124000000E+03 0. -1.
     -611    1    1    2    0    0  0.48734306616E-01  0.73110930866E-02  0.18888146322E+01  0.18894574514E+01  0.51109989000E-03 0.  1.
      611    1    1    2    0    0 -0.57484920732E-01  0.38308957316E-02  0.32513559995E+01  0.32518664316E+01  0.51109989000E-03 0. -1.
</event>
<event>
 6   3  0.2312675E+03  0.9118800E+02  0.7818608E-02  0.1180000E+00
       11   -1    0    0    0    0  0.00000000000E+00  0.00000000000E+00  0.54999999763E+01  0.55000000000E+01  0.51109989000E-03 0. -1.
     -623   -1    0    0    0    0  0.00000000000E+00  0.00000000000E+00  0.93234578044E-11  0.17124000000E+03  0.17124000000E+03 0.  1.
       11    1    1    2    0    0 -0.33056929292E-03  0.25583941043E-02  0.57629994939E-02  0.63346698979E-02  0.51109989000E-03 0. -1.
     -623    1    1    2    0    0  0.13664685679E-02 -0.27504556874E-03  0.11589620820E-02  0.17124000001E+03  0.17124000000E+03 0.  1.
     -611    1    1    2    0    0 -0.39676506895E-01 -0.84938171692E-02  0.24577130650E+01  0.24580480348E+01  0.51109989000E-03 0.  1.
      611    1    1    2    0    0  0.38640607620E-01  0.62104686337E-02  0.30353649496E+01  0.30356172856E+01  0.51109989000E-03 0. -1.
</event>
<event>
 6   3  0.2312675E+03  0.9118800E+02  0.7818608E-02  0.1180000E+00
       11   -1    0    0    0    0  0.00000000000E+00  0.00000000000E+00  0.54999999763E+01  0.55000000000E+01  0.51109989000E-03 0. -1.
     -623   -1    0    0    0    0  0.00000000000E+00  0.00000000000E+00  0.93234578044E-11  0.17124000000E+03  0.17124000000E+03 0. -1.
       11    1    1    2    0    0  0.11252711850E-01 -0.20567492000E-03  0.40559798174E+00  0.40575442060E+00  0.51109989000E-03 0. -1.
     -623    1    1    2    0    0 -0.67443574600E-01  0.29260548948E-01  0.56509547458E-03  0.17124001578E+03  0.17124000000E+03 0. -1.
     -611    1    1    2    0    0  0.22639980079E-01 -0.11885417724E-01  0.20477632869E+01  0.20479229898E+01  0.51109989000E-03 0. -1.
      611    1    1    2    0    0  0.33550882654E-01 -0.17169456291E-01  0.30460736102E+01  0.30463068053E+01  0.51109989000E-03 0.  1.
</event>
<event>
 6   3  0.2312675E+03  0.9118800E+02  0.7818608E-02  0.1180000E+00
       11   -1    0    0    0    0  0.00000000000E+00  0.00000000000E+00  0.54999999763E+01  0.55000000000E+01  0.51109989000E-03 0. -1.
     -623   -1    0    0    0    0  0.00000000000E+00  0.00000000000E+00  0.93234578044E-11  0.17124000000E+03  0.17124000000E+03 0.  1.
       11    1    1    2    0    0 -0.18178880986E-02  0.29668173108E-02  0.54926034299E+00  0.54927160160E+00  0.51109989000E-03 0. -1.
     -623    1    1    2    0    0  0.71957553823E-01 -0.47032330631E-02  0.53506452257E-03  0.17124001518E+03  0.17124000000E+03 0.  1.
     -611    1    1    2    0    0 -0.35190803000E-01 -0.44086741139E-02  0.24398417215E+01  0.24400995300E+01  0.51109989000E-03 0. -1.
      611    1    1    2    0    0 -0.34948862683E-01  0.61450898634E-02  0.25103628440E+01  0.25106136810E+01  0.51109989000E-03 0.  1.
</event>
<event>
 6   3  0.2312675E+03  0.9118800E+02  0.7818608E-02  0.1180000E+00
       11   -1    0    0    0    0  0.00000000000E+00  0.00000000000E+00  0.54999999763E+01  0.55000000000E+01  0.51109989000E-03 0.  1.
     -623   -1    0    0    0    0  0.00000000000E+00  0.00000000000E+00  0.93234578044E-11  0.17124000000E+03  0.17124000000E+03 0. -1.
       11    1    1    2    0    0 -0.63503659471E-01 -0.59570624740E-02  0.50225452912E+00  0.50628852901E+00  0.51109989000E-03 0.  1.
     -623    1    1    2    0    0 -0.15432775286E-01 -0.92890747133E-02  0.46823341975E-02  0.17124000101E+03  0.17124000000E+03 0. -1.
     -611    1    1    2    0    0  0.27938569931E-01  0.52435436616E-02  0.17806834271E+01  0.17809103816E+01  0.51109989000E-03 0.  1.
      611    1    1    2    0    0  0.50997864703E-01  0.10002593502E-01  0.32123796780E+01  0.32128000702E+01  0.51109989000E-03 0.  1.
</event>
<event>
 6   3  0.2312675E+03  0.9118800E+02  0.7818608E-02  0.1180000E+00
       11   -1    0    0    0    0  0.00000000000E+00  0.00000000000E+00  0.54999999763E+01  0.55000000000E+01  0.51109989000E-03 0. -1.
     -623   -1    0    0    0    0  0.00000000000E+00  0.00000000000E+00  0.93234578044E-11  0.17124000000E+03  0.17124000000E+03 0. -1.
       11    1    1    2    0    0  0.12366003527E-01 -0.51912241235E-01  0.37042270548E+00  0.37424729898E+00  0.51109989000E-03 0. -1.
     -623    1    1    2    0    0 -0.31738710278E-01  0.27127566877E-01  0.43383490639E-02  0.17124000515E+03  0.17124000000E+03 0. -1.
     -611    1    1    2    0    0 -0.21320057210E-01  0.22417878335E-01  0.19175542467E+01  0.19178038629E+01  0.51109989000E-03 0.  1.
      611    1    1    2    0    0  0.40692763961E-01  0.23667960229E-02  0.32076846750E+01  0.32079436932E+01  0.51109989000E-03 0. -1.
</event>
<event>
 6   3  0.2312675E+03  0.9118800E+02  0.7818608E-02  0.1180000E+00
       11   -1    0    0    0    0  0.00000000000E+00  0.00000000000E+00  0.54999999763E+01  0.55000000000E+01  0.51109989000E-03 0.  1.
     -623   -1    0    0    0    0  0.00000000000E+00  0.00000000000E+00  0.93234578044E-11  0.17124000000E+03  0.17124000000E+03 0. -1.
       11    1    1    2    0    0  0.78394717381E-01  0.21957244489E-01  0.93497637702E+00  0.93851421891E+00  0.51109989000E-03 0.  1.
     -623    1    1    2    0    0 -0.15733791678E-01 -0.62649030496E-02  0.39972806617E-02  0.17124000088E+03  0.17124000000E+03 0. -1.
     -611    1    1    2    0    0 -0.44861198160E-01 -0.98722794685E-02  0.32712742535E+01  0.32715967801E+01  0.51109989000E-03 0.  1.
      611    1    1    2    0    0 -0.17799727541E-01 -0.58200619708E-02  0.12897520650E+01  0.12898881168E+01  0.51109989000E-03 0. -1.
</event>
<event>
 6   3  0.2312675E+03  0.9118800E+02  0.7818608E-02  0.1180000E+00
       11   -1    0    0    0    0  0.00000000000E+00  0.00000000000E+00  0.54999999763E+01  0.55000000000E+01  0.51109989000E-03 0. -1.
     -623   -1    0    0    0    0  0.00000000000E+00  0.00000000000E+00  0.93234578044E-11  0.17124000000E+03  0.17124000000E+03 0.  1.
       11    1    1    2    0    0 -0.57093004666E-02  0.12732449614E-02  0.43583139844E+00  0.43587095149E+00  0.51109989000E-03 0.  1.
     -623    1    1    2    0    0  0.78820892342E-01 -0.13846808730E-01  0.60177272944E-03  0.17124001870E+03  0.17124000000E+03 0.  1.
     -611    1    1    2    0    0 -0.41899499883E-01  0.74846137539E-02  0.29119737034E+01  0.29122847900E+01  0.51109989000E-03 0. -1.
      611    1    1    2    0    0 -0.31212094199E-01  0.50889504024E-02  0.21515932556E+01  0.21518257111E+01  0.51109989000E-03 0. -1.
</event>
<event>
 6   3  0.2312675E+03  0.9118800E+02  0.7818608E-02  0.1180000E+00
       11   -1    0    0    0    0  0.00000000000E+00  0.00000000000E+00  0.54999999763E+01  0.55000000000E+01  0.51109989000E-03 0.  1.
     -623   -1    0    0    0    0  0.00000000000E+00  0.00000000000E+00  0.93234578044E-11  0.17124000000E+03  0.17124000000E+03 0. -1.
       11    1    1    2    0    0  0.37279111747E-01 -0.56952291286E-01  0.57575627814E+00  0.57976620175E+00  0.51109989000E-03 0.  1.
     -623    1    1    2    0    0  0.52627467365E-01  0.10972543834E-01  0.50550346912E-02  0.17124000851E+03  0.17124000000E+03 0. -1.
     -611    1    1    2    0    0 -0.46726880270E-01  0.23834574100E-01  0.25268416070E+01  0.25273860521E+01  0.51109989000E-03 0.  1.
      611    1    1    2    0    0 -0.43179698801E-01  0.22145173331E-01  0.23923470541E+01  0.23928392307E+01  0.51109989000E-03 0. -1.
</event>
<event>
 6   3  0.2312675E+03  0.9118800E+02  0.7818608E-02  0.1180000E+00
       11   -1    0    0    0    0  0.00000000000E+00  0.00000000000E+00  0.54999999763E+01  0.55000000000E+01  0.51109989000E-03 0. -1.
     -623   -1    0    0    0    0  0.00000000000E+00  0.00000000000E+00  0.93234578044E-11  0.17124000000E+03  0.17124000000E+03 0. -1.
       11    1    1    2    0    0  0.84681215497E-01  0.21285192526E-02  0.74078398532E+00  0.74561156978E+00  0.51109989000E-03 0. -1.
     -623    1    1    2    0    0 -0.35361805182E-01  0.16482594209E-02  0.50900559874E-02  0.17124000373E+03  0.17124000000E+03 0. -1.
     -611    1    1    2    0    0 -0.32405074691E-01 -0.37882974894E-02  0.32311313170E+01  0.32312960696E+01  0.51109989000E-03 0. -1.
      611    1    1    2    0    0 -0.16914335634E-01  0.11518815207E-04  0.15229946188E+01  0.15230886268E+01  0.51109989000E-03 0.  1.
</event>
<event>
 6   3  0.2312675E+03  0.9118800E+02  0.7818608E-02  0.1180000E+00
       11   -1    0    0    0    0  0.00000000000E+00  0.00000000000E+00  0.54999999763E+01  0.55000000000E+01  0.51109989000E-03 0. -1.
     -623   -1    0    0    0    0  0.00000000000E+00  0.00000000000E+00  0.93234578044E-11  0.17124000000E+03  0.17124000000E+03 0. -1.
       11    1    1    2    0    0  0.32646925899E-01 -0.13506347368E+00  0.83806729199E+00  0.84950868790E+00  0.51109989000E-03 0. -1.
     -623    1    1    2    0    0  0.32696059117E-01  0.34206343762E-02  0.13768606279E-01  0.17124000371E+03  0.17124000000E+03 0. -1.
     -611    1    1    2    0    0 -0.24659530600E-01  0.50173929496E-01  0.18019273580E+01  0.18027944920E+01  0.51109989000E-03 0. -1.
      611    1    1    2    0    0 -0.40683454442E-01  0.81468909860E-01  0.28462367218E+01  0.28476931128E+01  0.51109989000E-03 0. -1.
</event>
<event>
 6   3  0.2312675E+03  0.9118800E+02  0.7818608E-02  0.1180000E+00
       11   -1    0    0    0    0  0.00000000000E+00  0.00000000000E+00  0.54999999763E+01  0.55000000000E+01  0.51109989000E-03 0. -1.
     -623   -1    0    0    0    0  0.00000000000E+00  0.00000000000E+00  0.93234578044E-11  0.17124000000E+03  0.17124000000E+03 0. -1.
       11    1    1    2    0    0 -0.99522942002E-02 -0.19672626330E-02  0.94307827268E-01  0.94853285600E-01  0.51109989000E-03 0. -1.
     -623    1    1    2    0    0  0.35909112817E-01 -0.16716312438E-01  0.33118067062E-02  0.17124000461E+03  0.17124000000E+03 0. -1.
     -611    1    1    2    0    0 -0.69635159597E-01 -0.46437268247E-01  0.37125344966E+01  0.37134779015E+01  0.51109989000E-03 0.  1.
      611    1    1    2    0    0  0.43678340980E-01  0.65120843318E-01  0.16898458456E+01  0.16916641998E+01  0.51109989000E-03 0. -1.
</event>
<event>
 6   3  0.2312675E+03  0.9118800E+02  0.7818608E-02  0.1180000E+00
       11   -1    0    0    0    0  0.00000000000E+00  0.00000000000E+00  0.54999999763E+01  0.55000000000E+01  0.51109989000E-03 0.  1.
     -623   -1    0    0    0    0  0.00000000000E+00  0.00000000000E+00  0.93234578044E-11  0.17124000000E+03  0.17124000000E+03 0.  1.
       11    1    1    2    0    0  0.13584998463E-01  0.20658492639E-01  0.53761797368E+00  0.53818646615E+00  0.51109989000E-03 0.  1.
     -623    1    1    2    0    0 -0.69785532203E-01 -0.36381012766E-01  0.94337770342E-03  0.17124001809E+03  0.17124000000E+03 0.  1.
     -611    1    1    2    0    0  0.47802813363E-01  0.11124106939E-01  0.44137768016E+01  0.44140497019E+01  0.51109989000E-03 0.  1.
      611    1    1    2    0    0  0.83977203792E-02  0.45984131889E-02  0.54766182343E+00  0.54774574501E+00  0.51109989000E-03 0. -1.
</event>
<event>
 6   3  0.2312675E+03  0.9118800E+02  0.7818608E-02  0.1180000E+00
       11   -1    0    0    0    0  0.00000000000E+00  0.00000000000E+00  0.54999999763E+01  0.55000000000E+01  0.51109989000E-03 0.  1.
     -623   -1    0    0    0    0  0.00000000000E+00  0.00000000000E+00  0.93234578044E-11  0.17124000000E+03  0.17124000000E+03 0.  1.
       11    1    1    2    0    0 -0.40448706876E-02 -0.20693956890E-02  0.30900014440E+00  0.30903396875E+00  0.51109989000E-03 0. -1.
     -623    1    1    2    0    0  0.79929067537E-01  0.26225537479E-01  0.66549424291E-03  0.17124002066E+03  0.17124000000E+03 0.  1.
     -611    1    1    2    0    0 -0.35131111482E-01 -0.10901776636E-01  0.23990074131E+01  0.23992894517E+01  0.51109989000E-03 0.  1.
      611    1    1    2    0    0 -0.40753085425E-01 -0.13254365173E-01  0.27913269285E+01  0.27916559199E+01  0.51109989000E-03 0.  1.
</event>
<event>
 6   3  0.2312675E+03  0.9118800E+02  0.7818608E-02  0.1180000E+00
       11   -1    0    0    0    0  0.00000000000E+00  0.00000000000E+00  0.54999999763E+01  0.55000000000E+01  0.51109989000E-03 0. -1.
     -623   -1    0    0    0    0  0.00000000000E+00  0.00000000000E+00  0.93234578044E-11  0.17124000000E+03  0.17124000000E+03 0.  1.
       11    1    1    2    0    0  0.67518854001E-01  0.39072189679E-01  0.90974922394E+00  0.91308780702E+00  0.51109989000E-03 0. -1.
     -623    1    1    2    0    0 -0.91613039428E-03  0.27889580152E-01  0.43181096923E-02  0.17124000233E+03  0.17124000000E+03 0.  1.
     -611    1    1    2    0    0 -0.38766995054E-01 -0.34548637296E-01  0.25620556667E+01  0.25625818990E+01  0.51109989000E-03 0. -1.
      611    1    1    2    0    0 -0.27835728551E-01 -0.32413132534E-01  0.20238769759E+01  0.20243279659E+01  0.51109989000E-03 0.  1.
</event>
<event>
 6   3  0.2312675E+03  0.9118800E+02  0.7818608E-02  0.1180000E+00
       11   -1    0    0    0    0  0.00000000000E+00  0.00000000000E+00  0.54999999763E+01  0.55000000000E+01  0.51109989000E-03 0.  1.
     -623   -1    0    0    0    0  0.00000000000E+00  0.00000000000E+00  0.93234578044E-11  0.17124000000E+03  0.17124000000E+03 0.  1.
       11    1    1    2    0    0 -0.18012742124E-02  0.10967627631E-02  0.20512002698E+00  0.20513150458E+00  0.51109989000E-03 0.  1.
     -623    1    1    2    0    0  0.14249225941E-02 -0.64915477636E-02  0.71896219083E-03  0.17124000013E+03  0.17124000000E+03 0.  1.
     -611    1    1    2    0    0 -0.37861577914E-01  0.21534100234E-01  0.22214566874E+01  0.22218837260E+01  0.51109989000E-03 0. -1.
      611    1    1    2    0    0  0.38237929532E-01 -0.16139315233E-01  0.30727042998E+01  0.30729846391E+01  0.51109989000E-03 0.  1.
</event>
<event>
 6   3  0.2312675E+03  0.9118800E+02  0.7818608E-02  0.1180000E+00
       11   -1    0    0    0    0  0.00000000000E+00  0.00000000000E+00  0.54999999763E+01  0.55000000000E+01  0.51109989000E-03 0.  1.
     -623   -1    0    0    0    0  0.00000000000E+00  0.00000000000E+00  0.93234578044E-11  0.17124000000E+03  0.17124000000E+03 0. -1.
       11    1    1    2    0    0  0.41833568752E-01  0.16680187478E-01  0.80431241891E+00  0.80557247009E+00  0.51109989000E-03 0.  1.
     -623    1    1    2    0    0  0.23182978563E-01 -0.22759720659E-02  0.22375579031E-02  0.17124000160E+03  0.17124000000E+03 0. -1.
     -611    1    1    2    0    0 -0.74409635810E-01  0.28627505579E-02  0.40171697050E+01  0.40178598395E+01  0.51109989000E-03 0.  1.
      611    1    1    2    0    0  0.93930884946E-02 -0.17266965970E-01  0.67628029446E+00  0.67656609147E+00  0.51109989000E-03 0. -1.
</event>
<event>
 6   3  0.2312675E+03  0.9118800E+02  0.7818608E-02  0.1180000E+00
       11   -1    0    0    0    0  0.00000000000E+00  0.00000000000E+00  0.54999999763E+01  0.55000000000E+01  0.51109989000E-03 0.  1.
     -623   -1    0    0    0    0  0.00000000000E+00  0.00000000000E+00  0.93234578044E-11  0.17124000000E+03  0.17124000000E+03 0.  1.
       11    1    1    2    0    0  0.60225999162E-02  0.14135562746E-01  0.15155707599E+00  0.15233481004E+00  0.51109989000E-03 0.  1.
     -623    1    1    2    0    0  0.52818085837E-01 -0.50773473366E-01  0.12439829944E-02  0.17124001568E+03  0.17124000000E+03 0.  1.
     -611    1    1    2    0    0 -0.33880982109E-01  0.22766591066E-01  0.30599844214E+01  0.30602567146E+01  0.51109989000E-03 0. -1.
      611    1    1    2    0    0 -0.24959703629E-01  0.13871319545E-01  0.22872144946E+01  0.22873927966E+01  0.51109989000E-03 0.  1.
</event>
<event>
 6   3  0.2312675E+03  0.9118800E+02  0.7818608E-02  0.1180000E+00
       11   -1    0    0    0    0  0.00000000000E+00  0.00000000000E+00  0.54999999763E+01  0.55000000000E+01  0.51109989000E-03 0. -1.
     -623   -1    0    0    0    0  0.00000000000E+00  0.00000000000E+00  0.93234578044E-11  0.17124000000E+03  0.17124000000E+03 0.  1.
       11    1    1    2    0    0  0.14822190360E-02  0.27415743106E-02  0.24324765987E-01  0.24528935288E-01  0.51109989000E-03 0. -1.
     -623    1    1    2    0    0  0.10189173166E-02 -0.35953680484E-02  0.63407192731E-03  0.17124000004E+03  0.17124000000E+03 0.  1.
     -611    1    1    2    0    0 -0.35215415226E-01 -0.14560228199E-02  0.24849893177E+01  0.24852393076E+01  0.51109989000E-03 0. -1.
      611    1    1    2    0    0  0.32714278873E-01  0.23098165577E-02  0.29900518205E+01  0.29902317151E+01  0.51109989000E-03 0.  1.
</event>
<event>
 6   3  0.2312675E+03  0.9118800E+02  0.7818608E-02  0.1180000E+00
       11   -1    0    0    0    0  0.00000000000E+00  0.00000000000E+00  0.54999999763E+01  0.55000000000E+01  0.51109989000E-03 0.  1.
     -623   -1    0    0    0    0  0.00000000000E+00  0.00000000000E+00  0.93234578044E-11  0.17124000000E+03  0.17124000000E+03 0. -1.
       11    1    1    2    0    0  0.50714005318E-01 -0.23679267061E-01  0.95441806973E+00  0.95605791199E+00  0.51109989000E-03 0.  1.
     -623    1    1    2    0    0 -0.20710905088E-02  0.27700508258E-02  0.19484742273E-02  0.17124000005E+03  0.17124000000E+03 0. -1.
     -611    1    1    2    0    0 -0.25505356151E-01  0.11151363602E-01  0.23829286789E+01  0.23830913171E+01  0.51109989000E-03 0.  1.
      611    1    1    2    0    0 -0.23137558575E-01  0.97578525979E-02  0.21607047456E+01  0.21608507170E+01  0.51109989000E-03 0.  1.
</event>
<event>
 6   3  0.2312675E+03  0.9118800E+02  0.7818608E-02  0.1180000E+00
       11   -1    0    0    0    0  0.00000000000E+00  0.00000000000E+00  0.54999999763E+01  0.55000000000E+01  0.51109989000E-03 0. -1.
     -623   -1    0    0    0    0  0.00000000000E+00  0.00000000000E+00  0.93234578044E-11  0.17124000000E+03  0.17124000000E+03 0.  1.
       11    1    1    2    0    0 -0.31115380674E-01  0.49240347606E-02  0.86399645016E+00  0.86457072594E+00  0.51109989000E-03 0. -1.
     -623    1    1    2    0    0  0.10768878930E+00 -0.13257944306E-02  0.18547477950E-02  0.17124003388E+03  0.17124000000E+03 0.  1.
     -611    1    1    2    0    0 -0.27691543248E-01  0.34461807263E-01  0.22980258167E+01  0.22984510770E+01  0.51109989000E-03 0.  1.
      611    1    1    2    0    0 -0.48881865374E-01 -0.38060047593E-01  0.23361229616E+01  0.23369443205E+01  0.51109989000E-03 0. -1.
</event>
<event>
 6   3  0.2312675E+03  0.9118800E+02  0.7818608E-02  0.1180000E+00
       11   -1    0    0    0    0  0.00000000000E+00  0.00000000000E+00  0.54999999763E+01  0.55000000000E+01  0.51109989000E-03 0.  1.
     -623   -1    0    0    0    0  0.00000000000E+00  0.00000000000E+00  0.93234578044E-11  0.17124000000E+03  0.17124000000E+03 0. -1.
       11    1    1    2    0    0  0.49643238574E-01  0.30996054664E-01  0.54713272183E+00  0.55025419858E+00  0.51109989000E-03 0.  1.
     -623    1    1    2    0    0 -0.53757893795E-02  0.38577755650E-01  0.39579214279E-02  0.17124000448E+03  0.17124000000E+03 0. -1.
     -611    1    1    2    0    0  0.67422907198E-02 -0.10026594623E-01  0.54663814730E+00  0.54677190527E+00  0.51109989000E-03 0. -1.
      611    1    1    2    0    0 -0.51009739914E-01 -0.59547215691E-01  0.44022711857E+01  0.44029694205E+01  0.51109989000E-03 0.  1.
</event>
<event>
 6   3  0.2312675E+03  0.9118800E+02  0.7818608E-02  0.1180000E+00
       11   -1    0    0    0    0  0.00000000000E+00  0.00000000000E+00  0.54999999763E+01  0.55000000000E+01  0.51109989000E-03 0.  1.
     -623   -1    0    0    0    0  0.00000000000E+00  0.00000000000E+00  0.93234578044E-11  0.17124000000E+03  0.17124000000E+03 0. -1.
       11    1    1    2    0    0  0.14649717025E-01  0.26665110080E-01  0.21320069468E+00  0.21536118438E+00  0.51109989000E-03 0.  1.
     -623    1    1    2    0    0  0.22448554191E-01  0.20985077066E-01  0.33109399247E-02  0.17124000279E+03  0.17124000000E+03 0. -1.
     -611    1    1    2    0    0  0.26015958366E-01  0.50959842256E-02  0.96403917010E+00  0.96440374421E+00  0.51109989000E-03 0. -1.
      611    1    1    2    0    0 -0.63114229582E-01 -0.52746171372E-01  0.43194491715E+01  0.43202322821E+01  0.51109989000E-03 0.  1.
</event>
<event>
 6   3  0.2312675E+03  0.9118800E+02  0.7818608E-02  0.1180000E+00
       11   -1    0    0    0    0  0.00000000000E+00  0.00000000000E+00  0.54999999763E+01  0.55000000000E+01  0.51109989000E-03 0. -1.
     -623   -1    0    0    0    0  0.00000000000E+00  0.00000000000E+00  0.93234578044E-11  0.17124000000E+03  0.17124000000E+03 0. -1.
       11    1    1    2    0    0  0.18435588205E-02 -0.15371805771E-01  0.10188954872E+01  0.10190132316E+01  0.51109989000E-03 0. -1.
     -623    1    1    2    0    0  0.48720563613E-01  0.35985248661E-01  0.46132843549E-03  0.17124001071E+03  0.17124000000E+03 0. -1.
     -611    1    1    2    0    0 -0.39778373168E-01 -0.16102945957E-01  0.35161863107E+01  0.35164482162E+01  0.51109989000E-03 0. -1.
      611    1    1    2    0    0 -0.10785749274E-01 -0.45104969406E-02  0.96445685093E+00  0.96452784071E+00  0.51109989000E-03 0. -1.
</event>
<event>
 6   3  0.2312675E+03  0.9118800E+02  0.7818608E-02  0.1180000E+00
       11   -1    0    0    0    0  0.00000000000E+00  0.00000000000E+00  0.54999999763E+01  0.55000000000E+01  0.51109989000E-03 0. -1.
     -623   -1    0    0    0    0  0.00000000000E+00  0.00000000000E+00  0.93234578044E-11  0.17124000000E+03  0.17124000000E+03 0.  1.
       11    1    1    2    0    0  0.19952743286E-01 -0.18410107286E-01  0.32569357280E+00  0.32682351292E+00  0.51109989000E-03 0. -1.
     -623    1    1    2    0    0  0.41151969215E-01 -0.63477295285E-02  0.16139387693E-02  0.17124000507E+03  0.17124000000E+03 0.  1.
     -611    1    1    2    0    0 -0.49027790931E-01  0.28230390975E-01  0.45517356078E+01  0.45520872118E+01  0.51109989000E-03 0. -1.
      611    1    1    2    0    0 -0.12076921569E-01 -0.34725541600E-02  0.62095685681E+00  0.62108420517E+00  0.51109989000E-03 0.  1.
</event>
<event>
 6   3  0.2312675E+03  0.9118800E+02  0.7818608E-02  0.1180000E+00
       11   -1    0    0    0    0  0.00000000000E+00  0.00000000000E+00  0.54999999763E+01  0.55000000000E+01  0.51109989000E-03 0. -1.
     -623   -1    0    0    0    0  0.00000000000E+00  0.00000000000E+00  0.93234578044E-11  0.17124000000E+03  0.17124000000E+03 0.  1.
       11    1    1    2    0    0 -0.34469970044E-01  0.80710409737E-02  0.46409151917E+00  0.46544013571E+00  0.51109989000E-03 0. -1.
     -623    1    1    2    0    0  0.13198184347E-01  0.48984353769E-03  0.34178658237E-02  0.17124000054E+03  0.17124000000E+03 0.  1.
     -611    1    1    2    0    0  0.40858226019E-01 -0.60749517982E-01  0.39099826518E+01  0.39106680372E+01  0.51109989000E-03 0.  1.
      611    1    1    2    0    0 -0.19586440323E-01  0.52188633470E-01  0.11225079395E+01  0.11238912837E+01  0.51109989000E-03 0. -1.
</event>
<event>
 6   3  0.2312675E+03  0.9118800E+02  0.7818608E-02  0.1180000E+00
       11   -1    0    0    0    0  0.00000000000E+00  0.00000000000E+00  0.54999999763E+01  0.55000000000E+01  0.51109989000E-03 0. -1.
     -623   -1    0    0    0    0  0.00000000000E+00  0.00000000000E+00  0.93234578044E-11  0.17124000000E+03  0.17124000000E+03 0.  1.
       11    1    1    2    0    0 -0.14373588630E-01  0.33585929104E-01  0.30995865788E+00  0.31210454258E+00  0.51109989000E-03 0. -1.
     -623    1    1    2    0    0 -0.50125674556E-01  0.40933093006E-01  0.31020240423E-02  0.17124001226E+03  0.17124000000E+03 0.  1.
     -611    1    1    2    0    0  0.39914527238E-01 -0.52103671877E-01  0.35179097920E+01  0.35185220659E+01  0.51109989000E-03 0. -1.
      611    1    1    2    0    0  0.24584735948E-01 -0.22415350234E-01  0.16690295024E+01  0.16693611347E+01  0.51109989000E-03 0.  1.
</event>
<event>
 6   3  0.2312675E+03  0.9118800E+02  0.7818608E-02  0.1180000E+00
       11   -1    0    0    0    0  0.00000000000E+00  0.00000000000E+00  0.54999999763E+01  0.55000000000E+01  0.51109989000E-03 0.  1.
     -623   -1    0    0    0    0  0.00000000000E+00  0.00000000000E+00  0.93234578044E-11  0.17124000000E+03  0.17124000000E+03 0. -1.
       11    1    1    2    0    0 -0.30366614935E-01 -0.55421312099E-02  0.26518322421E+00  0.26697424997E+00  0.51109989000E-03 0.  1.
     -623    1    1    2    0    0 -0.23021746909E-01 -0.10550730182E-01  0.20901999460E-02  0.17124000189E+03  0.17124000000E+03 0. -1.
     -611    1    1    2    0    0  0.35844065748E-01  0.11318804869E-01  0.35221090876E+01  0.35223096966E+01  0.51109989000E-03 0.  1.
      611    1    1    2    0    0  0.17544296023E-01  0.47740565007E-02  0.17106174573E+01  0.17107141609E+01  0.51109989000E-03 0.  1.
</event>
<event>
 6   3  0.2312675E+03  0.9118800E+02  0.7818608E-02  0.1180000E+00
       11   -1    0    0    0    0  0.00000000000E+00  0.00000000000E+00  0.54999999763E+01  0.55000000000E+01  0.51109989000E-03 0. -1.
     -623   -1    0    0    0    0  0.00000000000E+00  0.00000000000E+00  0.93234578044E-11  0.17124000000E+03  0.17124000000E+03 0.  1.
       11    1    1    2    0    0 -0.13002833299E+00  0.64968540691E-01  0.93193751906E+00  0.94320521590E+00  0.51109989000E-03 0. -1.
     -623    1    1    2    0    0 -0.10932492265E-01  0.23037090640E-01  0.14304841273E-01  0.17124000250E+03  0.17124000000E+03 0.  1.
     -611    1    1    2    0    0  0.12307185832E+00 -0.78192942037E-01  0.39554667467E+01  0.39581533907E+01  0.51109989000E-03 0. -1.
      611    1    1    2    0    0  0.17888966937E-01 -0.98126892930E-02  0.59829086919E+00  0.59863889732E+00  0.51109989000E-03 0.  1.
</event>
<event>
 6   3  0.2312675E+03  0.9118800E+02  0.7818608E-02  0.1180000E+00
       11   -1    0    0    0    0  0.00000000000E+00  0.00000000000E+00  0.54999999763E+01  0.55000000000E+01  0.51109989000E-03 0. -1.
     -623   -1    0    0    0    0  0.00000000000E+00  0.00000000000E+00  0.93234578044E-11  0.17124000000E+03  0.17124000000E+03 0. -1.
       11    1    1    2    0    0 -0.73099306652E-02  0.12135714181E-01  0.57524523310E+00  0.57541989023E+00  0.51109989000E-03 0. -1.
     -623    1    1    2    0    0 -0.96842155536E-03 -0.80340507859E-02  0.59706071355E-03  0.17124000019E+03  0.17124000000E+03 0. -1.
     -611    1    1    2    0    0 -0.25653483410E-01  0.86113256930E-02  0.16536588220E+01  0.16538802910E+01  0.51109989000E-03 0. -1.
      611    1    1    2    0    0  0.33931835631E-01 -0.12712989088E-01  0.32704988605E+01  0.32706996266E+01  0.51109989000E-03 0.  1.
</event>
<event>
 6   3  0.2312675E+03  0.9118800E+02  0.7818608E-02  0.1180000E+00
       11   -1    0    0    0    0  0.00000000000E+00  0.00000000000E+00  0.54999999763E+01  0.55000000000E+01  0.51109989000E-03 0.  1.
     -623   -1    0    0    0    0  0.00000000000E+00  0.00000000000E+00  0.93234578044E-11  0.17124000000E+03  0.17124000000E+03 0. -1.
       11    1    1    2    0    0 -0.48135542153E-01 -0.38879835079E-01  0.11424576755E+00  0.12992701266E+00  0.51109989000E-03 0.  1.
     -623    1    1    2    0    0 -0.17738226016E-01  0.21418535753E-01  0.16119652057E-01  0.17124000302E+03  0.17124000000E+03 0. -1.
     -611    1    1    2    0    0  0.10858503396E-01  0.11371852149E-02  0.94820242947E+00  0.94826542105E+00  0.51109989000E-03 0. -1.
      611    1    1    2    0    0  0.55015264776E-01  0.16324114112E-01  0.44214321275E+01  0.44218045496E+01  0.51109989000E-03 0. -1.
</event>
<event>
 6   3  0.2312675E+03  0.9118800E+02  0.7818608E-02  0.1180000E+00
       11   -1    0    0    0    0  0.00000000000E+00  0.00000000000E+00  0.54999999763E+01  0.55000000000E+01  0.51109989000E-03 0.  1.
     -623   -1    0    0    0    0  0.00000000000E+00  0.00000000000E+00  0.93234578044E-11  0.17124000000E+03  0.17124000000E+03 0.  1.
       11    1    1    2    0    0  0.19543764204E-01 -0.97256230285E-02  0.38040871232E+00  0.38103490141E+00  0.51109989000E-03 0.  1.
     -623    1    1    2    0    0  0.35363925108E-01 -0.93720788104E-02  0.96276955796E-03  0.17124000391E+03  0.17124000000E+03 0.  1.
     -611    1    1    2    0    0 -0.21359762402E-01  0.94232605824E-02  0.19132792053E+01  0.19134217036E+01  0.51109989000E-03 0. -1.
      611    1    1    2    0    0 -0.33547926906E-01  0.96744412551E-02  0.32053492887E+01  0.32055394838E+01  0.51109989000E-03 0.  1.
</event>
<event>
 6   3  0.2312675E+03  0.9118800E+02  0.7818608E-02  0.1180000E+00
       11   -1    0    0    0    0  0.00000000000E+00  0.00000000000E+00  0.54999999763E+01  0.55000000000E+01  0.51109989000E-03 0. -1.
     -623   -1    0    0    0    0  0.00000000000E+00  0.00000000000E+00  0.93234578044E-11  0.17124000000E+03  0.17124000000E+03 0.  1.
       11    1    1    2    0    0  0.11030509699E-01 -0.53144306058E-02  0.43377516126E-01  0.45075330784E-01  0.51109989000E-03 0. -1.
     -623    1    1    2    0    0 -0.33220875099E-01 -0.18370302239E-01  0.36409869742E-02  0.17124000425E+03  0.17124000000E+03 0.  1.
     -611    1    1    2    0    0  0.76701133777E-01  0.20033347652E-01  0.42003137462E+01  0.42010617975E+01  0.51109989000E-03 0. -1.
      611    1    1    2    0    0 -0.54510768377E-01  0.36513851925E-02  0.12526677270E+01  0.12538586252E+01  0.51109989000E-03 0.  1.
</event>
<event>
 6   3  0.2312675E+03  0.9118800E+02  0.7818608E-02  0.1180000E+00
       11   -1    0    0    0    0  0.00000000000E+00  0.00000000000E+00  0.54999999763E+01  0.55000000000E+01  0.51109989000E-03 0.  1.
     -623   -1    0    0    0    0  0.00000000000E+00  0.00000000000E+00  0.93234578044E-11  0.17124000000E+03  0.17124000000E+03 0.  1.
       11    1    1    2    0    0  0.71327588904E-01  0.17634210103E-01  0.41429666594E+00  0.42076190290E+00  0.51109989000E-03 0.  1.
     -623    1    1    2    0    0 -0.52428863735E-02  0.19052701161E-02  0.69364417271E-02  0.17124000023E+03  0.17124000000E+03 0.  1.
     -611    1    1    2    0    0 -0.57349807708E-01 -0.15169028553E-01  0.44330622848E+01  0.44334592118E+01  0.51109989000E-03 0.  1.
      611    1    1    2    0    0 -0.87348948238E-02 -0.43704516674E-02  0.64570458385E+00  0.64577865408E+00  0.51109989000E-03 0. -1.
</event>
<event>
 6   3  0.2312675E+03  0.9118800E+02  0.7818608E-02  0.1180000E+00
       11   -1    0    0    0    0  0.00000000000E+00  0.00000000000E+00  0.54999999763E+01  0.55000000000E+01  0.51109989000E-03 0.  1.
     -623   -1    0    0    0    0  0.00000000000E+00  0.00000000000E+00  0.93234578044E-11  0.17124000000E+03  0.17124000000E+03 0.  1.
       11    1    1    2    0    0 -0.52030053013E-02  0.31997937212E-02  0.34750194688E+00  0.34755600161E+00  0.51109989000E-03 0.  1.
     -623    1    1    2    0    0  0.16625272321E-02  0.10784415677E-02  0.80494761358E-03  0.17124000001E+03  0.17124000000E+03 0.  1.
     -611    1    1    2    0    0 -0.36391558167E-01  0.15297818072E-01  0.16686873737E+01  0.16691543311E+01  0.51109989000E-03 0.  1.
      611    1    1    2    0    0  0.39932036236E-01 -0.19576053361E-01  0.34830057082E+01  0.34832896540E+01  0.51109989000E-03 0. -1.
</event>
<event>
 6   3  0.2312675E+03  0.9118800E+02  0.7818608E-02  0.1180000E+00
       11   -1    0    0    0    0  0.00000000000E+00  0.00000000000E+00  0.54999999763E+01  0.55000000000E+01  0.51109989000E-03 0. -1.
     -623   -1    0    0    0    0  0.00000000000E+00  0.00000000000E+00  0.93234578044E-11  0.17124000000E+03  0.17124000000E+03 0.  1.
       11    1    1    2    0    0 -0.15299172091E-02 -0.53458237343E-02  0.77403450046E+00  0.77405464123E+00  0.51109989000E-03 0. -1.
     -623    1    1    2    0    0  0.24521885114E-02 -0.14426410969E-02  0.11268482436E-02  0.17124000003E+03  0.17124000000E+03 0.  1.
     -611    1    1    2    0    0 -0.41296197900E-01  0.34029420504E-01  0.23994214815E+01  0.24000181425E+01  0.51109989000E-03 0.  1.
      611    1    1    2    0    0  0.40373926597E-01 -0.27240955673E-01  0.23254171461E+01  0.23259271889E+01  0.51109989000E-03 0. -1.
</event>
<event>
 6   3  0.2312675E+03  0.9118800E+02  0.7818608E-02  0.1180000E+00
       11   -1    0    0    0    0  0.00000000000E+00  0.00000000000E+00  0.54999999763E+01  0.55000000000E+01  0.51109989000E-03 0. -1.
     -623   -1    0    0    0    0  0.00000000000E+00  0.00000000000E+00  0.93234578044E-11  0.17124000000E+03  0.17124000000E+03 0.  1.
       11    1    1    2    0    0 -0.54484813660E-02  0.43409607039E-02  0.70364144510E+00  0.70367611468E+00  0.51109989000E-03 0. -1.
     -623    1    1    2    0    0  0.97379140809E-01 -0.13991608078E-01  0.95460079656E-03  0.17124002826E+03  0.17124000000E+03 0.  1.
     -611    1    1    2    0    0 -0.68664481819E-01  0.60424709912E-02  0.35730241283E+01  0.35736889911E+01  0.51109989000E-03 0. -1.
      611    1    1    2    0    0 -0.23266177631E-01  0.36081763834E-02  0.12223798023E+01  0.12226066319E+01  0.51109989000E-03 0.  1.
</event>
<event>
 6   3  0.2312675E+03  0.9118800E+02  0.7818608E-02  0.1180000E+00
       11   -1    0    0    0    0  0.00000000000E+00  0.00000000000E+00  0.54999999763E+01  0.55000000000E+01  0.51109989000E-03 0.  1.
     -623   -1    0    0    0    0  0.00000000000E+00  0.00000000000E+00  0.93234578044E-11  0.17124000000E+03  0.17124000000E+03 0.  1.
       11    1    1    2    0    0  0.63790893451E-01  0.14193069995E-01  0.94584882621E+00  0.94810388913E+00  0.51109989000E-03 0.  1.
     -623    1    1    2    0    0 -0.64036444274E-02  0.51137685498E-02  0.26627689910E-02  0.17124000022E+03  0.17124000000E+03 0.  1.
     -611    1    1    2    0    0 -0.46998218784E-01 -0.17243288983E-01  0.35908326236E+01  0.35911816100E+01  0.51109989000E-03 0.  1.
      611    1    1    2    0    0 -0.10389030240E-01 -0.20635495619E-02  0.96065575743E+00  0.96071428411E+00  0.51109989000E-03 0. -1.
</event>
<event>
 6   3  0.2312675E+03  0.9118800E+02  0.7818608E-02  0.1180000E+00
       11   -1    0    0    0    0  0.00000000000E+00  0.00000000000E+00  0.54999999763E+01  0.55000000000E+01  0.51109989000E-03 0.  1.
     -623   -1    0    0    0    0  0.00000000000E+00  0.00000000000E+00  0.93234578044E-11  0.17124000000E+03  0.17124000000E+03 0. -1.
       11    1    1    2    0    0 -0.15354670784E-01  0.35527499564E-01  0.61879054706E+00  0.61999997701E+00  0.51109989000E-03 0.  1.
     -623    1    1    2    0    0  0.32864204098E-02  0.80503687960E-03  0.21939388070E-02  0.17124000005E+03  0.17124000000E+03 0. -1.
     -611    1    1    2    0    0 -0.23493477354E-01  0.20246791944E-01  0.16839168196E+01  0.16842024797E+01  0.51109989000E-03 0.  1.
      611    1    1    2    0    0  0.35561727728E-01 -0.56579328387E-01  0.31950986708E+01  0.31957974958E+01  0.51109989000E-03 0. -1.
</event>
<event>
 6   3  0.2312675E+03  0.9118800E+02  0.7818608E-02  0.1180000E+00
       11   -1    0    0    0    0  0.00000000000E+00  0.00000000000E+00  0.54999999763E+01  0.55000000000E+01  0.51109989000E-03 0. -1.
     -623   -1    0    0    0    0  0.00000000000E+00  0.00000000000E+00  0.93234578044E-11  0.17124000000E+03  0.17124000000E+03 0.  1.
       11    1    1    2    0    0 -0.12047690788E-01 -0.53302367204E-02  0.46742255485E-01  0.48566016387E-01  0.51109989000E-03 0. -1.
     -623    1    1    2    0    0 -0.11856083092E-01  0.72557715437E-02  0.34316478425E-02  0.17124000060E+03  0.17124000000E+03 0.  1.
     -611    1    1    2    0    0  0.57585275082E-01 -0.29472539842E-01  0.46310409268E+01  0.46314927422E+01  0.51109989000E-03 0. -1.
      611    1    1    2    0    0 -0.33681501202E-01  0.27547005019E-01  0.81878514615E+00  0.81994064284E+00  0.51109989000E-03 0.  1.
</event>
<event>
 6   3  0.2312675E+03  0.9118800E+02  0.7818608E-02  0.1180000E+00
       11   -1    0    0    0    0  0.00000000000E+00  0.00000000000E+00  0.54999999763E+01  0.55000000000E+01  0.51109989000E-03 0. -1.
     -623   -1    0    0    0    0  0.00000000000E+00  0.00000000000E+00  0.93234578044E-11  0.17124000000E+03  0.17124000000E+03 0. -1.
       11    1    1    2    0    0  0.56917144701E-01  0.25179610596E-02  0.49668132169E+00  0.49993849425E+00  0.51109989000E-03 0. -1.
     -623    1    1    2    0    0 -0.26120275753E-01  0.61621317708E-01  0.71668162022E-02  0.17124001323E+03  0.17124000000E+03 0. -1.
     -611    1    1    2    0    0  0.72686703739E-01 -0.54438029700E-01  0.19302353846E+01  0.19323705020E+01  0.51109989000E-03 0.  1.
      611    1    1    2    0    0 -0.10348357269E+00 -0.97012490679E-02  0.30659164538E+01  0.30676777743E+01  0.51109989000E-03 0. -1.
</event>
<event>
 6   3  0.2312675E+03  0.9118800E+02  0.7818608E-02  0.1180000E+00
       11   -1    0    0    0    0  0.00000000000E+00  0.00000000000E+00  0.54999999763E+01  0.55000000000E+01  0.51109989000E-03 0.  1.
     -623   -1    0    0    0    0  0.00000000000E+00  0.00000000000E+00  0.93234578044E-11  0.17124000000E+03  0.17124000000E+03 0. -1.
       11    1    1    2    0    0  0.60281732197E-01  0.36822289559E-02  0.73445137701E+00  0.73693048008E+00  0.51109989000E-03 0.  1.
     -623    1    1    2    0    0 -0.43931850021E-02  0.14757390331E-03  0.28088070010E-02  0.17124000008E+03  0.17124000000E+03 0. -1.
     -611    1    1    2    0    0 -0.22320495423E-01 -0.10708403354E-02  0.19030085462E+01  0.19031398107E+01  0.51109989000E-03 0.  1.
      611    1    1    2    0    0 -0.33568051733E-01 -0.27589625211E-02  0.28597312429E+01  0.28599296265E+01  0.51109989000E-03 0. -1.
</event>
<event>
 6   3  0.2312675E+03  0.9118800E+02  0.7818608E-02  0.1180000E+00
       11   -1    0    0    0    0  0.00000000000E+00  0.00000000000E+00  0.54999999763E+01  0.55000000000E+01  0.51109989000E-03 0.  1.
     -623   -1    0    0    0    0  0.00000000000E+00  0.00000000000E+00  0.93234578044E-11  0.17124000000E+03  0.17124000000E+03 0.  1.
       11    1    1    2    0    0  0.23674957199E-01  0.53636535169E-01  0.44179671980E+00  0.44567026416E+00  0.51109989000E-03 0.  1.
     -623    1    1    2    0    0 -0.30169564177E-01 -0.90220512520E-02  0.49232326524E-02  0.17124000297E+03  0.17124000000E+03 0.  1.
     -611    1    1    2    0    0 -0.23998659435E-01  0.16965804579E-01  0.23064538627E+01  0.23066411632E+01  0.51109989000E-03 0.  1.
      611    1    1    2    0    0  0.30493266412E-01 -0.61580288496E-01  0.27468261612E+01  0.27476856065E+01  0.51109989000E-03 0. -1.
</event>
<event>
 6   3  0.2312675E+03  0.9118800E+02  0.7818608E-02  0.1180000E+00
       11   -1    0    0    0    0  0.00000000000E+00  0.00000000000E+00  0.54999999763E+01  0.55000000000E+01  0.51109989000E-03 0. -1.
     -623   -1    0    0    0    0  0.00000000000E+00  0.00000000000E+00  0.93234578044E-11  0.17124000000E+03  0.17124000000E+03 0.  1.
       11    1    1    2    0    0  0.13046624332E-01 -0.14507689024E-01  0.59207190383E+00  0.59239352459E+00  0.51109989000E-03 0. -1.
     -623    1    1    2    0    0  0.18160286080E-02  0.21832965250E-02  0.91667064115E-03  0.17124000003E+03  0.17124000000E+03 0.  1.
     -611    1    1    2    0    0 -0.37421155388E-01 -0.14092729826E-01  0.31300671816E+01  0.31303226304E+01  0.51109989000E-03 0. -1.
      611    1    1    2    0    0  0.22558502447E-01  0.26417122326E-01  0.17769442203E+01  0.17772838191E+01  0.51109989000E-03 0.  1.
</event>
<event>
 6   3  0.2312675E+03  0.9118800E+02  0.7818608E-02  0.1180000E+00
       11   -1    0    0    0    0  0.00000000000E+00  0.00000000000E+00  0.54999999763E+01  0.55000000000E+01  0.51109989000E-03 0.  1.
     -623   -1    0    0    0    0  0.00000000000E+00  0.00000000000E+00  0.93234578044E-11  0.17124000000E+03  0.17124000000E+03 0.  1.
       11    1    1    2    0    0 -0.69734411487E-03 -0.37541381546E-02  0.33009627277E-01  0.33233666035E-01  0.51109989000E-03 0.  1.
     -623    1    1    2    0    0 -0.10590568344E-01  0.10836733695E-01  0.11052191707E-02  0.17124000067E+03  0.17124000000E+03 0.  1.
     -611    1    1    2    0    0 -0.33560438934E-01  0.12594822486E-01  0.10555917362E+01  0.10562003159E+01  0.51109989000E-03 0. -1.
      611    1    1    2    0    0  0.44848351394E-01 -0.19677418026E-01  0.44102933937E+01  0.44105653442E+01  0.51109989000E-03 0.  1.
</event>
<event>
 6   3  0.2312675E+03  0.9118800E+02  0.7818608E-02  0.1180000E+00
       11   -1    0    0    0    0  0.00000000000E+00  0.00000000000E+00  0.54999999763E+01  0.55000000000E+01  0.51109989000E-03 0. -1.
     -623   -1    0    0    0    0  0.00000000000E+00  0.00000000000E+00  0.93234578044E-11  0.17124000000E+03  0.17124000000E+03 0. -1.
       11    1    1    2    0    0 -0.44370479615E-01 -0.40986938372E-01  0.80987799677E+00  0.81212763741E+00  0.51109989000E-03 0. -1.
     -623    1    1    2    0    0 -0.11722035004E-01  0.28855497512E-02  0.52721210334E-02  0.17124000051E+03  0.17124000000E+03 0. -1.
     -611    1    1    2    0    0 -0.42244583566E-01  0.30524540675E-01  0.27640925724E+01  0.27645839402E+01  0.51109989000E-03 0. -1.
      611    1    1    2    0    0  0.98337098186E-01  0.75768479458E-02  0.19207572861E+01  0.19232879157E+01  0.51109989000E-03 0.  1.
</event>
<event>
 6   3  0.2312675E+03  0.9118800E+02  0.7818608E-02  0.1180000E+00
       11   -1    0    0    0    0  0.00000000000E+00  0.00000000000E+00  0.54999999763E+01  0.55000000000E+01  0.51109989000E-03 0. -1.
     -623   -1    0    0    0    0  0.00000000000E+00  0.00000000000E+00  0.93234578044E-11  0.17124000000E+03  0.17124000000E+03 0. -1.
       11    1    1    2    0    0 -0.24779197757E-03 -0.89502364565E-02  0.14326494262E-01  0.16902005633E-01  0.51109989000E-03 0. -1.
     -623    1    1    2    0    0  0.81920341446E-02  0.19706416487E-02  0.32608226634E-02  0.17124000024E+03  0.17124000000E+03 0. -1.
     -611    1    1    2    0    0  0.37286067758E-01  0.15386214398E-01  0.28001574533E+01  0.28004480018E+01  0.51109989000E-03 0.  1.
      611    1    1    2    0    0 -0.45230309925E-01 -0.84066195903E-02  0.26822552060E+01  0.26826497542E+01  0.51109989000E-03 0. -1.
</event>
<event>
 6   3  0.2312675E+03  0.9118800E+02  0.7818608E-02  0.1180000E+00
       11   -1    0    0    0    0  0.00000000000E+00  0.00000000000E+00  0.54999999763E+01  0.55000000000E+01  0.51109989000E-03 0.  1.
     -623   -1    0    0    0    0  0.00000000000E+00  0.00000000000E+00  0.93234578044E-11  0.17124000000E+03  0.17124000000E+03 0. -1.
       11    1    1    2    0    0 -0.14185681447E-01 -0.63833349044E-01  0.22992387395E+00  0.23904221185E+00  0.51109989000E-03 0.  1.
     -623    1    1    2    0    0 -0.37096322867E-01 -0.23375228612E-01  0.15690785395E-01  0.17124000633E+03  0.17124000000E+03 0. -1.
     -611    1    1    2    0    0  0.13994909834E+00  0.67233864380E-01  0.23377193345E+01  0.23428696274E+01  0.51109989000E-03 0.  1.
      611    1    1    2    0    0 -0.88667094026E-01  0.19974713277E-01  0.29166659824E+01  0.29180818283E+01  0.51109989000E-03 0. -1.
</event>
<event>
 6   3  0.2312675E+03  0.9118800E+02  0.7818608E-02  0.1180000E+00
       11   -1    0    0    0    0  0.00000000000E+00  0.00000000000E+00  0.54999999763E+01  0.55000000000E+01  0.51109989000E-03 0.  1.
     -623   -1    0    0    0    0  0.00000000000E+00  0.00000000000E+00  0.93234578044E-11  0.17124000000E+03  0.17124000000E+03 0.  1.
       11    1    1    2    0    0  0.36584601053E-01  0.34423902432E-01  0.81655615849E+00  0.81810003012E+00  0.51109989000E-03 0.  1.
     -623    1    1    2    0    0  0.13594092919E-02 -0.28022818060E-01  0.22904947441E-02  0.17124000231E+03  0.17124000000E+03 0.  1.
     -611    1    1    2    0    0  0.16067017398E-01 -0.21854718865E-01  0.13872740406E+01  0.13875392977E+01  0.51109989000E-03 0. -1.
      611    1    1    2    0    0 -0.54011027743E-01  0.15453634494E-01  0.32938792825E+01  0.32943583586E+01  0.51109989000E-03 0.  1.
</event>
<event>
 6   3  0.2312675E+03  0.9118800E+02  0.7818608E-02  0.1180000E+00
       11   -1    0    0    0    0  0.00000000000E+00  0.00000000000E+00  0.54999999763E+01  0.55000000000E+01  0.51109989000E-03 0.  1.
     -623   -1    0    0    0    0  0.00000000000E+00  0.00000000000E+00  0.93234578044E-11  0.17124000000E+03  0.17124000000E+03 0.  1.
       11    1    1    2    0    0  0.44104229422E-02 -0.50312605288E-02  0.11065319572E-01  0.12940940204E-01  0.51109989000E-03 0.  1.
     -623    1    1    2    0    0 -0.87033756935E-02  0.21215519859E-02  0.25566291948E-02  0.17124000025E+03  0.17124000000E+03 0.  1.
     -611    1    1    2    0    0  0.39908514615E-01 -0.17019844433E-01  0.34412764870E+01  0.34415500121E+01  0.51109989000E-03 0.  1.
      611    1    1    2    0    0 -0.35615561864E-01  0.19929552976E-01  0.20451015404E+01  0.20455087942E+01  0.51109989000E-03 0. -1.
</event>
<event>
 6   3  0.2312675E+03  0.9118800E+02  0.7818608E-02  0.1180000E+00
       11   -1    0    0    0    0  0.00000000000E+00  0.00000000000E+00  0.54999999763E+01  0.55000000000E+01  0.51109989000E-03 0.  1.
     -623   -1    0    0    0    0  0.00000000000E+00  0.00000000000E+00  0.93234578044E-11  0.17124000000E+03  0.17124000000E+03 0.  1.
       11    1    1    2    0    0  0.59551091287E-01 -0.89757940156E-02  0.70800395169E+00  0.71056087296E+00  0.51109989000E-03 0.  1.
     -623    1    1    2    0    0 -0.76789363655E-02  0.23734390114E-01  0.34919937960E-02  0.17124000185E+03  0.17124000000E+03 0.  1.
     -611    1    1    2    0    0  0.15333043283E-01  0.14623090720E-01  0.10665333068E+01  0.10667438740E+01  0.51109989000E-03 0. -1.
      611    1    1    2    0    0 -0.67205198204E-01 -0.29381686818E-01  0.37219707239E+01  0.37226934004E+01  0.51109989000E-03 0.  1.
</event>
<event>
 6   3  0.2312675E+03  0.9118800E+02  0.7818608E-02  0.1180000E+00
       11   -1    0    0    0    0  0.00000000000E+00  0.00000000000E+00  0.54999999763E+01  0.55000000000E+01  0.51109989000E-03 0.  1.
     -623   -1    0    0    0    0  0.00000000000E+00  0.00000000000E+00  0.93234578044E-11  0.17124000000E+03  0.17124000000E+03 0.  1.
       11    1    1    2    0    0  0.80487328458E-01 -0.72387188826E-01  0.75153791100E+00  0.75929415120E+00  0.51109989000E-03 0.  1.
     -623    1    1    2    0    0  0.16982048751E-01 -0.74640654054E-02  0.94325471392E-02  0.17124000126E+03  0.17124000000E+03 0.  1.
     -611    1    1    2    0    0 -0.28542553857E-01  0.23878002986E-01  0.14142829163E+01  0.14147725135E+01  0.51109989000E-03 0. -1.
      611    1    1    2    0    0 -0.68926823346E-01  0.55973251240E-01  0.33247466015E+01  0.33259320704E+01  0.51109989000E-03 0.  1.
</event>
<event>
 6   3  0.2312675E+03  0.9118800E+02  0.7818608E-02  0.1180000E+00
       11   -1    0    0    0    0  0.00000000000E+00  0.00000000000E+00  0.54999999763E+01  0.55000000000E+01  0.51109989000E-03 0. -1.
     -623   -1    0    0    0    0  0.00000000000E+00  0.00000000000E+00  0.93234578044E-11  0.17124000000E+03  0.17124000000E+03 0.  1.
       11    1    1    2    0    0  0.62446047985E-02 -0.45047011353E-02  0.20456026476E+00  0.20470576583E+00  0.51109989000E-03 0. -1.
     -623    1    1    2    0    0 -0.45145726685E-02  0.19579616255E-02  0.74945376640E-03  0.17124000007E+03  0.17124000000E+03 0.  1.
     -611    1    1    2    0    0  0.38055861098E-01  0.91174992068E-02  0.23106224720E+01  0.23109538825E+01  0.51109989000E-03 0. -1.
      611    1    1    2    0    0 -0.39785893228E-01 -0.65707596970E-02  0.29840677857E+01  0.29843402794E+01  0.51109989000E-03 0.  1.
</event>
<event>
 6   3  0.2312675E+03  0.9118800E+02  0.7818608E-02  0.1180000E+00
       11   -1    0    0    0    0  0.00000000000E+00  0.00000000000E+00  0.54999999763E+01  0.55000000000E+01  0.51109989000E-03 0.  1.
     -623   -1    0    0    0    0  0.00000000000E+00  0.00000000000E+00  0.93234578044E-11  0.17124000000E+03  0.17124000000E+03 0.  1.
       11    1    1    2    0    0 -0.24293581452E-02  0.17673677787E-02  0.25260146542E-01  0.25443301600E-01  0.51109989000E-03 0.  1.
     -623    1    1    2    0    0  0.22736261227E-03 -0.60785601131E-03  0.53332611739E-03  0.17124000000E+03  0.17124000000E+03 0.  1.
     -611    1    1    2    0    0 -0.29218732093E-01 -0.67254639087E-02  0.27208201245E+01  0.27209853688E+01  0.51109989000E-03 0. -1.
      611    1    1    2    0    0  0.31420727626E-01  0.55659521413E-02  0.27533863789E+01  0.27535713273E+01  0.51109989000E-03 0.  1.
</event>
<event>
 6   3  0.2312675E+03  0.9118800E+02  0.7818608E-02  0.1180000E+00
       11   -1    0    0    0    0  0.00000000000E+00  0.00000000000E+00  0.54999999763E+01  0.55000000000E+01  0.51109989000E-03 0.  1.
     -623   -1    0    0    0    0  0.00000000000E+00  0.00000000000E+00  0.93234578044E-11  0.17124000000E+03  0.17124000000E+03 0. -1.
       11    1    1    2    0    0 -0.35778901884E-02  0.18756262724E-02  0.24912027907E-02  0.47735297795E-02  0.51109989000E-03 0.  1.
     -623    1    1    2    0    0  0.88983259517E-02 -0.43737371974E-02  0.26868555377E-02  0.17124000031E+03  0.17124000000E+03 0. -1.
     -611    1    1    2    0    0 -0.35577636460E-01  0.45053036105E-02  0.26529910145E+01  0.26532334331E+01  0.51109989000E-03 0.  1.
      611    1    1    2    0    0  0.30257200697E-01 -0.20071926855E-02  0.28418309034E+01  0.28419927290E+01  0.51109989000E-03 0. -1.
</event>
<event>
 6   3  0.2312675E+03  0.9118800E+02  0.7818608E-02  0.1180000E+00
       11   -1    0    0    0    0  0.00000000000E+00  0.00000000000E+00  0.54999999763E+01  0.55000000000E+01  0.51109989000E-03 0. -1.
     -623   -1    0    0    0    0  0.00000000000E+00  0.00000000000E+00  0.93234578044E-11  0.17124000000E+03  0.17124000000E+03 0.  1.
       11    1    1    2    0    0  0.21842041033E-01  0.73024556853E-02  0.10821400382E+01  0.10823852013E+01  0.51109989000E-03 0. -1.
     -623    1    1    2    0    0  0.72381925077E-01 -0.55986429716E-01  0.18777072043E-02  0.17124002446E+03  0.17124000000E+03 0.  1.
     -611    1    1    2    0    0 -0.55843436655E-01  0.55166249417E-01  0.25735304141E+01  0.25747273366E+01  0.51109989000E-03 0. -1.
      611    1    1    2    0    0 -0.38380529456E-01 -0.64822753869E-02  0.18424518168E+01  0.18428630018E+01  0.51109989000E-03 0.  1.
</event>
<event>
 6   3  0.2312675E+03  0.9118800E+02  0.7818608E-02  0.1180000E+00
       11   -1    0    0    0    0  0.00000000000E+00  0.00000000000E+00  0.54999999763E+01  0.55000000000E+01  0.51109989000E-03 0.  1.
     -623   -1    0    0    0    0  0.00000000000E+00  0.00000000000E+00  0.93234578044E-11  0.17124000000E+03  0.17124000000E+03 0. -1.
       11    1    1    2    0    0  0.12986878352E-01  0.44254681506E-02  0.25480891664E+00  0.25517854338E+00  0.51109989000E-03 0.  1.
     -623    1    1    2    0    0  0.25067832227E-01 -0.23020261576E-01  0.93670898250E-03  0.17124000338E+03  0.17124000000E+03 0. -1.
     -611    1    1    2    0    0 -0.55217243873E-01  0.19261283603E-01  0.36138539483E+01  0.36143271244E+01  0.51109989000E-03 0.  1.
      611    1    1    2    0    0  0.17162533294E-01 -0.66649017812E-03  0.16304004023E+01  0.16304909475E+01  0.51109989000E-03 0. -1.
</event>
<event>
 6   3  0.2312675E+03  0.9118800E+02  0.7818608E-02  0.1180000E+00
       11   -1    0    0    0    0  0.00000000000E+00  0.00000000000E+00  0.54999999763E+01  0.55000000000E+01  0.51109989000E-03 0. -1.
     -623   -1    0    0    0    0  0.00000000000E+00  0.00000000000E+00  0.93234578044E-11  0.17124000000E+03  0.17124000000E+03 0.  1.
       11    1    1    2    0    0  0.28717476136E-01  0.32401432397E-01  0.45104542395E-01  0.62523813261E-01  0.51109989000E-03 0. -1.
     -623    1    1    2    0    0 -0.13413883686E-01 -0.33000922778E-01  0.18986172509E-01  0.17124000476E+03  0.17124000000E+03 0.  1.
     -611    1    1    2    0    0  0.51097044816E-01 -0.75352290085E-02  0.13070090765E+01  0.13080293097E+01  0.51109989000E-03 0. -1.
      611    1    1    2    0    0 -0.66400637266E-01  0.81347193900E-02  0.41289001848E+01  0.41294421192E+01  0.51109989000E-03 0.  1.
</event>
<event>
 6   3  0.2312675E+03  0.9118800E+02  0.7818608E-02  0.1180000E+00
       11   -1    0    0    0    0  0.00000000000E+00  0.00000000000E+00  0.54999999763E+01  0.55000000000E+01  0.51109989000E-03 0.  1.
     -623   -1    0    0    0    0  0.00000000000E+00  0.00000000000E+00  0.93234578044E-11  0.17124000000E+03  0.17124000000E+03 0. -1.
       11    1    1    2    0    0  0.20155060248E-01  0.23271434420E-02  0.12056084609E+00  0.12225719154E+00  0.51109989000E-03 0.  1.
     -623    1    1    2    0    0 -0.53021530456E-02  0.55167262074E-02  0.20342161057E-02  0.17124000018E+03  0.17124000000E+03 0. -1.
     -611    1    1    2    0    0  0.22440335631E-01 -0.23843679000E-02  0.20252164598E+01  0.20253422486E+01  0.51109989000E-03 0. -1.
      611    1    1    2    0    0 -0.37293242833E-01 -0.54595017496E-02  0.33521884544E+01  0.33524003769E+01  0.51109989000E-03 0.  1.
</event>
<event>
 6   3  0.2312675E+03  0.9118800E+02  0.7818608E-02  0.1180000E+00
       11   -1    0    0    0    0  0.00000000000E+00  0.00000000000E+00  0.54999999763E+01  0.55000000000E+01  0.51109989000E-03 0.  1.
     -623   -1    0    0    0    0  0.00000000000E+00  0.00000000000E+00  0.93234578044E-11  0.17124000000E+03  0.17124000000E+03 0. -1.
       11    1    1    2    0    0 -0.41655750882E-02 -0.13884532651E-01  0.13195047740E+00  0.13274532750E+00  0.51109989000E-03 0.  1.
     -623    1    1    2    0    0  0.60749973485E-02 -0.40239469782E-02  0.44691000384E-02  0.17124000021E+03  0.17124000000E+03 0. -1.
     -611    1    1    2    0    0  0.71423167963E-01 -0.50726688608E-01  0.16578214275E+01  0.16601345164E+01  0.51109989000E-03 0. -1.
      611    1    1    2    0    0 -0.73332590223E-01  0.68635168237E-01  0.37057589713E+01  0.37071199427E+01  0.51109989000E-03 0.  1.
</event>
<event>
 6   3  0.2312675E+03  0.9118800E+02  0.7818608E-02  0.1180000E+00
       11   -1    0    0    0    0  0.00000000000E+00  0.00000000000E+00  0.54999999763E+01  0.55000000000E+01  0.51109989000E-03 0. -1.
     -623   -1    0    0    0    0  0.00000000000E+00  0.00000000000E+00  0.93234578044E-11  0.17124000000E+03  0.17124000000E+03 0. -1.
       11    1    1    2    0    0 -0.87504977198E-02 -0.99737167055E-02  0.44003759171E+00  0.44023787840E+00  0.51109989000E-03 0. -1.
     -623    1    1    2    0    0 -0.15058350301E-02  0.20383332113E-01  0.69304816965E-03  0.17124000122E+03  0.17124000000E+03 0. -1.
     -611    1    1    2    0    0 -0.29311113264E-01  0.65856826151E-03  0.19657900988E+01  0.19660087866E+01  0.51109989000E-03 0.  1.
      611    1    1    2    0    0  0.39567446014E-01 -0.11068183670E-01  0.30934792378E+01  0.30937521140E+01  0.51109989000E-03 0. -1.
</event>
<event>
 6   3  0.2312675E+03  0.9118800E+02  0.7818608E-02  0.1180000E+00
       11   -1    0    0    0    0  0.00000000000E+00  0.00000000000E+00  0.54999999763E+01  0.55000000000E+01  0.51109989000E-03 0.  1.
     -623   -1    0    0    0    0  0.00000000000E+00  0.00000000000E+00  0.93234578044E-11  0.17124000000E+03  0.17124000000E+03 0. -1.
       11    1    1    2    0    0  0.19242971570E-02 -0.97449387576E-03  0.22764733548E-01  0.22872404212E-01  0.51109989000E-03 0.  1.
     -623    1    1    2    0    0 -0.90291938660E-03  0.58189589383E-03  0.79578484874E-03  0.17124000001E+03  0.17124000000E+03 0. -1.
     -611    1    1    2    0    0  0.27189430258E-01 -0.33214497835E-01  0.26650715802E+01  0.26654172763E+01  0.51109989000E-03 0. -1.
      611    1    1    2    0    0 -0.28210808028E-01  0.33607095817E-01  0.28113678777E+01  0.28117103143E+01  0.51109989000E-03 0.  1.
</event>
<event>
 6   3  0.2312675E+03  0.9118800E+02  0.7818608E-02  0.1180000E+00
       11   -1    0    0    0    0  0.00000000000E+00  0.00000000000E+00  0.54999999763E+01  0.55000000000E+01  0.51109989000E-03 0.  1.
     -623   -1    0    0    0    0  0.00000000000E+00  0.00000000000E+00  0.93234578044E-11  0.17124000000E+03  0.17124000000E+03 0. -1.
       11    1    1    2    0    0  0.72130831669E-02  0.21218438811E-01  0.93127688030E+00  0.93154663851E+00  0.51109989000E-03 0.  1.
     -623    1    1    2    0    0 -0.21205948402E-01 -0.42518223271E-01  0.14175591858E-02  0.17124000660E+03  0.17124000000E+03 0. -1.
     -611    1    1    2    0    0  0.41833225576E-01 -0.23642777915E-01  0.18308460404E+01  0.18314765858E+01  0.51109989000E-03 0.  1.
      611    1    1    2    0    0 -0.27840360341E-01  0.44942562373E-01  0.27364594963E+01  0.27369701781E+01  0.51109989000E-03 0. -1.
</event>
<event>
 6   3  0.2312675E+03  0.9118800E+02  0.7818608E-02  0.1180000E+00
       11   -1    0    0    0    0  0.00000000000E+00  0.00000000000E+00  0.54999999763E+01  0.55000000000E+01  0.51109989000E-03 0. -1.
     -623   -1    0    0    0    0  0.00000000000E+00  0.00000000000E+00  0.93234578044E-11  0.17124000000E+03  0.17124000000E+03 0. -1.
       11    1    1    2    0    0 -0.18893165496E-01  0.41992708632E-02  0.74346041990E+00  0.74371247318E+00  0.51109989000E-03 0. -1.
     -623    1    1    2    0    0  0.81467584772E-01  0.30593365285E-01  0.87643362154E-03  0.17124002211E+03  0.17124000000E+03 0. -1.
     -611    1    1    2    0    0 -0.38094765855E-01 -0.34089615879E-01  0.33103380838E+01  0.33107328197E+01  0.51109989000E-03 0. -1.
      611    1    1    2    0    0 -0.24479653435E-01 -0.70302027438E-03  0.14453250399E+01  0.14455325938E+01  0.51109989000E-03 0.  1.
</event>
<event>
 6   3  0.2312675E+03  0.9118800E+02  0.7818608E-02  0.1180000E+00
       11   -1    0    0    0    0  0.00000000000E+00  0.00000000000E+00  0.54999999763E+01  0.55000000000E+01  0.51109989000E-03 0. -1.
     -623   -1    0    0    0    0  0.00000000000E+00  0.00000000000E+00  0.93234578044E-11  0.17124000000E+03  0.17124000000E+03 0.  1.
       11    1    1    2    0    0 -0.56779438708E-01  0.43753528528E-01  0.74308640567E+00  0.74653596258E+00  0.51109989000E-03 0. -1.
     -623    1    1    2    0    0 -0.25678566413E-01 -0.10971540562E-01  0.42803759377E-02  0.17124000233E+03  0.17124000000E+03 0.  1.
     -611    1    1    2    0    0  0.53092422767E-01 -0.21551375517E-01  0.30629296182E+01  0.30634655823E+01  0.51109989000E-03 0. -1.
      611    1    1    2    0    0  0.29365582344E-01 -0.11230612445E-01  0.16897035759E+01  0.16899961242E+01  0.51109989000E-03 0. -1.
</event>
<event>
 6   3  0.2312675E+03  0.9118800E+02  0.7818608E-02  0.1180000E+00
       11   -1    0    0    0    0  0.00000000000E+00  0.00000000000E+00  0.54999999763E+01  0.55000000000E+01  0.51109989000E-03 0. -1.
     -623   -1    0    0    0    0  0.00000000000E+00  0.00000000000E+00  0.93234578044E-11  0.17124000000E+03  0.17124000000E+03 0.  1.
       11    1    1    2    0    0  0.14093318277E-01 -0.11632494256E-01  0.49673097635E-01  0.52930278616E-01  0.51109989000E-03 0. -1.
     -623    1    1    2    0    0 -0.84744750393E-02  0.22812611041E-01  0.43145765673E-02  0.17124000178E+03  0.17124000000E+03 0.  1.
     -611    1    1    2    0    0 -0.48922230370E-01  0.20174139997E-01  0.30510540199E+01  0.30515129483E+01  0.51109989000E-03 0. -1.
      611    1    1    2    0    0  0.43303387133E-01 -0.31354256783E-01  0.23949582822E+01  0.23955549895E+01  0.51109989000E-03 0.  1.
</event>
<event>
 6   3  0.2312675E+03  0.9118800E+02  0.7818608E-02  0.1180000E+00
       11   -1    0    0    0    0  0.00000000000E+00  0.00000000000E+00  0.54999999763E+01  0.55000000000E+01  0.51109989000E-03 0.  1.
     -623   -1    0    0    0    0  0.00000000000E+00  0.00000000000E+00  0.93234578044E-11  0.17124000000E+03  0.17124000000E+03 0. -1.
       11    1    1    2    0    0 -0.80864059349E-02 -0.58800129658E-02  0.53906526134E-01  0.54828270959E-01  0.51109989000E-03 0.  1.
     -623    1    1    2    0    0 -0.41873548363E-02  0.50565423585E-02  0.16291965627E-02  0.17124000013E+03  0.17124000000E+03 0. -1.
     -611    1    1    2    0    0 -0.31390724172E-01 -0.14327016028E-01  0.13296384656E+01  0.13300862195E+01  0.51109989000E-03 0. -1.
      611    1    1    2    0    0  0.43664484944E-01  0.15150486635E-01  0.41148257881E+01  0.41150853760E+01  0.51109989000E-03 0.  1.
</event>
<event>
 6   3  0.2312675E+03  0.9118800E+02  0.7818608E-02  0.1180000E+00
       11   -1    0    0    0    0  0.00000000000E+00  0.00000000000E+00  0.54999999763E+01  0.55000000000E+01  0.51109989000E-03 0. -1.
     -623   -1    0    0    0    0  0.00000000000E+00  0.00000000000E+00  0.93234578044E-11  0.17124000000E+03  0.17124000000E+03 0. -1.
       11    1    1    2    0    0  0.70919090892E-01  0.14787709638E-01  0.46687810489E+00  0.47246546949E+00  0.51109989000E-03 0. -1.
     -623    1    1    2    0    0  0.25851601547E-02 -0.17734615433E-01  0.61398153609E-02  0.17124000105E+03  0.17124000000E+03 0. -1.
     -611    1    1    2    0    0 -0.10369467005E-01  0.38434273904E-02  0.90758862112E+00  0.90765613763E+00  0.51109989000E-03 0. -1.
      611    1    1    2    0    0 -0.63134784041E-01 -0.89652159552E-03  0.41193934348E+01  0.41198773449E+01  0.51109989000E-03 0.  1.
</event>
<event>
 6   3  0.2312675E+03  0.9118800E+02  0.7818608E-02  0.1180000E+00
       11   -1    0    0    0    0  0.00000000000E+00  0.00000000000E+00  0.54999999763E+01  0.55000000000E+01  0.51109989000E-03 0. -1.
     -623   -1    0    0    0    0  0.00000000000E+00  0.00000000000E+00  0.93234578044E-11  0.17124000000E+03  0.17124000000E+03 0. -1.
       11    1    1    2    0    0 -0.11297916299E-01  0.62934177730E-02  0.34161503369E+00  0.34186012123E+00  0.51109989000E-03 0. -1.
     -623    1    1    2    0    0 -0.13127936143E-01 -0.35742502656E-01  0.99939504478E-03  0.17124000424E+03  0.17124000000E+03 0. -1.
     -611    1    1    2    0    0 -0.24463239522E-01  0.10838806218E-01  0.82429894750E+00  0.82473325741E+00  0.51109989000E-03 0.  1.
      611    1    1    2    0    0  0.48889091963E-01  0.18610278663E-01  0.43330865998E+01  0.43334023848E+01  0.51109989000E-03 0. -1.
</event>
<event>
 6   3  0.2312675E+03  0.9118800E+02  0.7818608E-02  0.1180000E+00
       11   -1    0    0    0    0  0.00000000000E+00  0.00000000000E+00  0.54999999763E+01  0.55000000000E+01  0.51109989000E-03 0.  1.
     -623   -1    0    0    0    0  0.00000000000E+00  0.00000000000E+00  0.93234578044E-11  0.17124000000E+03  0.17124000000E+03 0.  1.
       11    1    1    2    0    0  0.54782406442E-01 -0.54049755931E-01  0.95718965080E+00  0.96027848929E+00  0.51109989000E-03 0.  1.
     -623    1    1    2    0    0  0.70100599211E-02 -0.47217839968E-02  0.39146234433E-02  0.17124000025E+03  0.17124000000E+03 0.  1.
     -611    1    1    2    0    0 -0.21704444685E-01  0.30586953103E-01  0.20501397691E+01  0.20504828647E+01  0.51109989000E-03 0. -1.
      611    1    1    2    0    0 -0.40088021679E-01  0.28184586825E-01  0.24887559330E+01  0.24892383927E+01  0.51109989000E-03 0.  1.
</event>
<event>
 6   3  0.2312675E+03  0.9118800E+02  0.7818608E-02  0.1180000E+00
       11   -1    0    0    0    0  0.00000000000E+00  0.00000000000E+00  0.54999999763E+01  0.55000000000E+01  0.51109989000E-03 0.  1.
     -623   -1    0    0    0    0  0.00000000000E+00  0.00000000000E+00  0.93234578044E-11  0.17124000000E+03  0.17124000000E+03 0.  1.
       11    1    1    2    0    0  0.60684090056E-02 -0.64242077429E-02  0.21677496237E+00  0.21695562120E+00  0.51109989000E-03 0.  1.
     -623    1    1    2    0    0  0.39541591832E-02  0.19135130416E-01  0.79172857316E-03  0.17124000112E+03  0.17124000000E+03 0.  1.
     -611    1    1    2    0    0  0.32978913401E-01  0.87009324893E-03  0.16485441675E+01  0.16488743127E+01  0.51109989000E-03 0. -1.
      611    1    1    2    0    0 -0.43001481590E-01 -0.13581015923E-01  0.36338891180E+01  0.36341689496E+01  0.51109989000E-03 0.  1.
</event>
<event>
 6   3  0.2312675E+03  0.9118800E+02  0.7818608E-02  0.1180000E+00
       11   -1    0    0    0    0  0.00000000000E+00  0.00000000000E+00  0.54999999763E+01  0.55000000000E+01  0.51109989000E-03 0.  1.
     -623   -1    0    0    0    0  0.00000000000E+00  0.00000000000E+00  0.93234578044E-11  0.17124000000E+03  0.17124000000E+03 0. -1.
       11    1    1    2    0    0 -0.26263880171E-02 -0.66303514728E-03  0.13884989654E-02  0.30865323743E-02  0.51109989000E-03 0.  1.
     -623    1    1    2    0    0 -0.27687599809E-02 -0.10439596220E-02  0.24306459712E-02  0.17124000004E+03  0.17124000000E+03 0. -1.
     -611    1    1    2    0    0  0.45096948811E-01  0.44685334962E-02  0.20396198135E+01  0.20401232677E+01  0.51109989000E-03 0.  1.
      611    1    1    2    0    0 -0.39701800813E-01 -0.27615387270E-02  0.34565610178E+01  0.34567901571E+01  0.51109989000E-03 0. -1.
</event>
<event>
 6   3  0.2312675E+03  0.9118800E+02  0.7818608E-02  0.1180000E+00
       11   -1    0    0    0    0  0.00000000000E+00  0.00000000000E+00  0.54999999763E+01  0.55000000000E+01  0.51109989000E-03 0.  1.
     -623   -1    0    0    0    0  0.00000000000E+00  0.00000000000E+00  0.93234578044E-11  0.17124000000E+03  0.17124000000E+03 0.  1.
       11    1    1    2    0    0 -0.13850630976E-01 -0.12351466952E-01  0.46544015360E-01  0.50109932182E-01  0.51109989000E-03 0.  1.
     -623    1    1    2    0    0  0.14618885330E-02 -0.11644659264E-01  0.56606188491E-02  0.17124000050E+03  0.17124000000E+03 0.  1.
     -611    1    1    2    0    0  0.74277631305E-01 -0.17135899080E-01  0.25308415053E+01  0.25319892954E+01  0.51109989000E-03 0.  1.
      611    1    1    2    0    0 -0.61888888862E-01  0.41132025297E-01  0.29169538367E+01  0.29179002767E+01  0.51109989000E-03 0. -1.
</event>
<event>
 6   3  0.2312675E+03  0.9118800E+02  0.7818608E-02  0.1180000E+00
       11   -1    0    0    0    0  0.00000000000E+00  0.00000000000E+00  0.54999999763E+01  0.55000000000E+01  0.51109989000E-03 0. -1.
     -623   -1    0    0    0    0  0.00000000000E+00  0.00000000000E+00  0.93234578044E-11  0.17124000000E+03  0.17124000000E+03 0. -1.
       11    1    1    2    0    0 -0.46342093694E-01 -0.17799790635E-01  0.35965419371E+00  0.36306448803E+00  0.51109989000E-03 0. -1.
     -623    1    1    2    0    0 -0.15981867539E-01  0.15148934693E-01  0.37933390430E-02  0.17124000146E+03  0.17124000000E+03 0. -1.
     -611    1    1    2    0    0  0.27697692992E-01 -0.47327932101E-04  0.24719748539E+01  0.24721300742E+01  0.51109989000E-03 0.  1.
      611    1    1    2    0    0  0.34626268236E-01  0.26981838745E-02  0.26645775893E+01  0.26648039796E+01  0.51109989000E-03 0. -1.
</event>
<event>
 6   3  0.2312675E+03  0.9118800E+02  0.7818608E-02  0.1180000E+00
       11   -1    0    0    0    0  0.00000000000E+00  0.00000000000E+00  0.54999999763E+01  0.55000000000E+01  0.51109989000E-03 0.  1.
     -623   -1    0    0    0    0  0.00000000000E+00  0.00000000000E+00  0.93234578044E-11  0.17124000000E+03  0.17124000000E+03 0.  1.
       11    1    1    2    0    0  0.74979207057E-01  0.51285360365E-02  0.70852504153E+00  0.71249995023E+00  0.51109989000E-03 0.  1.
     -623    1    1    2    0    0  0.10375743981E-01  0.79006800443E-02  0.48963361599E-02  0.17124000057E+03  0.17124000000E+03 0.  1.
     -611    1    1    2    0    0 -0.11953125605E-01  0.11078872805E-01  0.99757517299E+00  0.99770842716E+00  0.51109989000E-03 0. -1.
      611    1    1    2    0    0 -0.73401825433E-01 -0.24108088886E-01  0.37890034256E+01  0.37897910560E+01  0.51109989000E-03 0.  1.
</event>
<event>
 6   3  0.2312675E+03  0.9118800E+02  0.7818608E-02  0.1180000E+00
       11   -1    0    0    0    0  0.00000000000E+00  0.00000000000E+00  0.54999999763E+01  0.55000000000E+01  0.51109989000E-03 0.  1.
     -623   -1    0    0    0    0  0.00000000000E+00  0.00000000000E+00  0.93234578044E-11  0.17124000000E+03  0.17124000000E+03 0.  1.
       11    1    1    2    0    0  0.26871343339E-02 -0.43603190627E-03  0.61700340903E-01  0.61762481374E-01  0.51109989000E-03 0.  1.
     -623    1    1    2    0    0 -0.72337480922E-01  0.37914159844E-01  0.65747563396E-03  0.17124001948E+03  0.17124000000E+03 0.  1.
     -611    1    1    2    0    0  0.19454469445E-01 -0.11129118182E-01  0.16072314275E+01  0.16073877742E+01  0.51109989000E-03 0.  1.
      611    1    1    2    0    0  0.50195877117E-01 -0.26349009742E-01  0.38304107302E+01  0.38308302650E+01  0.51109989000E-03 0.  1.
</event>
<event>
 6   3  0.2312675E+03  0.9118800E+02  0.7818608E-02  0.1180000E+00
       11   -1    0    0    0    0  0.00000000000E+00  0.00000000000E+00  0.54999999763E+01  0.55000000000E+01  0.51109989000E-03 0. -1.
     -623   -1    0    0    0    0  0.00000000000E+00  0.00000000000E+00  0.93234578044E-11  0.17124000000E+03  0.17124000000E+03 0. -1.
       11    1    1    2    0    0 -0.29708050717E-01 -0.17994333581E-01  0.54132268776E+00  0.54243605874E+00  0.51109989000E-03 0. -1.
     -623    1    1    2    0    0 -0.34938433896E-01  0.42703077059E-01  0.16084122813E-02  0.17124000890E+03  0.17124000000E+03 0. -1.
     -611    1    1    2    0    0  0.52014195547E-01 -0.17982535990E-01  0.40205465434E+01  0.40209232295E+01  0.51109989000E-03 0. -1.
      611    1    1    2    0    0  0.12632289060E-01 -0.67262074857E-02  0.93652233243E+00  0.93663181504E+00  0.51109989000E-03 0. -1.
</event>
<event>
 6   3  0.2312675E+03  0.9118800E+02  0.7818608E-02  0.1180000E+00
       11   -1    0    0    0    0  0.00000000000E+00  0.00000000000E+00  0.54999999763E+01  0.55000000000E+01  0.51109989000E-03 0. -1.
     -623   -1    0    0    0    0  0.00000000000E+00  0.00000000000E+00  0.93234578044E-11  0.17124000000E+03  0.17124000000E+03 0. -1.
       11    1    1    2    0    0 -0.32721554892E-01 -0.33333388951E-01  0.10468088485E+01  0.10478505817E+01  0.51109989000E-03 0. -1.
     -623    1    1    2    0    0  0.54125182082E-02  0.29972424313E-02  0.16974371905E-02  0.17124000012E+03  0.17124000000E+03 0. -1.
     -611    1    1    2    0    0  0.45984535709E-01  0.16817831398E-01  0.36357599086E+01  0.36360896292E+01  0.51109989000E-03 0. -1.
      611    1    1    2    0    0 -0.18675499025E-01  0.13518315122E-01  0.81573378188E+00  0.81605966891E+00  0.51109989000E-03 0.  1.
</event>
<event>
 6   3  0.2312675E+03  0.9118800E+02  0.7818608E-02  0.1180000E+00
       11   -1    0    0    0    0  0.00000000000E+00  0.00000000000E+00  0.54999999763E+01  0.55000000000E+01  0.51109989000E-03 0. -1.
     -623   -1    0    0    0    0  0.00000000000E+00  0.00000000000E+00  0.93234578044E-11  0.17124000000E+03  0.17124000000E+03 0. -1.
       11    1    1    2    0    0  0.94750909149E-02  0.24041395892E-02  0.20683655998E+00  0.20706805887E+00  0.51109989000E-03 0. -1.
     -623    1    1    2    0    0 -0.49959057159E-02 -0.19285597406E-02  0.12306939716E-02  0.17124000009E+03  0.17124000000E+03 0. -1.
     -611    1    1    2    0    0 -0.52105219270E-01 -0.10838535594E-01  0.24166911561E+01  0.24172771526E+01  0.51109989000E-03 0.  1.
      611    1    1    2    0    0  0.47626034071E-01  0.10362955745E-01  0.28752415662E+01  0.28756547003E+01  0.51109989000E-03 0. -1.
</event>
<event>
 6   3  0.2312675E+03  0.9118800E+02  0.7818608E-02  0.1180000E+00
       11   -1    0    0    0    0  0.00000000000E+00  0.00000000000E+00  0.54999999763E+01  0.55000000000E+01  0.51109989000E-03 0. -1.
     -623   -1    0    0    0    0  0.00000000000E+00  0.00000000000E+00  0.93234578044E-11  0.17124000000E+03  0.17124000000E+03 0. -1.
       11    1    1    2    0    0 -0.41154427328E-01 -0.76775837327E-02  0.67818595888E+00  0.67947706968E+00  0.51109989000E-03 0. -1.
     -623    1    1    2    0    0 -0.17709938787E-01 -0.86744102298E-02  0.16808859503E-02  0.17124000114E+03  0.17124000000E+03 0. -1.
     -611    1    1    2    0    0  0.13280763888E-01  0.35770456504E-02  0.97189682860E+00  0.97199428013E+00  0.51109989000E-03 0.  1.
      611    1    1    2    0    0  0.45583602222E-01  0.12774948311E-01  0.38482363024E+01  0.38485275060E+01  0.51109989000E-03 0. -1.
</event>
<event>
 6   3  0.2312675E+03  0.9118800E+02  0.7818608E-02  0.1180000E+00
       11   -1    0    0    0    0  0.00000000000E+00  0.00000000000E+00  0.54999999763E+01  0.55000000000E+01  0.51109989000E-03 0. -1.
     -623   -1    0    0    0    0  0.00000000000E+00  0.00000000000E+00  0.93234578044E-11  0.17124000000E+03  0.17124000000E+03 0.  1.
       11    1    1    2    0    0 -0.12055470601E-01  0.44101656599E-01  0.45348039981E+00  0.45577957910E+00  0.51109989000E-03 0. -1.
     -623    1    1    2    0    0 -0.14186651354E-01 -0.30212997175E-01  0.34052785824E-02  0.17124000329E+03  0.17124000000E+03 0.  1.
     -611    1    1    2    0    0  0.55801418561E-01  0.20686920586E-01  0.26203009920E+01  0.26209767830E+01  0.51109989000E-03 0. -1.
      611    1    1    2    0    0 -0.29559296607E-01 -0.34575580010E-01  0.24228133058E+01  0.24232403510E+01  0.51109989000E-03 0.  1.
</event>
<event>
 6   3  0.2312675E+03  0.9118800E+02  0.7818608E-02  0.1180000E+00
       11   -1    0    0    0    0  0.00000000000E+00  0.00000000000E+00  0.54999999763E+01  0.55000000000E+01  0.51109989000E-03 0.  1.
     -623   -1    0    0    0    0  0.00000000000E+00  0.00000000000E+00  0.93234578044E-11  0.17124000000E+03  0.17124000000E+03 0. -1.
       11    1    1    2    0    0  0.44495070112E-03  0.83437859971E-03  0.42143574753E+00  0.42143711831E+00  0.51109989000E-03 0.  1.
     -623    1    1    2    0    0  0.59552791276E-01  0.37434861147E-03  0.36723340674E-03  0.17124001036E+03  0.17124000000E+03 0. -1.
     -611    1    1    2    0    0 -0.22036319360E-01  0.47241319188E-03  0.17733979606E+01  0.17735350040E+01  0.51109989000E-03 0. -1.
      611    1    1    2    0    0 -0.37961422637E-01 -0.16811404031E-02  0.33047990366E+01  0.33050175233E+01  0.51109989000E-03 0.  1.
</event>
<event>
 6   3  0.2312675E+03  0.9118800E+02  0.7818608E-02  0.1180000E+00
       11   -1    0    0    0    0  0.00000000000E+00  0.00000000000E+00  0.54999999763E+01  0.55000000000E+01  0.51109989000E-03 0.  1.
     -623   -1    0    0    0    0  0.00000000000E+00  0.00000000000E+00  0.93234578044E-11  0.17124000000E+03  0.17124000000E+03 0. -1.
       11    1    1    2    0    0  0.16724398569E-01  0.23812457724E-02  0.21272339050E-01  0.27168906321E-01  0.51109989000E-03 0.  1.
     -623    1    1    2    0    0 -0.37564261363E-02 -0.10203831201E-01  0.67296683799E-02  0.17124000048E+03  0.17124000000E+03 0. -1.
     -611    1    1    2    0    0 -0.53437942155E-01 -0.31784717099E-03  0.27449276513E+01  0.27454478299E+01  0.51109989000E-03 0.  1.
      611    1    1    2    0    0  0.40469969722E-01  0.81404326000E-02  0.27270703175E+01  0.27273827863E+01  0.51109989000E-03 0. -1.
</event>
<event>
 6   3  0.2312675E+03  0.9118800E+02  0.7818608E-02  0.1180000E+00
       11   -1    0    0    0    0  0.00000000000E+00  0.00000000000E+00  0.54999999763E+01  0.55000000000E+01  0.51109989000E-03 0.  1.
     -623   -1    0    0    0    0  0.00000000000E+00  0.00000000000E+00  0.93234578044E-11  0.17124000000E+03  0.17124000000E+03 0.  1.
       11    1    1    2    0    0 -0.49789767422E-01 -0.46746608307E-02  0.85722618246E+00  0.85868379659E+00  0.51109989000E-03 0.  1.
     -623    1    1    2    0    0 -0.35229442560E-02  0.67702638132E-03  0.17656912789E-02  0.17124000005E+03  0.17124000000E+03 0.  1.
     -611    1    1    2    0    0  0.31071872632E-01  0.24368455800E-02  0.27197089482E+01  0.27198875756E+01  0.51109989000E-03 0. -1.
      611    1    1    2    0    0  0.22240839052E-01  0.15607888699E-02  0.19212991547E+01  0.19214285816E+01  0.51109989000E-03 0. -1.
</event>
<event>
 6   3  0.2312675E+03  0.9118800E+02  0.7818608E-02  0.1180000E+00
       11   -1    0    0    0    0  0.00000000000E+00  0.00000000000E+00  0.54999999763E+01  0.55000000000E+01  0.51109989000E-03 0.  1.
     -623   -1    0    0    0    0  0.00000000000E+00  0.00000000000E+00  0.93234578044E-11  0.17124000000E+03  0.17124000000E+03 0.  1.
       11    1    1    2    0    0  0.38027588107E-01 -0.41920055541E-01  0.68720547644E+00  0.68953246232E+00  0.51109989000E-03 0.  1.
     -623    1    1    2    0    0  0.22262315782E-01  0.13682178342E-01  0.27911929280E-02  0.17124000202E+03  0.17124000000E+03 0.  1.
     -611    1    1    2    0    0 -0.86114352380E-02  0.27174824628E-02  0.64564744639E+00  0.64571079268E+00  0.51109989000E-03 0. -1.
      611    1    1    2    0    0 -0.51678468659E-01  0.25520394739E-01  0.41643558611E+01  0.41647547292E+01  0.51109989000E-03 0.  1.
</event>
<event>
 6   3  0.2312675E+03  0.9118800E+02  0.7818608E-02  0.1180000E+00
       11   -1    0    0    0    0  0.00000000000E+00  0.00000000000E+00  0.54999999763E+01  0.55000000000E+01  0.51109989000E-03 0.  1.
     -623   -1    0    0    0    0  0.00000000000E+00  0.00000000000E+00  0.93234578044E-11  0.17124000000E+03  0.17124000000E+03 0. -1.
       11    1    1    2    0    0  0.51568946225E-01 -0.44999750889E-03  0.10365983354E+01  0.10378804984E+01  0.51109989000E-03 0.  1.
     -623    1    1    2    0    0 -0.17533450042E-02  0.31802027834E-02  0.15612442860E-02  0.17124000005E+03  0.17124000000E+03 0. -1.
     -611    1    1    2    0    0 -0.17333177856E-01 -0.10026584776E-02  0.15667961808E+01  0.15668924589E+01  0.51109989000E-03 0.  1.
      611    1    1    2    0    0 -0.32482423442E-01 -0.17275468011E-02  0.28950442226E+01  0.28952270039E+01  0.51109989000E-03 0.  1.
</event>
<event>
 6   3  0.2312675E+03  0.9118800E+02  0.7818608E-02  0.1180000E+00
       11   -1    0    0    0    0  0.00000000000E+00  0.00000000000E+00  0.54999999763E+01  0.55000000000E+01  0.51109989000E-03 0. -1.
     -623   -1    0    0    0    0  0.00000000000E+00  0.00000000000E+00  0.93234578044E-11  0.17124000000E+03  0.17124000000E+03 0.  1.
       11    1    1    2    0    0 -0.19173528125E-02  0.17648011924E-02  0.17941370501E-02  0.32048269701E-02  0.51109989000E-03 0. -1.
     -623    1    1    2    0    0 -0.29453220917E-02  0.61529586218E-03  0.20858630810E-02  0.17124000004E+03  0.17124000000E+03 0.  1.
     -611    1    1    2    0    0  0.41508724130E-01  0.12838787735E-01  0.21440075280E+01  0.21444477960E+01  0.51109989000E-03 0.  1.
      611    1    1    2    0    0 -0.36646049226E-01 -0.15218884790E-01  0.33521124482E+01  0.33523473379E+01  0.51109989000E-03 0. -1.
</event>
<event>
 6   3  0.2312675E+03  0.9118800E+02  0.7818608E-02  0.1180000E+00
       11   -1    0    0    0    0  0.00000000000E+00  0.00000000000E+00  0.54999999763E+01  0.55000000000E+01  0.51109989000E-03 0.  1.
     -623   -1    0    0    0    0  0.00000000000E+00  0.00000000000E+00  0.93234578044E-11  0.17124000000E+03  0.17124000000E+03 0.  1.
       11    1    1    2    0    0  0.22047505087E-01  0.59411833604E-01  0.34931634624E+00  0.35501835083E+00  0.51109989000E-03 0.  1.
     -623    1    1    2    0    0 -0.41741477676E-01  0.97790138482E-02  0.72145203284E-02  0.17124000552E+03  0.17124000000E+03 0.  1.
     -611    1    1    2    0    0  0.44986470876E-01 -0.79611062113E-01  0.31739865648E+01  0.31753035569E+01  0.51109989000E-03 0. -1.
      611    1    1    2    0    0 -0.25292498287E-01  0.10420214661E-01  0.19694825449E+01  0.19696725736E+01  0.51109989000E-03 0.  1.
</event>
<event>
 6   3  0.2312675E+03  0.9118800E+02  0.7818608E-02  0.1180000E+00
       11   -1    0    0    0    0  0.00000000000E+00  0.00000000000E+00  0.54999999763E+01  0.55000000000E+01  0.51109989000E-03 0.  1.
     -623   -1    0    0    0    0  0.00000000000E+00  0.00000000000E+00  0.93234578044E-11  0.17124000000E+03  0.17124000000E+03 0. -1.
       11    1    1    2    0    0  0.38027987433E-02 -0.35983199503E-02  0.55346895758E-01  0.55596306333E-01  0.51109989000E-03 0.  1.
     -623    1    1    2    0    0 -0.27791727332E-02  0.20896235830E-02  0.96504375239E-03  0.17124000004E+03  0.17124000000E+03 0. -1.
     -611    1    1    2    0    0 -0.42800243098E-01  0.86966613766E-02  0.21566417132E+01  0.21570839652E+01  0.51109989000E-03 0.  1.
      611    1    1    2    0    0  0.41776617088E-01 -0.71879650093E-02  0.32870463236E+01  0.32873196905E+01  0.51109989000E-03 0. -1.
</event>
<event>
 6   3  0.2312675E+03  0.9118800E+02  0.7818608E-02  0.1180000E+00
       11   -1    0    0    0    0  0.00000000000E+00  0.00000000000E+00  0.54999999763E+01  0.55000000000E+01  0.51109989000E-03 0. -1.
     -623   -1    0    0    0    0  0.00000000000E+00  0.00000000000E+00  0.93234578044E-11  0.17124000000E+03  0.17124000000E+03 0. -1.
       11    1    1    2    0    0  0.53853856122E-01  0.18129892636E-01  0.85739682169E+00  0.85927789562E+00  0.51109989000E-03 0. -1.
     -623    1    1    2    0    0  0.52405083740E-03 -0.12549162345E-02  0.22526564190E-02  0.17124000002E+03  0.17124000000E+03 0. -1.
     -611    1    1    2    0    0 -0.17485632170E-01  0.10127488867E-02  0.15710440862E+01  0.15711417998E+01  0.51109989000E-03 0. -1.
      611    1    1    2    0    0 -0.36892274789E-01 -0.17887725288E-01  0.30693064119E+01  0.30695802844E+01  0.51109989000E-03 0.  1.
</event>
<event>
 6   3  0.2312675E+03  0.9118800E+02  0.7818608E-02  0.1180000E+00
       11   -1    0    0    0    0  0.00000000000E+00  0.00000000000E+00  0.54999999763E+01  0.55000000000E+01  0.51109989000E-03 0. -1.
     -623   -1    0    0    0    0  0.00000000000E+00  0.00000000000E+00  0.93234578044E-11  0.17124000000E+03  0.17124000000E+03 0.  1.
       11    1    1    2    0    0  0.45843791936E-01 -0.25705657619E-01  0.64793091313E+00  0.65005935384E+00  0.51109989000E-03 0. -1.
     -623    1    1    2    0    0  0.22069462041E-01  0.15644898262E-02  0.26666116001E-02  0.17124000145E+03  0.17124000000E+03 0.  1.
     -611    1    1    2    0    0 -0.27340149053E-01  0.11264340733E-01  0.20244170944E+01  0.20246331031E+01  0.51109989000E-03 0.  1.
      611    1    1    2    0    0 -0.40573104917E-01  0.12876827057E-01  0.28249853566E+01  0.28253060924E+01  0.51109989000E-03 0. -1.
</event>
<event>
 6   3  0.2312675E+03  0.9118800E+02  0.7818608E-02  0.1180000E+00
       11   -1    0    0    0    0  0.00000000000E+00  0.00000000000E+00  0.54999999763E+01  0.55000000000E+01  0.51109989000E-03 0.  1.
     -623   -1    0    0    0    0  0.00000000000E+00  0.00000000000E+00  0.93234578044E-11  0.17124000000E+03  0.17124000000E+03 0.  1.
       11    1    1    2    0    0  0.52553285701E-01  0.27860901116E-01  0.23278385779E+00  0.24026373701E+00  0.51109989000E-03 0.  1.
     -623    1    1    2    0    0  0.20397418797E-01 -0.70044888379E-03  0.82743876884E-02  0.17124000142E+03  0.17124000000E+03 0.  1.
     -611    1    1    2    0    0 -0.49861181041E-01 -0.51389735406E-02  0.42333458613E+01  0.42336426383E+01  0.51109989000E-03 0.  1.
      611    1    1    2    0    0 -0.23089523457E-01 -0.22021478692E-01  0.10255958695E+01  0.10260922085E+01  0.51109989000E-03 0. -1.
</event>
<event>
 6   3  0.2312675E+03  0.9118800E+02  0.7818608E-02  0.1180000E+00
       11   -1    0    0    0    0  0.00000000000E+00  0.00000000000E+00  0.54999999763E+01  0.55000000000E+01  0.51109989000E-03 0. -1.
     -623   -1    0    0    0    0  0.00000000000E+00  0.00000000000E+00  0.93234578044E-11  0.17124000000E+03  0.17124000000E+03 0. -1.
       11    1    1    2    0    0  0.73734472574E-01 -0.10976932779E-02  0.55322668781E+00  0.55812006478E+00  0.51109989000E-03 0. -1.
     -623    1    1    2    0    0 -0.17915035312E-02 -0.17445226497E-01  0.54552950722E-02  0.17124000098E+03  0.17124000000E+03 0. -1.
     -611    1    1    2    0    0 -0.13242480930E-01  0.39230728559E-02  0.10435590233E+01  0.10436505403E+01  0.51109989000E-03 0.  1.
      611    1    1    2    0    0 -0.58700488115E-01  0.14619846920E-01  0.38977589702E+01  0.38982284102E+01  0.51109989000E-03 0. -1.
</event>
<event>
 6   3  0.2312675E+03  0.9118800E+02  0.7818608E-02  0.1180000E+00
       11   -1    0    0    0    0  0.00000000000E+00  0.00000000000E+00  0.54999999763E+01  0.55000000000E+01  0.51109989000E-03 0. -1.
     -623   -1    0    0    0    0  0.00000000000E+00  0.00000000000E+00  0.93234578044E-11  0.17124000000E+03  0.17124000000E+03 0.  1.
       11    1    1    2    0    0  0.44097627897E-01  0.18969099728E-01  0.96522945010E+00  0.96642256808E+00  0.51109989000E-03 0. -1.
     -623    1    1    2    0    0  0.28891098621E-01 -0.15337834650E-01  0.18132076126E-02  0.17124000313E+03  0.17124000000E+03 0.  1.
     -611    1    1    2    0    0 -0.63133583230E-01 -0.83111110114E-02  0.37467426230E+01  0.37472837453E+01  0.51109989000E-03 0. -1.
      611    1    1    2    0    0 -0.98551432875E-02  0.46798459326E-02  0.78621469546E+00  0.78629055278E+00  0.51109989000E-03 0.  1.
</event>
<event>
 6   3  0.2312675E+03  0.9118800E+02  0.7818608E-02  0.1180000E+00
       11   -1    0    0    0    0  0.00000000000E+00  0.00000000000E+00  0.54999999763E+01  0.55000000000E+01  0.51109989000E-03 0.  1.
     -623   -1    0    0    0    0  0.00000000000E+00  0.00000000000E+00  0.93234578044E-11  0.17124000000E+03  0.17124000000E+03 0.  1.
       11    1    1    2    0    0  0.11462758090E-01  0.10612626113E-01  0.29219100533E+00  0.29260872762E+00  0.51109989000E-03 0.  1.
     -623    1    1    2    0    0  0.28727143978E-01 -0.43587195863E-01  0.11844200608E-02  0.17124000796E+03  0.17124000000E+03 0.  1.
     -611    1    1    2    0    0 -0.56939847835E-01  0.40743485258E-01  0.43079014920E+01  0.43084704599E+01  0.51109989000E-03 0.  1.
      611    1    1    2    0    0  0.16749945767E-01 -0.77689155083E-02  0.89872305892E+00  0.89891285150E+00  0.51109989000E-03 0. -1.
</event>
<event>
 6   3  0.2312675E+03  0.9118800E+02  0.7818608E-02  0.1180000E+00
       11   -1    0    0    0    0  0.00000000000E+00  0.00000000000E+00  0.54999999763E+01  0.55000000000E+01  0.51109989000E-03 0. -1.
     -623   -1    0    0    0    0  0.00000000000E+00  0.00000000000E+00  0.93234578044E-11  0.17124000000E+03  0.17124000000E+03 0.  1.
       11    1    1    2    0    0 -0.21151146017E-04 -0.35042751771E-02 -0.30959594172E-03  0.35549211852E-02  0.51109989000E-03 0. -1.
     -623    1    1    2    0    0 -0.21302403917E-01 -0.19443478038E-02  0.48100024343E-02  0.17124000140E+03  0.17124000000E+03 0.  1.
     -611    1    1    2    0    0  0.60089951934E-01 -0.74172463971E-02  0.35362503863E+01  0.35367687051E+01  0.51109989000E-03 0. -1.
      611    1    1    2    0    0 -0.38766396872E-01  0.12865869378E-01  0.19592491834E+01  0.19596749700E+01  0.51109989000E-03 0.  1.
</event>
<event>
 6   3  0.2312675E+03  0.9118800E+02  0.7818608E-02  0.1180000E+00
       11   -1    0    0    0    0  0.00000000000E+00  0.00000000000E+00  0.54999999763E+01  0.55000000000E+01  0.51109989000E-03 0. -1.
     -623   -1    0    0    0    0  0.00000000000E+00  0.00000000000E+00  0.93234578044E-11  0.17124000000E+03  0.17124000000E+03 0. -1.
       11    1    1    2    0    0 -0.15812486671E-01 -0.66183757500E-01  0.48878419905E-01  0.83783564301E-01  0.51109989000E-03 0. -1.
     -623    1    1    2    0    0  0.44281188745E-01  0.45753670478E-01  0.36199366718E-01  0.17124001566E+03  0.17124000000E+03 0. -1.
     -611    1    1    2    0    0 -0.59620469594E-01  0.14919751974E-01  0.48525802256E+01  0.48529694318E+01  0.51109989000E-03 0. -1.
      611    1    1    2    0    0  0.31151767520E-01  0.55103350473E-02  0.56234196408E+00  0.56323133986E+00  0.51109989000E-03 0.  1.
</event>
<event>
 6   3  0.2312675E+03  0.9118800E+02  0.7818608E-02  0.1180000E+00
       11   -1    0    0    0    0  0.00000000000E+00  0.00000000000E+00  0.54999999763E+01  0.55000000000E+01  0.51109989000E-03 0.  1.
     -623   -1    0    0    0    0  0.00000000000E+00  0.00000000000E+00  0.93234578044E-11  0.17124000000E+03  0.17124000000E+03 0.  1.
       11    1    1    2    0    0 -0.24053899849E-02 -0.44135472226E-02  0.15648717543E+00  0.15656871525E+00  0.51109989000E-03 0.  1.
     -623    1    1    2    0    0 -0.54804237060E-01  0.18304065847E-01  0.41612391717E-03  0.17124000975E+03  0.17124000000E+03 0.  1.
     -611    1    1    2    0    0  0.15123083136E-01 -0.36663757221E-02  0.14981216710E+01  0.14982025739E+01  0.51109989000E-03 0.  1.
      611    1    1    2    0    0  0.42086543888E-01 -0.10224142897E-01  0.38449750040E+01  0.38452189603E+01  0.51109989000E-03 0.  1.
</event>
<event>
 6   3  0.2312675E+03  0.9118800E+02  0.7818608E-02  0.1180000E+00
       11   -1    0    0    0    0  0.00000000000E+00  0.00000000000E+00  0.54999999763E+01  0.55000000000E+01  0.51109989000E-03 0. -1.
     -623   -1    0    0    0    0  0.00000000000E+00  0.00000000000E+00  0.93234578044E-11  0.17124000000E+03  0.17124000000E+03 0. -1.
       11    1    1    2    0    0 -0.22153622222E-01  0.18224496795E-01  0.72708963159E+00  0.72765548775E+00  0.51109989000E-03 0. -1.
     -623    1    1    2    0    0  0.25189544600E-01  0.73073116023E-02  0.15430731366E-02  0.17124000202E+03  0.17124000000E+03 0. -1.
     -611    1    1    2    0    0 -0.35014818365E-01  0.19613620930E-01  0.23541700120E+01  0.23545121445E+01  0.51109989000E-03 0. -1.
      611    1    1    2    0    0  0.31978895987E-01 -0.45145429327E-01  0.24171972594E+01  0.24178303522E+01  0.51109989000E-03 0.  1.
</event>
<event>
 6   3  0.2312675E+03  0.9118800E+02  0.7818608E-02  0.1180000E+00
       11   -1    0    0    0    0  0.00000000000E+00  0.00000000000E+00  0.54999999763E+01  0.55000000000E+01  0.51109989000E-03 0.  1.
     -623   -1    0    0    0    0  0.00000000000E+00  0.00000000000E+00  0.93234578044E-11  0.17124000000E+03  0.17124000000E+03 0. -1.
       11    1    1    2    0    0  0.16454067305E-03 -0.18885534629E-02  0.12123557276E+00  0.12125147023E+00  0.51109989000E-03 0.  1.
     -623    1    1    2    0    0 -0.88413068056E-01 -0.31041607639E-01  0.86811665220E-03  0.17124002564E+03  0.17124000000E+03 0. -1.
     -611    1    1    2    0    0  0.63733702574E-01  0.21815275961E-01  0.38717385083E+01  0.38723245252E+01  0.51109989000E-03 0.  1.
      611    1    1    2    0    0  0.24514824829E-01  0.11114885149E-01  0.15061577799E+01  0.15063983658E+01  0.51109989000E-03 0. -1.
</event>
<event>
 6   3  0.2312675E+03  0.9118800E+02  0.7818608E-02  0.1180000E+00
       11   -1    0    0    0    0  0.00000000000E+00  0.00000000000E+00  0.54999999763E+01  0.55000000000E+01  0.51109989000E-03 0. -1.
     -623   -1    0    0    0    0  0.00000000000E+00  0.00000000000E+00  0.93234578044E-11  0.17124000000E+03  0.17124000000E+03 0. -1.
       11    1    1    2    0    0  0.12412858983E-02 -0.84459031656E-02  0.44988952854E+00  0.44997080259E+00  0.51109989000E-03 0. -1.
     -623    1    1    2    0    0 -0.79450054852E-01  0.22722735804E-01  0.76741530754E-03  0.17124001994E+03  0.17124000000E+03 0. -1.
     -611    1    1    2    0    0  0.46453277665E-01  0.16751189605E-02  0.28572515472E+01  0.28576296783E+01  0.51109989000E-03 0. -1.
      611    1    1    2    0    0  0.31755491286E-01 -0.15951951598E-01  0.21920914850E+01  0.21923795785E+01  0.51109989000E-03 0.  1.
</event>
<event>
 6   3  0.2312675E+03  0.9118800E+02  0.7818608E-02  0.1180000E+00
       11   -1    0    0    0    0  0.00000000000E+00  0.00000000000E+00  0.54999999763E+01  0.55000000000E+01  0.51109989000E-03 0.  1.
     -623   -1    0    0    0    0  0.00000000000E+00  0.00000000000E+00  0.93234578044E-11  0.17124000000E+03  0.17124000000E+03 0.  1.
       11    1    1    2    0    0 -0.60892550581E-02 -0.97931656642E-03  0.49574772602E-01  0.49959557541E-01  0.51109989000E-03 0.  1.
     -623    1    1    2    0    0  0.24003856148E-01 -0.16695959551E-01  0.81333181668E-03  0.17124000250E+03  0.17124000000E+03 0.  1.
     -611    1    1    2    0    0  0.23796196299E-01  0.40511224659E-02  0.17817749064E+01  0.17819384806E+01  0.51109989000E-03 0. -1.
      611    1    1    2    0    0 -0.41710797389E-01  0.13624153651E-01  0.36678369656E+01  0.36680994637E+01  0.51109989000E-03 0.  1.
</event>
<event>
 6   3  0.2312675E+03  0.9118800E+02  0.7818608E-02  0.1180000E+00
       11   -1    0    0    0    0  0.00000000000E+00  0.00000000000E+00  0.54999999763E+01  0.55000000000E+01  0.51109989000E-03 0. -1.
     -623   -1    0    0    0    0  0.00000000000E+00  0.00000000000E+00  0.93234578044E-11  0.17124000000E+03  0.17124000000E+03 0.  1.
       11    1    1    2    0    0  0.12308490293E-01  0.15712235587E-01  0.13232413594E+00  0.13382193937E+00  0.51109989000E-03 0. -1.
     -623    1    1    2    0    0 -0.18357020601E-01 -0.13820558912E-01  0.29596419168E-02  0.17124000157E+03  0.17124000000E+03 0.  1.
     -611    1    1    2    0    0 -0.37163785978E-01  0.40252006203E-01  0.15211170090E+01  0.15221033432E+01  0.51109989000E-03 0.  1.
      611    1    1    2    0    0  0.43212316286E-01 -0.42143682879E-01  0.38435991894E+01  0.38440731502E+01  0.51109989000E-03 0. -1.
</event>
<event>
 6   3  0.2312675E+03  0.9118800E+02  0.7818608E-02  0.1180000E+00
       11   -1    0    0    0    0  0.00000000000E+00  0.00000000000E+00  0.54999999763E+01  0.55000000000E+01  0.51109989000E-03 0. -1.
     -623   -1    0    0    0    0  0.00000000000E+00  0.00000000000E+00  0.93234578044E-11  0.17124000000E+03  0.17124000000E+03 0.  1.
       11    1    1    2    0    0  0.27191149095E-02  0.43131150140E-02  0.94916164972E-02  0.10786498683E-01  0.51109989000E-03 0. -1.
     -623    1    1    2    0    0  0.12428289772E-01 -0.18087215709E-02  0.17286554456E-02  0.17124000047E+03  0.17124000000E+03 0.  1.
     -611    1    1    2    0    0  0.26806533096E-01  0.19080309088E-03  0.22944595661E+01  0.22946162181E+01  0.51109989000E-03 0.  1.
      611    1    1    2    0    0 -0.41953937778E-01 -0.26951965339E-02  0.31943201383E+01  0.31945968140E+01  0.51109989000E-03 0. -1.
</event>
<event>
 6   3  0.2312675E+03  0.9118800E+02  0.7818608E-02  0.1180000E+00
       11   -1    0    0    0    0  0.00000000000E+00  0.00000000000E+00  0.54999999763E+01  0.55000000000E+01  0.51109989000E-03 0.  1.
     -623   -1    0    0    0    0  0.00000000000E+00  0.00000000000E+00  0.93234578044E-11  0.17124000000E+03  0.17124000000E+03 0.  1.
       11    1    1    2    0    0 -0.42336345457E-01 -0.61133324581E-02  0.31924304324E+00  0.32209644652E+00  0.51109989000E-03 0.  1.
     -623    1    1    2    0    0 -0.12048725038E-01 -0.22436594079E-01  0.32353593163E-02  0.17124000192E+03  0.17124000000E+03 0.  1.
     -611    1    1    2    0    0  0.27051281954E-01  0.20970750488E-01  0.26622125262E+01  0.26624325983E+01  0.51109989000E-03 0.  1.
      611    1    1    2    0    0  0.27333788541E-01  0.75791760491E-02  0.25153090474E+01  0.25154690308E+01  0.51109989000E-03 0. -1.
</event>
<event>
 6   3  0.2312675E+03  0.9118800E+02  0.7818608E-02  0.1180000E+00
       11   -1    0    0    0    0  0.00000000000E+00  0.00000000000E+00  0.54999999763E+01  0.55000000000E+01  0.51109989000E-03 0. -1.
     -623   -1    0    0    0    0  0.00000000000E+00  0.00000000000E+00  0.93234578044E-11  0.17124000000E+03  0.17124000000E+03 0. -1.
       11    1    1    2    0    0  0.12278462218E-01 -0.27559132093E-02  0.76372267461E+00  0.76382651212E+00  0.51109989000E-03 0. -1.
     -623    1    1    2    0    0 -0.69998337448E-01  0.76747835226E-02  0.47289534502E-03  0.17124001448E+03  0.17124000000E+03 0. -1.
     -611    1    1    2    0    0  0.19429323106E-01 -0.21439269646E-02  0.15642414846E+01  0.15643636976E+01  0.51109989000E-03 0. -1.
      611    1    1    2    0    0  0.38290552120E-01 -0.27749433480E-02  0.31715629214E+01  0.31717953106E+01  0.51109989000E-03 0. -1.
</event>
<event>
 6   3  0.2312675E+03  0.9118800E+02  0.7818608E-02  0.1180000E+00
       11   -1    0    0    0    0  0.00000000000E+00  0.00000000000E+00  0.54999999763E+01  0.55000000000E+01  0.51109989000E-03 0.  1.
     -623   -1    0    0    0    0  0.00000000000E+00  0.00000000000E+00  0.93234578044E-11  0.17124000000E+03  0.17124000000E+03 0.  1.
       11    1    1    2    0    0  0.66773658479E-01 -0.21352664107E-01  0.46118716049E+00  0.46648527946E+00  0.51109989000E-03 0.  1.
     -623    1    1    2    0    0  0.65416827696E-02  0.44724129394E-01  0.58932887950E-02  0.17124000607E+03  0.17124000000E+03 0.  1.
     -611    1    1    2    0    0 -0.20532200956E-01 -0.67161027869E-02  0.13335084336E+01  0.13336835010E+01  0.51109989000E-03 0.  1.
      611    1    1    2    0    0 -0.52783140287E-01 -0.16655362498E-01  0.36994110930E+01  0.36998251522E+01  0.51109989000E-03 0.  1.
</event>
<event>
 6   3  0.2312675E+03  0.9118800E+02  0.7818608E-02  0.1180000E+00
       11   -1    0    0    0    0  0.00000000000E+00  0.00000000000E+00  0.54999999763E+01  0.55000000000E+01  0.51109989000E-03 0.  1.
     -623   -1    0    0    0    0  0.00000000000E+00  0.00000000000E+00  0.93234578044E-11  0.17124000000E+03  0.17124000000E+03 0. -1.
       11    1    1    2    0    0 -0.14357909692E-01  0.22028134607E-01  0.85852321932E+00  0.85892593838E+00  0.51109989000E-03 0.  1.
     -623    1    1    2    0    0 -0.53288960081E-01 -0.56237378921E-01  0.10554946801E-02  0.17124001753E+03  0.17124000000E+03 0. -1.
     -611    1    1    2    0    0  0.51613450398E-01  0.22143799478E-01  0.36474932880E+01  0.36479256905E+01  0.51109989000E-03 0.  1.
      611    1    1    2    0    0  0.16033419372E-01  0.12065444834E-01  0.99292797400E+00  0.99313084147E+00  0.51109989000E-03 0. -1.
</event>
<event>
 6   3  0.2312675E+03  0.9118800E+02  0.7818608E-02  0.1180000E+00
       11   -1    0    0    0    0  0.00000000000E+00  0.00000000000E+00  0.54999999763E+01  0.55000000000E+01  0.51109989000E-03 0. -1.
     -623   -1    0    0    0    0  0.00000000000E+00  0.00000000000E+00  0.93234578044E-11  0.17124000000E+03  0.17124000000E+03 0. -1.
       11    1    1    2    0    0  0.66443282201E-01  0.11549642423E-01  0.10947304621E+01  0.10968058852E+01  0.51109989000E-03 0. -1.
     -623    1    1    2    0    0  0.32506525587E-02 -0.11505069583E-02  0.26551592721E-02  0.17124000006E+03  0.17124000000E+03 0. -1.
     -611    1    1    2    0    0 -0.27691503484E-01 -0.34203343102E-02  0.21072230217E+01  0.21074078017E+01  0.51109989000E-03 0. -1.
      611    1    1    2    0    0 -0.42002431276E-01 -0.69788011549E-02  0.22953913332E+01  0.22957862579E+01  0.51109989000E-03 0.  1.
</event>
<event>
 6   3  0.2312675E+03  0.9118800E+02  0.7818608E-02  0.1180000E+00
       11   -1    0    0    0    0  0.00000000000E+00  0.00000000000E+00  0.54999999763E+01  0.55000000000E+01  0.51109989000E-03 0.  1.
     -623   -1    0    0    0    0  0.00000000000E+00  0.00000000000E+00  0.93234578044E-11  0.17124000000E+03  0.17124000000E+03 0. -1.
       11    1    1    2    0    0  0.20819594963E-01  0.22304029013E-02  0.33327873108E+00  0.33393622751E+00  0.51109989000E-03 0.  1.
     -623    1    1    2    0    0  0.37660034915E-01 -0.67176327379E-01  0.14142433604E-02  0.17124001732E+03  0.17124000000E+03 0. -1.
     -611    1    1    2    0    0 -0.15812138874E-01  0.17942332604E-01  0.14113374280E+01  0.14115401333E+01  0.51109989000E-03 0.  1.
      611    1    1    2    0    0 -0.42667491004E-01  0.47003591875E-01  0.37539695739E+01  0.37545063158E+01  0.51109989000E-03 0.  1.
</event>
<event>
 6   3  0.2312675E+03  0.9118800E+02  0.7818608E-02  0.1180000E+00
       11   -1    0    0    0    0  0.00000000000E+00  0.00000000000E+00  0.54999999763E+01  0.55000000000E+01  0.51109989000E-03 0. -1.
     -623   -1    0    0    0    0  0.00000000000E+00  0.00000000000E+00  0.93234578044E-11  0.17124000000E+03  0.17124000000E+03 0. -1.
       11    1    1    2    0    0 -0.11701692003E-02  0.12283889877E-02  0.13992887571E-02  0.22577572026E-02  0.51109989000E-03 0. -1.
     -623    1    1    2    0    0 -0.10788492843E-02 -0.46254350556E-02  0.15672709480E-02  0.17124000007E+03  0.17124000000E+03 0. -1.
     -611    1    1    2    0    0  0.41294931782E-01  0.98026699252E-02  0.18155833428E+01  0.18160794310E+01  0.51109989000E-03 0.  1.
      611    1    1    2    0    0 -0.39045913297E-01 -0.64056238573E-02  0.36814500738E+01  0.36816627388E+01  0.51109989000E-03 0. -1.
</event>
<event>
 6   3  0.2312675E+03  0.9118800E+02  0.7818608E-02  0.1180000E+00
       11   -1    0    0    0    0  0.00000000000E+00  0.00000000000E+00  0.54999999763E+01  0.55000000000E+01  0.51109989000E-03 0.  1.
     -623   -1    0    0    0    0  0.00000000000E+00  0.00000000000E+00  0.93234578044E-11  0.17124000000E+03  0.17124000000E+03 0. -1.
       11    1    1    2    0    0 -0.81491951227E-01  0.18441371988E-01  0.55993012284E+00  0.56612986673E+00  0.51109989000E-03 0.  1.
     -623    1    1    2    0    0  0.13797158284E-01 -0.26849018068E-01  0.67225942189E-02  0.17124000279E+03  0.17124000000E+03 0. -1.
     -611    1    1    2    0    0  0.90486815402E-02 -0.57653866293E-02  0.55046493120E+00  0.55056972313E+00  0.51109989000E-03 0. -1.
      611    1    1    2    0    0  0.58646111403E-01  0.14173032709E-01  0.43828823280E+01  0.43832976175E+01  0.51109989000E-03 0.  1.
</event>
<event>
 6   3  0.2312675E+03  0.9118800E+02  0.7818608E-02  0.1180000E+00
       11   -1    0    0    0    0  0.00000000000E+00  0.00000000000E+00  0.54999999763E+01  0.55000000000E+01  0.51109989000E-03 0.  1.
     -623   -1    0    0    0    0  0.00000000000E+00  0.00000000000E+00  0.93234578044E-11  0.17124000000E+03  0.17124000000E+03 0. -1.
       11    1    1    2    0    0  0.13214756522E-02  0.39145633170E-03  0.51584564751E-02  0.53638076272E-02  0.51109989000E-03 0.  1.
     -623    1    1    2    0    0 -0.35919425769E-02 -0.13803841776E-02  0.32977445694E-02  0.17124000007E+03  0.17124000000E+03 0. -1.
     -611    1    1    2    0    0 -0.89897929015E-01 -0.94113370921E-02  0.30201212303E+01  0.30214736004E+01  0.51109989000E-03 0.  1.
      611    1    1    2    0    0  0.92168395939E-01  0.10400264938E-01  0.24714225448E+01  0.24731625169E+01  0.51109989000E-03 0. -1.
</event>
<event>
 6   3  0.2312675E+03  0.9118800E+02  0.7818608E-02  0.1180000E+00
       11   -1    0    0    0    0  0.00000000000E+00  0.00000000000E+00  0.54999999763E+01  0.55000000000E+01  0.51109989000E-03 0.  1.
     -623   -1    0    0    0    0  0.00000000000E+00  0.00000000000E+00  0.93234578044E-11  0.17124000000E+03  0.17124000000E+03 0.  1.
       11    1    1    2    0    0 -0.30599530462E-02 -0.10922119269E-01  0.13549131711E+00  0.13596622461E+00  0.51109989000E-03 0.  1.
     -623    1    1    2    0    0 -0.46531741874E-02  0.54504812710E-02  0.26257741364E-02  0.17124000017E+03  0.17124000000E+03 0.  1.
     -611    1    1    2    0    0  0.75981611923E-01 -0.30652235902E-02  0.36087952700E+01  0.36095963989E+01  0.51109989000E-03 0.  1.
      611    1    1    2    0    0 -0.68268484690E-01  0.85368615883E-02  0.17530876151E+01  0.17544372065E+01  0.51109989000E-03 0. -1.
</event>
<event>
 6   3  0.2312675E+03  0.9118800E+02  0.7818608E-02  0.1180000E+00
       11   -1    0    0    0    0  0.00000000000E+00  0.00000000000E+00  0.54999999763E+01  0.55000000000E+01  0.51109989000E-03 0. -1.
     -623   -1    0    0    0    0  0.00000000000E+00  0.00000000000E+00  0.93234578044E-11  0.17124000000E+03  0.17124000000E+03 0.  1.
       11    1    1    2    0    0 -0.55063296075E-02  0.33856865956E-01  0.32634462189E+00  0.32814277456E+00  0.51109989000E-03 0. -1.
     -623    1    1    2    0    0  0.17857297959E-03 -0.85441196408E-02  0.30902547269E-02  0.17124000024E+03  0.17124000000E+03 0.  1.
     -611    1    1    2    0    0 -0.37784559936E-01 -0.51568744444E-01  0.25172904688E+01  0.25181021770E+01  0.51109989000E-03 0.  1.
      611    1    1    2    0    0  0.43112316564E-01  0.26255998129E-01  0.26532746309E+01  0.26537548073E+01  0.51109989000E-03 0. -1.
</event>
<event>
 6   3  0.2312675E+03  0.9118800E+02  0.7818608E-02  0.1180000E+00
       11   -1    0    0    0    0  0.00000000000E+00  0.00000000000E+00  0.54999999763E+01  0.55000000000E+01  0.51109989000E-03 0.  1.
     -623   -1    0    0    0    0  0.00000000000E+00  0.00000000000E+00  0.93234578044E-11  0.17124000000E+03  0.17124000000E+03 0.  1.
       11    1    1    2    0    0 -0.89657864339E-01 -0.51629051002E-01  0.79035039533E+00  0.79709353289E+00  0.51109989000E-03 0.  1.
     -623    1    1    2    0    0  0.83447361383E-02  0.12396919662E-01  0.84798862978E-02  0.17124000086E+03  0.17124000000E+03 0.  1.
     -611    1    1    2    0    0  0.47741552978E-01 -0.25649879957E-01  0.17964472158E+01  0.17972645973E+01  0.51109989000E-03 0.  1.
      611    1    1    2    0    0  0.33571575222E-01  0.64882011297E-01  0.29047224788E+01  0.29056410078E+01  0.51109989000E-03 0. -1.
</event>
<event>
 6   3  0.2312675E+03  0.9118800E+02  0.7818608E-02  0.1180000E+00
       11   -1    0    0    0    0  0.00000000000E+00  0.00000000000E+00  0.54999999763E+01  0.55000000000E+01  0.51109989000E-03 0. -1.
     -623   -1    0    0    0    0  0.00000000000E+00  0.00000000000E+00  0.93234578044E-11  0.17124000000E+03  0.17124000000E+03 0.  1.
       11    1    1    2    0    0 -0.26402246411E-02  0.10775644524E-02  0.15759266505E-03  0.29013772333E-02  0.51109989000E-03 0. -1.
     -623    1    1    2    0    0  0.30438138389E-02  0.31172615360E-02  0.51803932717E-02  0.17124000013E+03  0.17124000000E+03 0.  1.
     -611    1    1    2    0    0 -0.61994045986E-01 -0.25502983029E-01  0.11528750477E+01  0.11548224109E+01  0.51109989000E-03 0.  1.
      611    1    1    2    0    0  0.61590456788E-01  0.21308157040E-01  0.43417869427E+01  0.43422760781E+01  0.51109989000E-03 0. -1.
</event>
<event>
 6   3  0.2312675E+03  0.9118800E+02  0.7818608E-02  0.1180000E+00
       11   -1    0    0    0    0  0.00000000000E+00  0.00000000000E+00  0.54999999763E+01  0.55000000000E+01  0.51109989000E-03 0.  1.
     -623   -1    0    0    0    0  0.00000000000E+00  0.00000000000E+00  0.93234578044E-11  0.17124000000E+03  0.17124000000E+03 0. -1.
       11    1    1    2    0    0 -0.24932911557E-01 -0.10578267541E-01  0.64574656162E+00  0.64631449998E+00  0.51109989000E-03 0.  1.
     -623    1    1    2    0    0 -0.37795065829E-01 -0.82299373795E-03  0.99155800409E-03  0.17124000418E+03  0.17124000000E+03 0. -1.
     -611    1    1    2    0    0  0.47283101376E-01  0.94833008433E-02  0.36297128268E+01  0.36300332080E+01  0.51109989000E-03 0.  1.
      611    1    1    2    0    0  0.15444876007E-01  0.19179604352E-02  0.12235490297E+01  0.12236481161E+01  0.51109989000E-03 0.  1.
</event>
<event>
 6   3  0.2312675E+03  0.9118800E+02  0.7818608E-02  0.1180000E+00
       11   -1    0    0    0    0  0.00000000000E+00  0.00000000000E+00  0.54999999763E+01  0.55000000000E+01  0.51109989000E-03 0.  1.
     -623   -1    0    0    0    0  0.00000000000E+00  0.00000000000E+00  0.93234578044E-11  0.17124000000E+03  0.17124000000E+03 0.  1.
       11    1    1    2    0    0  0.49230177867E-03 -0.15032719479E-02  0.57363495847E-01  0.57387577632E-01  0.51109989000E-03 0.  1.
     -623    1    1    2    0    0 -0.72054087248E-03  0.82227061244E-03  0.54729983232E-03  0.17124000000E+03  0.17124000000E+03 0.  1.
     -611    1    1    2    0    0  0.33918032206E-01 -0.14534425837E-01  0.32748666023E+01  0.32750745345E+01  0.51109989000E-03 0.  1.
      611    1    1    2    0    0 -0.33689793112E-01  0.15215427173E-01  0.21672225781E+01  0.21675378834E+01  0.51109989000E-03 0. -1.
</event>
<event>
 6   3  0.3585736E+03  0.9118800E+02  0.7818608E-02  0.1180000E+00
       11   -1    0    0    0    0  0.00000000000E+00  0.00000000000E+00  0.54999999763E+01  0.55000000000E+01  0.51109989000E-03 0. -1.
     -623   -1    0    0    0    0  0.00000000000E+00  0.00000000000E+00  0.93234578044E-11  0.17124000000E+03  0.17124000000E+03 0.  1.
       11    1    1    2    0    0  0.30737929522E-02 -0.15046278015E-01  0.34727907353E+00  0.34761883554E+00  0.51109989000E-03 0. -1.
     -623    1    1    2    0    0  0.16325733504E+00  0.12230165748E+00  0.46976164493E-02  0.17124012156E+03  0.17124000000E+03 0.  1.
     -611    1    1    2    0    0 -0.59126413395E-01 -0.16569591419E-01  0.10183111826E+01  0.10201609726E+01  0.51109989000E-03 0.  1.
      611    1    1    2    0    0 -0.10720471460E+00 -0.90685788050E-01  0.41297121038E+01  0.41320986296E+01  0.51109989000E-03 0. -1.
</event>
<event>
 6   3  0.2312675E+03  0.9118800E+02  0.7818608E-02  0.1180000E+00
       11   -1    0    0    0    0  0.00000000000E+00  0.00000000000E+00  0.54999999763E+01  0.55000000000E+01  0.51109989000E-03 0. -1.
     -623   -1    0    0    0    0  0.00000000000E+00  0.00000000000E+00  0.93234578044E-11  0.17124000000E+03  0.17124000000E+03 0. -1.
       11    1    1    2    0    0  0.17252306104E-01  0.16725042098E-02  0.18462612023E+00  0.18543868214E+00  0.51109989000E-03 0. -1.
     -623    1    1    2    0    0  0.20451540160E-02 -0.47883357625E-02  0.16488652001E-02  0.17124000009E+03  0.17124000000E+03 0. -1.
     -611    1    1    2    0    0  0.28711396502E-01  0.27332257010E-01  0.19086790696E+01  0.19090907386E+01  0.51109989000E-03 0.  1.
      611    1    1    2    0    0 -0.48008856622E-01 -0.24216425457E-01  0.34050459213E+01  0.34054704921E+01  0.51109989000E-03 0. -1.
</event>
<event>
 6   3  0.2312675E+03  0.9118800E+02  0.7818608E-02  0.1180000E+00
       11   -1    0    0    0    0  0.00000000000E+00  0.00000000000E+00  0.54999999763E+01  0.55000000000E+01  0.51109989000E-03 0.  1.
     -623   -1    0    0    0    0  0.00000000000E+00  0.00000000000E+00  0.93234578044E-11  0.17124000000E+03  0.17124000000E+03 0. -1.
       11    1    1    2    0    0 -0.45509983567E-01  0.14999404641E+00  0.95021764315E+00  0.96305929368E+00  0.51109989000E-03 0.  1.
     -623    1    1    2    0    0 -0.11777596918E-01 -0.16428226740E-01  0.15282305072E-01  0.17124000187E+03  0.17124000000E+03 0. -1.
     -611    1    1    2    0    0  0.12827909679E-01 -0.14428324213E-01  0.91971778548E+00  0.91992053893E+00  0.51109989000E-03 0. -1.
      611    1    1    2    0    0  0.44459670806E-01 -0.11913749546E+00  0.36147822426E+01  0.36170182924E+01  0.51109989000E-03 0.  1.
</event>
<event>
 6   3  0.2312675E+03  0.9118800E+02  0.7818608E-02  0.1180000E+00
       11   -1    0    0    0    0  0.00000000000E+00  0.00000000000E+00  0.54999999763E+01  0.55000000000E+01  0.51109989000E-03 0. -1.
     -623   -1    0    0    0    0  0.00000000000E+00  0.00000000000E+00  0.93234578044E-11  0.17124000000E+03  0.17124000000E+03 0. -1.
       11    1    1    2    0    0  0.28651659972E-02 -0.57331403479E-02  0.66342992153E+00  0.66346107653E+00  0.51109989000E-03 0. -1.
     -623    1    1    2    0    0 -0.69471224817E-01  0.73412485774E-02  0.53406544055E-03  0.17124001425E+03  0.17124000000E+03 0. -1.
     -611    1    1    2    0    0  0.12158995644E-01  0.60962126382E-02  0.83880379143E+00  0.83891421893E+00  0.51109989000E-03 0.  1.
      611    1    1    2    0    0  0.54447063185E-01 -0.77043208688E-02  0.39972321986E+01  0.39976104550E+01  0.51109989000E-03 0. -1.
</event>
<event>
 6   3  0.2312675E+03  0.9118800E+02  0.7818608E-02  0.1180000E+00
       11   -1    0    0    0    0  0.00000000000E+00  0.00000000000E+00  0.54999999763E+01  0.55000000000E+01  0.51109989000E-03 0. -1.
     -623   -1    0    0    0    0  0.00000000000E+00  0.00000000000E+00  0.93234578044E-11  0.17124000000E+03  0.17124000000E+03 0.  1.
       11    1    1    2    0    0  0.65329157279E-01  0.37415470691E-01  0.91961274635E+00  0.92268937390E+00  0.51109989000E-03 0. -1.
     -623    1    1    2    0    0 -0.40661559061E-02  0.40106589177E-02  0.36743853013E-02  0.17124000013E+03  0.17124000000E+03 0.  1.
     -611    1    1    2    0    0 -0.47315285913E-01 -0.32094491973E-01  0.35444666774E+01  0.35449277963E+01  0.51109989000E-03 0. -1.
      611    1    1    2    0    0 -0.13947715388E-01 -0.93316375871E-02  0.10322461619E+01  0.10323826898E+01  0.51109989000E-03 0. -1.
</event>
<event>
 6   3  0.2312675E+03  0.9118800E+02  0.7818608E-02  0.1180000E+00
       11   -1    0    0    0    0  0.00000000000E+00  0.00000000000E+00  0.54999999763E+01  0.55000000000E+01  0.51109989000E-03 0.  1.
     -623   -1    0    0    0    0  0.00000000000E+00  0.00000000000E+00  0.93234578044E-11  0.17124000000E+03  0.17124000000E+03 0.  1.
       11    1    1    2    0    0  0.32608306697E-01  0.29136787998E-02  0.25171565484E+00  0.25383621354E+00  0.51109989000E-03 0.  1.
     -623    1    1    2    0    0 -0.10141798233E+00  0.60338083467E-01  0.29983206480E-02  0.17124004069E+03  0.17124000000E+03 0.  1.
     -611    1    1    2    0    0  0.13130809856E-01 -0.15830188838E-01  0.11663664623E+01  0.11665478982E+01  0.51109989000E-03 0. -1.
      611    1    1    2    0    0  0.55678865781E-01 -0.47421573428E-01  0.40789195384E+01  0.40795751990E+01  0.51109989000E-03 0.  1.
</event>
<event>
 6   3  0.2312675E+03  0.9118800E+02  0.7818608E-02  0.1180000E+00
       11   -1    0    0    0    0  0.00000000000E+00  0.00000000000E+00  0.54999999763E+01  0.55000000000E+01  0.51109989000E-03 0. -1.
     -623   -1    0    0    0    0  0.00000000000E+00  0.00000000000E+00  0.93234578044E-11  0.17124000000E+03  0.17124000000E+03 0.  1.
       11    1    1    2    0    0  0.31461180408E-01 -0.28147093284E-01  0.71781532999E-01  0.83276133651E-01  0.51109989000E-03 0. -1.
     -623    1    1    2    0    0 -0.15667446051E-01  0.42629301823E-01  0.15105093750E-01  0.17124000669E+03  0.17124000000E+03 0.  1.
     -611    1    1    2    0    0 -0.64583699347E-01  0.47219718925E-01  0.43348574782E+01  0.43355957346E+01  0.51109989000E-03 0. -1.
      611    1    1    2    0    0  0.48789964990E-01 -0.61701927465E-01  0.10782558713E+01  0.10811214426E+01  0.51109989000E-03 0.  1.
</event>
<event>
 6   3  0.2312675E+03  0.9118800E+02  0.7818608E-02  0.1180000E+00
       11   -1    0    0    0    0  0.00000000000E+00  0.00000000000E+00  0.54999999763E+01  0.55000000000E+01  0.51109989000E-03 0. -1.
     -623   -1    0    0    0    0  0.00000000000E+00  0.00000000000E+00  0.93234578044E-11  0.17124000000E+03  0.17124000000E+03 0. -1.
       11    1    1    2    0    0 -0.13219510244E-01 -0.72336836420E-02  0.60576933463E-01  0.62425217028E-01  0.51109989000E-03 0. -1.
     -623    1    1    2    0    0  0.10453174246E-01 -0.12267202373E-01  0.37312393199E-02  0.17124000080E+03  0.17124000000E+03 0. -1.
     -611    1    1    2    0    0 -0.64244935451E-01  0.11866369100E-01  0.36923526746E+01  0.36929306461E+01  0.51109989000E-03 0. -1.
      611    1    1    2    0    0  0.67011271449E-01  0.76345169149E-02  0.17433391289E+01  0.17446433378E+01  0.51109989000E-03 0.  1.
</event>
<event>
 6   3  0.2312675E+03  0.9118800E+02  0.7818608E-02  0.1180000E+00
       11   -1    0    0    0    0  0.00000000000E+00  0.00000000000E+00  0.54999999763E+01  0.55000000000E+01  0.51109989000E-03 0. -1.
     -623   -1    0    0    0    0  0.00000000000E+00  0.00000000000E+00  0.93234578044E-11  0.17124000000E+03  0.17124000000E+03 0. -1.
       11    1    1    2    0    0  0.35239082951E-02 -0.18915460588E-02  0.13917984812E+00  0.13923823908E+00  0.51109989000E-03 0. -1.
     -623    1    1    2    0    0 -0.59449770455E-01  0.32732837479E-01  0.45390274552E-03  0.17124001345E+03  0.17124000000E+03 0. -1.
     -611    1    1    2    0    0  0.29730804595E-01 -0.17831654236E-01  0.27743457264E+01  0.27745623726E+01  0.51109989000E-03 0. -1.
      611    1    1    2    0    0  0.26195057535E-01 -0.13009637168E-01  0.25860204962E+01  0.25861859368E+01  0.51109989000E-03 0. -1.
</event>
<event>
 6   3  0.2312675E+03  0.9118800E+02  0.7818608E-02  0.1180000E+00
       11   -1    0    0    0    0  0.00000000000E+00  0.00000000000E+00  0.54999999763E+01  0.55000000000E+01  0.51109989000E-03 0.  1.
     -623   -1    0    0    0    0  0.00000000000E+00  0.00000000000E+00  0.93234578044E-11  0.17124000000E+03  0.17124000000E+03 0.  1.
       11    1    1    2    0    0 -0.42922372008E-01 -0.27653451652E-01  0.94839470384E+00  0.94976829749E+00  0.51109989000E-03 0.  1.
     -623    1    1    2    0    0 -0.72509728376E-02  0.38659922160E-02  0.17129870009E-02  0.17124000021E+03  0.17124000000E+03 0.  1.
     -611    1    1    2    0    0  0.25279743470E-01  0.11248601551E-01  0.23041456589E+01  0.23043118442E+01  0.51109989000E-03 0.  1.
      611    1    1    2    0    0  0.24893601391E-01  0.12538857892E-01  0.22457466279E+01  0.22459196540E+01  0.51109989000E-03 0.  1.
</event>
<event>
 6   3  0.2312675E+03  0.9118800E+02  0.7818608E-02  0.1180000E+00
       11   -1    0    0    0    0  0.00000000000E+00  0.00000000000E+00  0.54999999763E+01  0.55000000000E+01  0.51109989000E-03 0.  1.
     -623   -1    0    0    0    0  0.00000000000E+00  0.00000000000E+00  0.93234578044E-11  0.17124000000E+03  0.17124000000E+03 0. -1.
       11    1    1    2    0    0  0.11322582261E-02  0.16814419396E-01  0.47648275223E+00  0.47678095715E+00  0.51109989000E-03 0.  1.
     -623    1    1    2    0    0  0.12953031743E-01 -0.18041593962E-01  0.19940876589E-02  0.17124000145E+03  0.17124000000E+03 0. -1.
     -611    1    1    2    0    0 -0.65245056919E-01 -0.74229045152E-02  0.38328085722E+01  0.38333710790E+01  0.51109989000E-03 0.  1.
      611    1    1    2    0    0  0.51159766950E-01  0.86500790814E-02  0.11887145641E+01  0.11898465119E+01  0.51109989000E-03 0. -1.
</event>
<event>
 6   3  0.2379893E+03  0.9118800E+02  0.7818608E-02  0.1180000E+00
       11   -1    0    0    0    0  0.00000000000E+00  0.00000000000E+00  0.54999999763E+01  0.55000000000E+01  0.51109989000E-03 0.  1.
     -623   -1    0    0    0    0  0.00000000000E+00  0.00000000000E+00  0.93234578044E-11  0.17124000000E+03  0.17124000000E+03 0.  1.
       11    1    1    2    0    0 -0.10493401259E-02 -0.16760342863E-02  0.59717501679E-02  0.63113571277E-02  0.51109989000E-03 0.  1.
     -623    1    1    2    0    0  0.13111885624E-02  0.13894595633E-02  0.10853447974E-02  0.17124000001E+03  0.17124000000E+03 0.  1.
     -611    1    1    2    0    0 -0.43049796389E-01 -0.65670768830E-02  0.35227389674E+01  0.35230081614E+01  0.51109989000E-03 0.  1.
      611    1    1    2    0    0  0.42787947953E-01  0.68536516060E-02  0.19702039138E+01  0.19706804673E+01  0.51109989000E-03 0. -1.
</event>
<event>
 6   3  0.2312675E+03  0.9118800E+02  0.7818608E-02  0.1180000E+00
       11   -1    0    0    0    0  0.00000000000E+00  0.00000000000E+00  0.54999999763E+01  0.55000000000E+01  0.51109989000E-03 0. -1.
     -623   -1    0    0    0    0  0.00000000000E+00  0.00000000000E+00  0.93234578044E-11  0.17124000000E+03  0.17124000000E+03 0. -1.
       11    1    1    2    0    0  0.19248395472E-02  0.11714737561E-01  0.11150994359E+00  0.11214128957E+00  0.51109989000E-03 0. -1.
     -623    1    1    2    0    0  0.10677055704E-01  0.19413864111E-02  0.16690283607E-02  0.17124000035E+03  0.17124000000E+03 0. -1.
     -611    1    1    2    0    0 -0.46992847950E-01  0.85942089305E-02  0.43003455134E+01  0.43006108850E+01  0.51109989000E-03 0. -1.
      611    1    1    2    0    0  0.34390952698E-01 -0.22250332903E-01  0.10864754908E+01  0.10872474734E+01  0.51109989000E-03 0.  1.
</event>
<event>
 6   3  0.2312675E+03  0.9118800E+02  0.7818608E-02  0.1180000E+00
       11   -1    0    0    0    0  0.00000000000E+00  0.00000000000E+00  0.54999999763E+01  0.55000000000E+01  0.51109989000E-03 0. -1.
     -623   -1    0    0    0    0  0.00000000000E+00  0.00000000000E+00  0.93234578044E-11  0.17124000000E+03  0.17124000000E+03 0.  1.
       11    1    1    2    0    0 -0.86149697289E-02  0.83574043959E-01  0.65090950593E+00  0.65630959513E+00  0.51109989000E-03 0. -1.
     -623    1    1    2    0    0 -0.49528445226E-01 -0.25659365328E-01  0.61048300790E-02  0.17124000919E+03  0.17124000000E+03 0.  1.
     -611    1    1    2    0    0  0.38053123756E-01 -0.38471443001E-01  0.32223767150E+01  0.32228310609E+01  0.51109989000E-03 0. -1.
      611    1    1    2    0    0  0.20090291265E-01 -0.19443235697E-01  0.16206089308E+01  0.16208501556E+01  0.51109989000E-03 0.  1.
</event>
<event>
 6   3  0.2312675E+03  0.9118800E+02  0.7818608E-02  0.1180000E+00
       11   -1    0    0    0    0  0.00000000000E+00  0.00000000000E+00  0.54999999763E+01  0.55000000000E+01  0.51109989000E-03 0. -1.
     -623   -1    0    0    0    0  0.00000000000E+00  0.00000000000E+00  0.93234578044E-11  0.17124000000E+03  0.17124000000E+03 0. -1.
       11    1    1    2    0    0 -0.93966248718E-02 -0.53980111973E-01  0.54009795554E+00  0.54287034534E+00  0.51109989000E-03 0. -1.
     -623    1    1    2    0    0 -0.16944033435E-01 -0.48958404363E-01  0.45695614890E-02  0.17124000790E+03  0.17124000000E+03 0. -1.
     -611    1    1    2    0    0  0.52036104297E-01  0.48085776079E-01  0.30655525567E+01  0.30663712654E+01  0.51109989000E-03 0. -1.
      611    1    1    2    0    0 -0.25695445991E-01  0.54852740258E-01  0.18897799025E+01  0.18907504913E+01  0.51109989000E-03 0.  1.
</event>
<event>
 6   3  0.2312675E+03  0.9118800E+02  0.7818608E-02  0.1180000E+00
       11   -1    0    0    0    0  0.00000000000E+00  0.00000000000E+00  0.54999999763E+01  0.55000000000E+01  0.51109989000E-03 0.  1.
     -623   -1    0    0    0    0  0.00000000000E+00  0.00000000000E+00  0.93234578044E-11  0.17124000000E+03  0.17124000000E+03 0. -1.
       11    1    1    2    0    0  0.28236938951E-02 -0.14501939195E-02  0.47024508531E+00  0.47025607683E+00  0.51109989000E-03 0.  1.
     -623    1    1    2    0    0  0.30900042503E-02 -0.31707089911E-02  0.57935291448E-03  0.17124000006E+03  0.17124000000E+03 0. -1.
     -611    1    1    2    0    0 -0.31902520522E-01 -0.21524052769E-01  0.27739966182E+01  0.27742636059E+01  0.51109989000E-03 0. -1.
      611    1    1    2    0    0  0.25988822377E-01  0.26144955679E-01  0.22551789197E+01  0.22554802590E+01  0.51109989000E-03 0.  1.
</event>
<event>
 6   3  0.2312675E+03  0.9118800E+02  0.7818608E-02  0.1180000E+00
       11   -1    0    0    0    0  0.00000000000E+00  0.00000000000E+00  0.54999999763E+01  0.55000000000E+01  0.51109989000E-03 0.  1.
     -623   -1    0    0    0    0  0.00000000000E+00  0.00000000000E+00  0.93234578044E-11  0.17124000000E+03  0.17124000000E+03 0.  1.
       11    1    1    2    0    0 -0.42796948418E-02 -0.99449473591E-02  0.18294258263E+00  0.18326338294E+00  0.51109989000E-03 0.  1.
     -623    1    1    2    0    0 -0.12473881038E-02  0.96249495851E-02  0.10061919550E-02  0.17124000028E+03  0.17124000000E+03 0.  1.
     -611    1    1    2    0    0  0.35036502168E-01  0.25933124054E-01  0.34542974848E+01  0.34545725434E+01  0.51109989000E-03 0. -1.
      611    1    1    2    0    0 -0.29509419223E-01 -0.25613126281E-01  0.18617537171E+01  0.18621637958E+01  0.51109989000E-03 0.  1.
</event>
<event>
 6   3  0.2312675E+03  0.9118800E+02  0.7818608E-02  0.1180000E+00
       11   -1    0    0    0    0  0.00000000000E+00  0.00000000000E+00  0.54999999763E+01  0.55000000000E+01  0.51109989000E-03 0.  1.
     -623   -1    0    0    0    0  0.00000000000E+00  0.00000000000E+00  0.93234578044E-11  0.17124000000E+03  0.17124000000E+03 0.  1.
       11    1    1    2    0    0 -0.14113504196E-04 -0.22233309361E-02 -0.47855448073E-03  0.23310163301E-02  0.51109989000E-03 0.  1.
     -623    1    1    2    0    0 -0.11964556570E-02 -0.79231288350E-02  0.64144772075E-02  0.17124000031E+03  0.17124000000E+03 0.  1.
     -611    1    1    2    0    0  0.96414583998E-01 -0.20708662910E-01  0.28909476415E+01  0.28926291065E+01  0.51109989000E-03 0.  1.
      611    1    1    2    0    0 -0.95204014836E-01  0.30855122681E-01  0.26031164121E+01  0.26050395696E+01  0.51109989000E-03 0. -1.
</event>
<event>
 6   3  0.2312675E+03  0.9118800E+02  0.7818608E-02  0.1180000E+00
       11   -1    0    0    0    0  0.00000000000E+00  0.00000000000E+00  0.54999999763E+01  0.55000000000E+01  0.51109989000E-03 0. -1.
     -623   -1    0    0    0    0  0.00000000000E+00  0.00000000000E+00  0.93234578044E-11  0.17124000000E+03  0.17124000000E+03 0.  1.
       11    1    1    2    0    0  0.11934388394E-02 -0.10940363420E-01  0.14063609916E+00  0.14106696799E+00  0.51109989000E-03 0. -1.
     -623    1    1    2    0    0 -0.18810795572E-02  0.12072453392E-01  0.28042719782E-02  0.17124000046E+03  0.17124000000E+03 0.  1.
     -611    1    1    2    0    0  0.34646901080E-01 -0.70059743784E-01  0.33290098528E+01  0.33299272720E+01  0.51109989000E-03 0. -1.
      611    1    1    2    0    0 -0.33959260362E-01  0.68927653812E-01  0.20275497523E+01  0.20290053012E+01  0.51109989000E-03 0.  1.
</event>
<event>
 6   3  0.2312675E+03  0.9118800E+02  0.7818608E-02  0.1180000E+00
       11   -1    0    0    0    0  0.00000000000E+00  0.00000000000E+00  0.54999999763E+01  0.55000000000E+01  0.51109989000E-03 0.  1.
     -623   -1    0    0    0    0  0.00000000000E+00  0.00000000000E+00  0.93234578044E-11  0.17124000000E+03  0.17124000000E+03 0.  1.
       11    1    1    2    0    0 -0.44327902312E-01  0.33504018999E-02  0.60489207229E+00  0.60652359266E+00  0.51109989000E-03 0.  1.
     -623    1    1    2    0    0  0.10521064443E+00  0.11836865621E-01  0.20764233212E-02  0.17124003274E+03  0.17124000000E+03 0.  1.
     -611    1    1    2    0    0 -0.37902902610E-01 -0.64044769987E-02  0.32633113275E+01  0.32635377627E+01  0.51109989000E-03 0.  1.
      611    1    1    2    0    0 -0.22979839510E-01 -0.87827905221E-02  0.16297201533E+01  0.16299059021E+01  0.51109989000E-03 0. -1.
</event>
<event>
 6   3  0.2312675E+03  0.9118800E+02  0.7818608E-02  0.1180000E+00
       11   -1    0    0    0    0  0.00000000000E+00  0.00000000000E+00  0.54999999763E+01  0.55000000000E+01  0.51109989000E-03 0.  1.
     -623   -1    0    0    0    0  0.00000000000E+00  0.00000000000E+00  0.93234578044E-11  0.17124000000E+03  0.17124000000E+03 0.  1.
       11    1    1    2    0    0 -0.91946801057E-02  0.64135158326E-02  0.78800959867E+00  0.78808950262E+00  0.51109989000E-03 0.  1.
     -623    1    1    2    0    0  0.62785873048E-01 -0.41422895754E-01  0.53145377767E-03  0.17124001652E+03  0.17124000000E+03 0.  1.
     -611    1    1    2    0    0 -0.42091181749E-01  0.27727062538E-01  0.37224099811E+01  0.37227512389E+01  0.51109989000E-03 0.  1.
      611    1    1    2    0    0 -0.11500010773E-01  0.72823171052E-02  0.98904890585E+00  0.98914270042E+00  0.51109989000E-03 0.  1.
</event>
<event>
 6   3  0.2312675E+03  0.9118800E+02  0.7818608E-02  0.1180000E+00
       11   -1    0    0    0    0  0.00000000000E+00  0.00000000000E+00  0.54999999763E+01  0.55000000000E+01  0.51109989000E-03 0. -1.
     -623   -1    0    0    0    0  0.00000000000E+00  0.00000000000E+00  0.93234578044E-11  0.17124000000E+03  0.17124000000E+03 0.  1.
       11    1    1    2    0    0  0.56348552027E-01  0.11546041469E-01  0.61219857130E+00  0.61489496852E+00  0.51109989000E-03 0. -1.
     -623    1    1    2    0    0 -0.40636094899E-02 -0.11493766976E-01  0.29768251159E-02  0.17124000046E+03  0.17124000000E+03 0.  1.
     -611    1    1    2    0    0 -0.11962206877E-01 -0.22266578460E-03  0.11096534434E+01  0.11097180586E+01  0.51109989000E-03 0.  1.
      611    1    1    2    0    0 -0.40322735659E-01  0.17039129199E-03  0.37751711363E+01  0.37753865129E+01  0.51109989000E-03 0. -1.
</event>
<event>
 6   3  0.2312675E+03  0.9118800E+02  0.7818608E-02  0.1180000E+00
       11   -1    0    0    0    0  0.00000000000E+00  0.00000000000E+00  0.54999999763E+01  0.55000000000E+01  0.51109989000E-03 0.  1.
     -623   -1    0    0    0    0  0.00000000000E+00  0.00000000000E+00  0.93234578044E-11  0.17124000000E+03  0.17124000000E+03 0. -1.
       11    1    1    2    0    0 -0.55112867298E-02 -0.80482252878E-02  0.15988453239E+00  0.16018262432E+00  0.51109989000E-03 0.  1.
     -623    1    1    2    0    0  0.13951142956E-01  0.35387439056E-02  0.14568555880E-02  0.17124000061E+03  0.17124000000E+03 0. -1.
     -611    1    1    2    0    0 -0.53032722625E-01  0.28862724135E-01  0.28523110582E+01  0.28529500802E+01  0.51109989000E-03 0.  1.
      611    1    1    2    0    0  0.44592866399E-01 -0.24353242752E-01  0.24863475301E+01  0.24868666844E+01  0.51109989000E-03 0. -1.
</event>
<event>
 6   3  0.2312675E+03  0.9118800E+02  0.7818608E-02  0.1180000E+00
       11   -1    0    0    0    0  0.00000000000E+00  0.00000000000E+00  0.54999999763E+01  0.55000000000E+01  0.51109989000E-03 0.  1.
     -623   -1    0    0    0    0  0.00000000000E+00  0.00000000000E+00  0.93234578044E-11  0.17124000000E+03  0.17124000000E+03 0. -1.
       11    1    1    2    0    0  0.50985634958E-02  0.28539260141E-02  0.94302926915E-02  0.11105489037E-01  0.51109989000E-03 0.  1.
     -623    1    1    2    0    0 -0.49913166096E-02  0.17009627173E-01  0.43007871918E-02  0.17124000097E+03  0.17124000000E+03 0. -1.
     -611    1    1    2    0    0 -0.79300816439E-01  0.18866068142E-01  0.27017480605E+01  0.27029775048E+01  0.51109989000E-03 0.  1.
      611    1    1    2    0    0  0.79193569553E-01 -0.38729621329E-01  0.27845208359E+01  0.27859160346E+01  0.51109989000E-03 0. -1.
</event>
<event>
 6   3  0.2312675E+03  0.9118800E+02  0.7818608E-02  0.1180000E+00
       11   -1    0    0    0    0  0.00000000000E+00  0.00000000000E+00  0.54999999763E+01  0.55000000000E+01  0.51109989000E-03 0.  1.
     -623   -1    0    0    0    0  0.00000000000E+00  0.00000000000E+00  0.93234578044E-11  0.17124000000E+03  0.17124000000E+03 0. -1.
       11    1    1    2    0    0 -0.61182096821E-01  0.22395139241E-02  0.70923397337E+00  0.71187172623E+00  0.51109989000E-03 0.  1.
     -623    1    1    2    0    0  0.21077636098E-02 -0.41470218809E-02  0.30584574874E-02  0.17124000009E+03  0.17124000000E+03 0. -1.
     -611    1    1    2    0    0  0.21338039688E-01 -0.10393301664E-01  0.17185407106E+01  0.17187046774E+01  0.51109989000E-03 0. -1.
      611    1    1    2    0    0  0.37736293524E-01  0.12300809621E-01  0.30691668348E+01  0.30694235059E+01  0.51109989000E-03 0.  1.
</event>
<event>
 6   3  0.2312675E+03  0.9118800E+02  0.7818608E-02  0.1180000E+00
       11   -1    0    0    0    0  0.00000000000E+00  0.00000000000E+00  0.54999999763E+01  0.55000000000E+01  0.51109989000E-03 0.  1.
     -623   -1    0    0    0    0  0.00000000000E+00  0.00000000000E+00  0.93234578044E-11  0.17124000000E+03  0.17124000000E+03 0.  1.
       11    1    1    2    0    0  0.21744406271E-01  0.93019581383E-02  0.91745803991E+00  0.91776296605E+00  0.51109989000E-03 0.  1.
     -623    1    1    2    0    0 -0.78203196120E-01 -0.11454653185E-01  0.80379806448E-03  0.17124001824E+03  0.17124000000E+03 0.  1.
     -611    1    1    2    0    0  0.21450821365E-01  0.17925389667E-01  0.19658702649E+01  0.19660690773E+01  0.51109989000E-03 0.  1.
      611    1    1    2    0    0  0.35007968483E-01 -0.15772694621E-01  0.26158678733E+01  0.26161497142E+01  0.51109989000E-03 0. -1.
</event>
<event>
 6   3  0.2312675E+03  0.9118800E+02  0.7818608E-02  0.1180000E+00
       11   -1    0    0    0    0  0.00000000000E+00  0.00000000000E+00  0.54999999763E+01  0.55000000000E+01  0.51109989000E-03 0. -1.
     -623   -1    0    0    0    0  0.00000000000E+00  0.00000000000E+00  0.93234578044E-11  0.17124000000E+03  0.17124000000E+03 0. -1.
       11    1    1    2    0    0  0.11797804412E-01  0.50726980255E-02  0.75721836768E+00  0.75732743119E+00  0.51109989000E-03 0. -1.
     -623    1    1    2    0    0 -0.11124971000E+00 -0.48915090764E-01  0.13978517469E-02  0.17124004313E+03  0.17124000000E+03 0. -1.
     -611    1    1    2    0    0  0.52078806491E-01  0.23117657888E-01  0.24923936699E+01  0.24930449445E+01  0.51109989000E-03 0. -1.
      611    1    1    2    0    0  0.47373099229E-01  0.20724734908E-01  0.22489900931E+01  0.22495845006E+01  0.51109989000E-03 0. -1.
</event>
<event>
 6   3  0.2312675E+03  0.9118800E+02  0.7818608E-02  0.1180000E+00
       11   -1    0    0    0    0  0.00000000000E+00  0.00000000000E+00  0.54999999763E+01  0.55000000000E+01  0.51109989000E-03 0.  1.
     -623   -1    0    0    0    0  0.00000000000E+00  0.00000000000E+00  0.93234578044E-11  0.17124000000E+03  0.17124000000E+03 0.  1.
       11    1    1    2    0    0  0.33497598761E-01  0.70581243996E-02  0.43231172642E+00  0.43366530443E+00  0.51109989000E-03 0.  1.
     -623    1    1    2    0    0 -0.37377618826E-02  0.43067725188E-02  0.19563339151E-02  0.17124000011E+03  0.17124000000E+03 0.  1.
     -611    1    1    2    0    0  0.22323678590E-01  0.40459548679E-02  0.19154821705E+01  0.19156165908E+01  0.51109989000E-03 0. -1.
      611    1    1    2    0    0 -0.52083515469E-01 -0.15410851786E-01  0.31502497455E+01  0.31507179987E+01  0.51109989000E-03 0.  1.
</event>
<event>
 6   3  0.2312675E+03  0.9118800E+02  0.7818608E-02  0.1180000E+00
       11   -1    0    0    0    0  0.00000000000E+00  0.00000000000E+00  0.54999999763E+01  0.55000000000E+01  0.51109989000E-03 0. -1.
     -623   -1    0    0    0    0  0.00000000000E+00  0.00000000000E+00  0.93234578044E-11  0.17124000000E+03  0.17124000000E+03 0.  1.
       11    1    1    2    0    0 -0.72574934896E-02 -0.11319843179E-02  0.34710981312E-01  0.35483320687E-01  0.51109989000E-03 0. -1.
     -623    1    1    2    0    0  0.16039761779E-02 -0.11911597334E-02  0.18022008917E-02  0.17124000002E+03  0.17124000000E+03 0.  1.
     -611    1    1    2    0    0  0.44154202509E-01  0.16078125767E-01  0.43899569601E+01  0.43902084771E+01  0.51109989000E-03 0. -1.
      611    1    1    2    0    0 -0.38500685197E-01 -0.13754981716E-01  0.10735298339E+01  0.10743081810E+01  0.51109989000E-03 0.  1.
</event>
<event>
 6   3  0.2312675E+03  0.9118800E+02  0.7818608E-02  0.1180000E+00
       11   -1    0    0    0    0  0.00000000000E+00  0.00000000000E+00  0.54999999763E+01  0.55000000000E+01  0.51109989000E-03 0.  1.
     -623   -1    0    0    0    0  0.00000000000E+00  0.00000000000E+00  0.93234578044E-11  0.17124000000E+03  0.17124000000E+03 0.  1.
       11    1    1    2    0    0  0.29017212857E-02 -0.12364122927E-01  0.42007298304E+00  0.42026523033E+00  0.51109989000E-03 0.  1.
     -623    1    1    2    0    0  0.61287355570E-01  0.77794681987E-01  0.10483283993E-02  0.17124002864E+03  0.17124000000E+03 0.  1.
     -611    1    1    2    0    0 -0.10880611201E-01 -0.10363930569E-01  0.81639532037E+00  0.81653375870E+00  0.51109989000E-03 0. -1.
      611    1    1    2    0    0 -0.53308465654E-01 -0.55066628486E-01  0.42624833443E+01  0.42631723689E+01  0.51109989000E-03 0.  1.
</event>
<event>
 6   3  0.2312675E+03  0.9118800E+02  0.7818608E-02  0.1180000E+00
       11   -1    0    0    0    0  0.00000000000E+00  0.00000000000E+00  0.54999999763E+01  0.55000000000E+01  0.51109989000E-03 0.  1.
     -623   -1    0    0    0    0  0.00000000000E+00  0.00000000000E+00  0.93234578044E-11  0.17124000000E+03  0.17124000000E+03 0. -1.
       11    1    1    2    0    0  0.11252560741E-02  0.15345766869E-02  0.10746409945E+01  0.10746428008E+01  0.51109989000E-03 0.  1.
     -623    1    1    2    0    0 -0.27679668044E-03  0.77510370095E-03  0.44401909012E-03  0.17124000000E+03  0.17124000000E+03 0. -1.
     -611    1    1    2    0    0  0.27279064417E-01  0.13232425187E-01  0.22719382227E+01  0.22721405752E+01  0.51109989000E-03 0. -1.
      611    1    1    2    0    0 -0.28127523811E-01 -0.15542105575E-01  0.21529767403E+01  0.21532166217E+01  0.51109989000E-03 0.  1.
</event>
<event>
 6   3  0.2312675E+03  0.9118800E+02  0.7818608E-02  0.1180000E+00
       11   -1    0    0    0    0  0.00000000000E+00  0.00000000000E+00  0.54999999763E+01  0.55000000000E+01  0.51109989000E-03 0. -1.
     -623   -1    0    0    0    0  0.00000000000E+00  0.00000000000E+00  0.93234578044E-11  0.17124000000E+03  0.17124000000E+03 0. -1.
       11    1    1    2    0    0 -0.40592109177E-04 -0.79786455390E-02  0.84564681380E+00  0.84568460749E+00  0.51109989000E-03 0. -1.
     -623    1    1    2    0    0 -0.47153311502E-01  0.33495656315E-01  0.35707446994E-03  0.17124000977E+03  0.17124000000E+03 0. -1.
     -611    1    1    2    0    0  0.12058282269E-01 -0.59332952267E-02  0.11566594851E+01  0.11567376677E+01  0.51109989000E-03 0. -1.
      611    1    1    2    0    0  0.35135621340E-01 -0.19583715551E-01  0.34973366029E+01  0.34975679563E+01  0.51109989000E-03 0. -1.
</event>
<event>
 6   3  0.2312675E+03  0.9118800E+02  0.7818608E-02  0.1180000E+00
       11   -1    0    0    0    0  0.00000000000E+00  0.00000000000E+00  0.54999999763E+01  0.55000000000E+01  0.51109989000E-03 0.  1.
     -623   -1    0    0    0    0  0.00000000000E+00  0.00000000000E+00  0.93234578044E-11  0.17124000000E+03  0.17124000000E+03 0.  1.
       11    1    1    2    0    0  0.17545172545E-03 -0.20168276542E-01  0.74510057180E+00  0.74537367373E+00  0.51109989000E-03 0.  1.
     -623    1    1    2    0    0 -0.11726536868E-01  0.36966536776E-01  0.76526341547E-03  0.17124000439E+03  0.17124000000E+03 0.  1.
     -611    1    1    2    0    0 -0.25374925856E-01 -0.15341955773E-01  0.16360913704E+01  0.16363601364E+01  0.51109989000E-03 0. -1.
      611    1    1    2    0    0  0.36926010998E-01 -0.14563044611E-02  0.31180427707E+01  0.31182617967E+01  0.51109989000E-03 0.  1.
</event>
<event>
 6   3  0.2312675E+03  0.9118800E+02  0.7818608E-02  0.1180000E+00
       11   -1    0    0    0    0  0.00000000000E+00  0.00000000000E+00  0.54999999763E+01  0.55000000000E+01  0.51109989000E-03 0.  1.
     -623   -1    0    0    0    0  0.00000000000E+00  0.00000000000E+00  0.93234578044E-11  0.17124000000E+03  0.17124000000E+03 0.  1.
       11    1    1    2    0    0 -0.55226123449E-01  0.47882759922E-02  0.77199975497E+00  0.77398755494E+00  0.51109989000E-03 0.  1.
     -623    1    1    2    0    0 -0.65535449992E-02 -0.29054178702E-02  0.23932810590E-02  0.17124000017E+03  0.17124000000E+03 0.  1.
     -611    1    1    2    0    0  0.47236253161E-01 -0.19013552249E-03  0.36346431392E+01  0.36349501111E+01  0.51109989000E-03 0.  1.
      611    1    1    2    0    0  0.14543415290E-01 -0.16927225996E-02  0.10909638013E+01  0.10910621674E+01  0.51109989000E-03 0. -1.
</event>
<event>
 6   3  0.2312675E+03  0.9118800E+02  0.7818608E-02  0.1180000E+00
       11   -1    0    0    0    0  0.00000000000E+00  0.00000000000E+00  0.54999999763E+01  0.55000000000E+01  0.51109989000E-03 0.  1.
     -623   -1    0    0    0    0  0.00000000000E+00  0.00000000000E+00  0.93234578044E-11  0.17124000000E+03  0.17124000000E+03 0.  1.
       11    1    1    2    0    0  0.66873856334E-02 -0.30211552885E-01  0.51530901887E+00  0.51623745041E+00  0.51109989000E-03 0.  1.
     -623    1    1    2    0    0  0.16995830130E-02  0.70719642043E-02  0.13936156650E-02  0.17124000016E+03  0.17124000000E+03 0.  1.
     -611    1    1    2    0    0 -0.32901282672E-01  0.27638559519E-02  0.32840170730E+01  0.32841830842E+01  0.51109989000E-03 0.  1.
      611    1    1    2    0    0  0.24514314025E-01  0.20375732729E-01  0.16992802688E+01  0.16995793053E+01  0.51109989000E-03 0. -1.
</event>
<event>
 6   3  0.2312675E+03  0.9118800E+02  0.7818608E-02  0.1180000E+00
       11   -1    0    0    0    0  0.00000000000E+00  0.00000000000E+00  0.54999999763E+01  0.55000000000E+01  0.51109989000E-03 0.  1.
     -623   -1    0    0    0    0  0.00000000000E+00  0.00000000000E+00  0.93234578044E-11  0.17124000000E+03  0.17124000000E+03 0. -1.
       11    1    1    2    0    0 -0.27952223751E-01  0.48873247631E-01  0.10449475618E+00  0.11869851069E+00  0.51109989000E-03 0.  1.
     -623    1    1    2    0    0  0.18307447915E-01 -0.59736238929E-01  0.24846298230E-01  0.17124001320E+03  0.17124000000E+03 0. -1.
     -611    1    1    2    0    0  0.13784162791E+00  0.62048975137E-01  0.41668193163E+01  0.41695603924E+01  0.51109989000E-03 0. -1.
      611    1    1    2    0    0 -0.12819685207E+00 -0.51185983839E-01  0.12038396055E+01  0.12117278964E+01  0.51109989000E-03 0.  1.
</event>
<event>
 6   3  0.2312675E+03  0.9118800E+02  0.7818608E-02  0.1180000E+00
       11   -1    0    0    0    0  0.00000000000E+00  0.00000000000E+00  0.54999999763E+01  0.55000000000E+01  0.51109989000E-03 0. -1.
     -623   -1    0    0    0    0  0.00000000000E+00  0.00000000000E+00  0.93234578044E-11  0.17124000000E+03  0.17124000000E+03 0.  1.
       11    1    1    2    0    0 -0.18719019452E-01 -0.23107030228E-01  0.10313650807E+01  0.10317938396E+01  0.51109989000E-03 0. -1.
     -623    1    1    2    0    0 -0.67671757248E-01  0.95620595204E-02  0.12984144875E-02  0.17124001364E+03  0.17124000000E+03 0.  1.
     -611    1    1    2    0    0  0.16351192114E-01  0.28670206345E-02  0.84558143181E+00  0.84574452427E+00  0.51109989000E-03 0. -1.
      611    1    1    2    0    0  0.70039584593E-01  0.10677950074E-01  0.36217550497E+01  0.36224479932E+01  0.51109989000E-03 0. -1.
</event>
<event>
 6   3  0.2312675E+03  0.9118800E+02  0.7818608E-02  0.1180000E+00
       11   -1    0    0    0    0  0.00000000000E+00  0.00000000000E+00  0.54999999763E+01  0.55000000000E+01  0.51109989000E-03 0. -1.
     -623   -1    0    0    0    0  0.00000000000E+00  0.00000000000E+00  0.93234578044E-11  0.17124000000E+03  0.17124000000E+03 0.  1.
       11    1    1    2    0    0  0.53169532682E-02  0.99267158585E-02  0.39695540410E+00  0.39711542874E+00  0.51109989000E-03 0. -1.
     -623    1    1    2    0    0  0.52462530437E-01  0.25975696119E-01  0.62364461779E-03  0.17124001001E+03  0.17124000000E+03 0.  1.
     -611    1    1    2    0    0 -0.36236165901E-01 -0.22305103589E-01  0.31591630834E+01  0.31594496714E+01  0.51109989000E-03 0. -1.
      611    1    1    2    0    0 -0.21543317859E-01 -0.13597308422E-01  0.19432578490E+01  0.19434248970E+01  0.51109989000E-03 0. -1.
</event>
<event>
 6   3  0.2312675E+03  0.9118800E+02  0.7818608E-02  0.1180000E+00
       11   -1    0    0    0    0  0.00000000000E+00  0.00000000000E+00  0.54999999763E+01  0.55000000000E+01  0.51109989000E-03 0.  1.
     -623   -1    0    0    0    0  0.00000000000E+00  0.00000000000E+00  0.93234578044E-11  0.17124000000E+03  0.17124000000E+03 0. -1.
       11    1    1    2    0    0  0.41890319048E-01 -0.23105020887E-01  0.89353714857E+00  0.89481704159E+00  0.51109989000E-03 0.  1.
     -623    1    1    2    0    0  0.78813355056E-02  0.99922023669E-02  0.15705010313E-02  0.17124000048E+03  0.17124000000E+03 0. -1.
     -611    1    1    2    0    0 -0.39064346975E-01  0.11773910379E-01  0.37459712900E+01  0.37461935101E+01  0.51109989000E-03 0.  1.
      611    1    1    2    0    0 -0.10707307578E-01  0.13389081412E-02  0.85892103664E+00  0.85898896821E+00  0.51109989000E-03 0. -1.
</event>
<event>
 6   3  0.2312675E+03  0.9118800E+02  0.7818608E-02  0.1180000E+00
       11   -1    0    0    0    0  0.00000000000E+00  0.00000000000E+00  0.54999999763E+01  0.55000000000E+01  0.51109989000E-03 0. -1.
     -623   -1    0    0    0    0  0.00000000000E+00  0.00000000000E+00  0.93234578044E-11  0.17124000000E+03  0.17124000000E+03 0. -1.
       11    1    1    2    0    0 -0.83650657524E-01 -0.48765817930E-01  0.41475457059E+00  0.42590744599E+00  0.51109989000E-03 0. -1.
     -623    1    1    2    0    0  0.53918610153E-02  0.14496012912E-01  0.11873656997E-01  0.17124000111E+03  0.17124000000E+03 0. -1.
     -611    1    1    2    0    0  0.88090083441E-02  0.37888028344E-02  0.59401464574E+00  0.59409226071E+00  0.51109989000E-03 0.  1.
      611    1    1    2    0    0  0.69449788194E-01  0.30481002196E-01  0.44793571048E+01  0.44799991851E+01  0.51109989000E-03 0. -1.
</event>
<event>
 6   3  0.2312675E+03  0.9118800E+02  0.7818608E-02  0.1180000E+00
       11   -1    0    0    0    0  0.00000000000E+00  0.00000000000E+00  0.54999999763E+01  0.55000000000E+01  0.51109989000E-03 0. -1.
     -623   -1    0    0    0    0  0.00000000000E+00  0.00000000000E+00  0.93234578044E-11  0.17124000000E+03  0.17124000000E+03 0.  1.
       11    1    1    2    0    0 -0.49117138144E-01 -0.25968522656E-01  0.96076358887E+00  0.96236884423E+00  0.51109989000E-03 0. -1.
     -623    1    1    2    0    0 -0.40757297605E-01 -0.27764672423E-01  0.28208327738E-02  0.17124000712E+03  0.17124000000E+03 0.  1.
     -611    1    1    2    0    0  0.50103115976E-01  0.30016969139E-01  0.25336559097E+01  0.25343290770E+01  0.51109989000E-03 0. -1.
      611    1    1    2    0    0  0.39771319637E-01  0.23716225859E-01  0.20027596380E+01  0.20032949473E+01  0.51109989000E-03 0. -1.
</event>
<event>
 6   3  0.2312675E+03  0.9118800E+02  0.7818608E-02  0.1180000E+00
       11   -1    0    0    0    0  0.00000000000E+00  0.00000000000E+00  0.54999999763E+01  0.55000000000E+01  0.51109989000E-03 0. -1.
     -623   -1    0    0    0    0  0.00000000000E+00  0.00000000000E+00  0.93234578044E-11  0.17124000000E+03  0.17124000000E+03 0. -1.
       11    1    1    2    0    0 -0.50717313480E-03 -0.94628993395E-03  0.26558955567E-03  0.12183801285E-02  0.51109989000E-03 0. -1.
     -623    1    1    2    0    0  0.54642619684E-03  0.18792336871E-03  0.33979864822E-02  0.17124000003E+03  0.17124000000E+03 0. -1.
     -611    1    1    2    0    0  0.78458247275E-01 -0.22382449212E-01  0.29665015062E+01  0.29676233114E+01  0.51109989000E-03 0. -1.
      611    1    1    2    0    0 -0.78497500337E-01  0.23140815777E-01  0.25298348940E+01  0.25311582738E+01  0.51109989000E-03 0.  1.
</event>
<event>
 6   3  0.2312675E+03  0.9118800E+02  0.7818608E-02  0.1180000E+00
       11   -1    0    0    0    0  0.00000000000E+00  0.00000000000E+00  0.54999999763E+01  0.55000000000E+01  0.51109989000E-03 0. -1.
     -623   -1    0    0    0    0  0.00000000000E+00  0.00000000000E+00  0.93234578044E-11  0.17124000000E+03  0.17124000000E+03 0.  1.
       11    1    1    2    0    0  0.64077826388E-02 -0.33153038993E-03  0.26002468962E+00  0.26010434449E+00  0.51109989000E-03 0. -1.
     -623    1    1    2    0    0 -0.20066346357E-02  0.34817672602E-02  0.73492344999E-03  0.17124000005E+03  0.17124000000E+03 0.  1.
     -611    1    1    2    0    0 -0.39935343539E-01 -0.18588173629E-01  0.28908101972E+01  0.28911458299E+01  0.51109989000E-03 0.  1.
      611    1    1    2    0    0  0.35534195536E-01  0.15437936758E-01  0.23484301659E+01  0.23487497769E+01  0.51109989000E-03 0. -1.
</event>
<event>
 6   3  0.2312675E+03  0.9118800E+02  0.7818608E-02  0.1180000E+00
       11   -1    0    0    0    0  0.00000000000E+00  0.00000000000E+00  0.54999999763E+01  0.55000000000E+01  0.51109989000E-03 0. -1.
     -623   -1    0    0    0    0  0.00000000000E+00  0.00000000000E+00  0.93234578044E-11  0.17124000000E+03  0.17124000000E+03 0. -1.
       11    1    1    2    0    0  0.11048656759E-02  0.10846690495E-01  0.17719930728E+00  0.17753514341E+00  0.51109989000E-03 0. -1.
     -623    1    1    2    0    0  0.51574658559E-02 -0.74148618801E-03  0.12849598587E-02  0.17124000008E+03  0.17124000000E+03 0. -1.
     -611    1    1    2    0    0  0.42948569015E-01 -0.19756993069E-01  0.19336285029E+01  0.19342063920E+01  0.51109989000E-03 0.  1.
      611    1    1    2    0    0 -0.49210900547E-01  0.96517887619E-02  0.33878872061E+01  0.33882583804E+01  0.51109989000E-03 0. -1.
</event>
<event>
 6   3  0.2312675E+03  0.9118800E+02  0.7818608E-02  0.1180000E+00
       11   -1    0    0    0    0  0.00000000000E+00  0.00000000000E+00  0.54999999763E+01  0.55000000000E+01  0.51109989000E-03 0.  1.
     -623   -1    0    0    0    0  0.00000000000E+00  0.00000000000E+00  0.93234578044E-11  0.17124000000E+03  0.17124000000E+03 0. -1.
       11    1    1    2    0    0  0.40652993907E-01  0.14656145842E-01  0.71580788919E+00  0.71711133304E+00  0.51109989000E-03 0.  1.
     -623    1    1    2    0    0  0.14871657314E-01  0.24893805592E-01  0.17948586320E-02  0.17124000246E+03  0.17124000000E+03 0. -1.
     -611    1    1    2    0    0 -0.38632389305E-01 -0.25250353554E-01  0.31107117954E+01  0.31110541906E+01  0.51109989000E-03 0. -1.
      611    1    1    2    0    0 -0.16892261917E-01 -0.14299597881E-01  0.16716854332E+01  0.16718320118E+01  0.51109989000E-03 0.  1.
</event>
<event>
 6   3  0.2312675E+03  0.9118800E+02  0.7818608E-02  0.1180000E+00
       11   -1    0    0    0    0  0.00000000000E+00  0.00000000000E+00  0.54999999763E+01  0.55000000000E+01  0.51109989000E-03 0. -1.
     -623   -1    0    0    0    0  0.00000000000E+00  0.00000000000E+00  0.93234578044E-11  0.17124000000E+03  0.17124000000E+03 0.  1.
       11    1    1    2    0    0  0.48356950888E-01 -0.76267027002E-02  0.87980928675E+00  0.88117036012E+00  0.51109989000E-03 0. -1.
     -623    1    1    2    0    0  0.27527628982E-01  0.29265964343E-01  0.20640457074E-02  0.17124000473E+03  0.17124000000E+03 0.  1.
     -611    1    1    2    0    0 -0.36359634184E-01 -0.18082241879E-01  0.22952764289E+01  0.22956356716E+01  0.51109989000E-03 0. -1.
      611    1    1    2    0    0 -0.39524945686E-01 -0.35570197640E-02  0.23228502150E+01  0.23231892425E+01  0.51109989000E-03 0.  1.
</event>
<event>
 6   3  0.2312675E+03  0.9118800E+02  0.7818608E-02  0.1180000E+00
       11   -1    0    0    0    0  0.00000000000E+00  0.00000000000E+00  0.54999999763E+01  0.55000000000E+01  0.51109989000E-03 0.  1.
     -623   -1    0    0    0    0  0.00000000000E+00  0.00000000000E+00  0.93234578044E-11  0.17124000000E+03  0.17124000000E+03 0.  1.
       11    1    1    2    0    0  0.12532455820E-01 -0.22060556559E-02  0.20083977136E+00  0.20124314675E+00  0.51109989000E-03 0.  1.
     -623    1    1    2    0    0 -0.25973858095E-01  0.20497228706E-01  0.10010891322E-02  0.17124000320E+03  0.17124000000E+03 0.  1.
     -611    1    1    2    0    0 -0.24376813200E-01 -0.28415678716E-01  0.18993085208E+01  0.18996775511E+01  0.51109989000E-03 0. -1.
      611    1    1    2    0    0  0.37818215475E-01  0.10124505666E-01  0.33988505949E+01  0.33990761026E+01  0.51109989000E-03 0.  1.
</event>
<event>
 6   3  0.2312675E+03  0.9118800E+02  0.7818608E-02  0.1180000E+00
       11   -1    0    0    0    0  0.00000000000E+00  0.00000000000E+00  0.54999999763E+01  0.55000000000E+01  0.51109989000E-03 0. -1.
     -623   -1    0    0    0    0  0.00000000000E+00  0.00000000000E+00  0.93234578044E-11  0.17124000000E+03  0.17124000000E+03 0. -1.
       11    1    1    2    0    0  0.14181468038E+00 -0.64429679174E-01  0.92625312599E+00  0.93925912386E+00  0.51109989000E-03 0. -1.
     -623    1    1    2    0    0  0.20164275201E-01  0.30037038975E-01  0.16091165001E-01  0.17124000458E+03  0.17124000000E+03 0. -1.
     -611    1    1    2    0    0 -0.38254962179E-01  0.50257267769E-04  0.12633780109E+01  0.12639571608E+01  0.51109989000E-03 0.  1.
      611    1    1    2    0    0 -0.12372399341E+00  0.34342382932E-01  0.32942776744E+01  0.32967791377E+01  0.51109989000E-03 0. -1.
</event>
<event>
 6   3  0.2312675E+03  0.9118800E+02  0.7818608E-02  0.1180000E+00
       11   -1    0    0    0    0  0.00000000000E+00  0.00000000000E+00  0.54999999763E+01  0.55000000000E+01  0.51109989000E-03 0.  1.
     -623   -1    0    0    0    0  0.00000000000E+00  0.00000000000E+00  0.93234578044E-11  0.17124000000E+03  0.17124000000E+03 0. -1.
       11    1    1    2    0    0  0.33349916511E-02 -0.36164048569E-02  0.57412565592E-03  0.49790959790E-02  0.51109989000E-03 0.  1.
     -623    1    1    2    0    0  0.42969325763E-03 -0.14170478273E-01  0.66918450609E-02  0.17124000072E+03  0.17124000000E+03 0. -1.
     -611    1    1    2    0    0 -0.61998500020E-01 -0.24668211146E-01  0.13395545877E+01  0.13412155267E+01  0.51109989000E-03 0. -1.
      611    1    1    2    0    0  0.58233815111E-01  0.42455094275E-01  0.41531794179E+01  0.41538046596E+01  0.51109989000E-03 0.  1.
</event>
<event>
 6   3  0.2312675E+03  0.9118800E+02  0.7818608E-02  0.1180000E+00
       11   -1    0    0    0    0  0.00000000000E+00  0.00000000000E+00  0.54999999763E+01  0.55000000000E+01  0.51109989000E-03 0. -1.
     -623   -1    0    0    0    0  0.00000000000E+00  0.00000000000E+00  0.93234578044E-11  0.17124000000E+03  0.17124000000E+03 0. -1.
       11    1    1    2    0    0  0.30897254143E-02  0.26314861023E-02  0.22961464703E-01  0.23322975939E-01  0.51109989000E-03 0. -1.
     -623    1    1    2    0    0 -0.27199044700E-02 -0.59511885656E-02  0.35683874748E-02  0.17124000016E+03  0.17124000000E+03 0. -1.
     -611    1    1    2    0    0 -0.64358688513E-01 -0.42772795684E-01  0.42314192666E+01  0.42321248592E+01  0.51109989000E-03 0. -1.
      611    1    1    2    0    0  0.63988867569E-01  0.46092498147E-01  0.12420508575E+01  0.12445520027E+01  0.51109989000E-03 0.  1.
</event>
<event>
 6   3  0.2312675E+03  0.9118800E+02  0.7818608E-02  0.1180000E+00
       11   -1    0    0    0    0  0.00000000000E+00  0.00000000000E+00  0.54999999763E+01  0.55000000000E+01  0.51109989000E-03 0. -1.
     -623   -1    0    0    0    0  0.00000000000E+00  0.00000000000E+00  0.93234578044E-11  0.17124000000E+03  0.17124000000E+03 0. -1.
       11    1    1    2    0    0 -0.32140863508E-02 -0.12399039662E-02  0.16080176654E-01  0.16452994173E-01  0.51109989000E-03 0. -1.
     -623    1    1    2    0    0  0.24160953293E-02  0.54425481055E-02  0.14807139829E-02  0.17124000011E+03  0.17124000000E+03 0. -1.
     -611    1    1    2    0    0 -0.44380949648E-01 -0.33929202034E-01  0.25943490059E+01  0.25949504591E+01  0.51109989000E-03 0.  1.
      611    1    1    2    0    0  0.45178940669E-01  0.29726557895E-01  0.28880900797E+01  0.28885964368E+01  0.51109989000E-03 0. -1.
</event>
<event>
 6   3  0.2312675E+03  0.9118800E+02  0.7818608E-02  0.1180000E+00
       11   -1    0    0    0    0  0.00000000000E+00  0.00000000000E+00  0.54999999763E+01  0.55000000000E+01  0.51109989000E-03 0.  1.
     -623   -1    0    0    0    0  0.00000000000E+00  0.00000000000E+00  0.93234578044E-11  0.17124000000E+03  0.17124000000E+03 0. -1.
       11    1    1    2    0    0  0.15829801821E-02  0.14626765515E-01  0.15017508763E+00  0.15089488481E+00  0.51109989000E-03 0.  1.
     -623    1    1    2    0    0  0.47086519995E-02 -0.33950964254E-02  0.17719774819E-02  0.17124000011E+03  0.17124000000E+03 0. -1.
     -611    1    1    2    0    0  0.38625229787E-01 -0.17475869174E-01  0.11099641717E+01  0.11107736214E+01  0.51109989000E-03 0. -1.
      611    1    1    2    0    0 -0.44916861968E-01  0.62442000847E-02  0.42380887394E+01  0.42383313861E+01  0.51109989000E-03 0.  1.
</event>
<event>
 6   3  0.2312675E+03  0.9118800E+02  0.7818608E-02  0.1180000E+00
       11   -1    0    0    0    0  0.00000000000E+00  0.00000000000E+00  0.54999999763E+01  0.55000000000E+01  0.51109989000E-03 0. -1.
     -623   -1    0    0    0    0  0.00000000000E+00  0.00000000000E+00  0.93234578044E-11  0.17124000000E+03  0.17124000000E+03 0. -1.
       11    1    1    2    0    0  0.49219734253E-03  0.11019462750E-01  0.15258902560E+00  0.15298804781E+00  0.51109989000E-03 0. -1.
     -623    1    1    2    0    0 -0.67170046183E-01  0.13175423853E-01  0.88433569597E-03  0.17124001368E+03  0.17124000000E+03 0. -1.
     -611    1    1    2    0    0  0.34246480213E-01 -0.14166364701E-01  0.28184401261E+01  0.28186838264E+01  0.51109989000E-03 0. -1.
      611    1    1    2    0    0  0.32431368608E-01 -0.10028521895E-01  0.25280864873E+01  0.25283144411E+01  0.51109989000E-03 0.  1.
</event>
<event>
 6   3  0.2312675E+03  0.9118800E+02  0.7818608E-02  0.1180000E+00
       11   -1    0    0    0    0  0.00000000000E+00  0.00000000000E+00  0.54999999763E+01  0.55000000000E+01  0.51109989000E-03 0.  1.
     -623   -1    0    0    0    0  0.00000000000E+00  0.00000000000E+00  0.93234578044E-11  0.17124000000E+03  0.17124000000E+03 0. -1.
       11    1    1    2    0    0  0.28320462833E-01 -0.16889256481E-01  0.52438181792E+00  0.52541778404E+00  0.51109989000E-03 0.  1.
     -623    1    1    2    0    0  0.34305994337E-01  0.20730158595E-01  0.14364907406E-02  0.17124000470E+03  0.17124000000E+03 0. -1.
     -611    1    1    2    0    0 -0.44368319313E-01 -0.26894478348E-02  0.35103667535E+01  0.35106482003E+01  0.51109989000E-03 0.  1.
      611    1    1    2    0    0 -0.18258137956E-01 -0.11514542851E-02  0.14638149220E+01  0.14639293263E+01  0.51109989000E-03 0.  1.
</event>
<event>
 6   3  0.2312675E+03  0.9118800E+02  0.7818608E-02  0.1180000E+00
       11   -1    0    0    0    0  0.00000000000E+00  0.00000000000E+00  0.54999999763E+01  0.55000000000E+01  0.51109989000E-03 0.  1.
     -623   -1    0    0    0    0  0.00000000000E+00  0.00000000000E+00  0.93234578044E-11  0.17124000000E+03  0.17124000000E+03 0. -1.
       11    1    1    2    0    0 -0.23587260575E-03  0.15668430377E-01  0.68216215112E+00  0.68234230192E+00  0.51109989000E-03 0.  1.
     -623    1    1    2    0    0 -0.53277037555E-01  0.16026531236E-02  0.51744852583E-03  0.17124000830E+03  0.17124000000E+03 0. -1.
     -611    1    1    2    0    0  0.25434920320E-01 -0.90538602471E-02  0.22205875909E+01  0.22207517686E+01  0.51109989000E-03 0.  1.
      611    1    1    2    0    0  0.28077989848E-01 -0.82172232563E-02  0.25967327864E+01  0.25968976340E+01  0.51109989000E-03 0.  1.
</event>
<event>
 6   3  0.2312675E+03  0.9118800E+02  0.7818608E-02  0.1180000E+00
       11   -1    0    0    0    0  0.00000000000E+00  0.00000000000E+00  0.54999999763E+01  0.55000000000E+01  0.51109989000E-03 0. -1.
     -623   -1    0    0    0    0  0.00000000000E+00  0.00000000000E+00  0.93234578044E-11  0.17124000000E+03  0.17124000000E+03 0. -1.
       11    1    1    2    0    0  0.39994442887E-01 -0.19344491171E-01  0.72027422939E+00  0.72164325781E+00  0.51109989000E-03 0. -1.
     -623    1    1    2    0    0  0.21652494909E-01  0.33265974152E-01  0.17992738931E-02  0.17124000461E+03  0.17124000000E+03 0. -1.
     -611    1    1    2    0    0 -0.48910831105E-01 -0.13641284403E-01  0.39772913728E+01  0.39776155268E+01  0.51109989000E-03 0. -1.
      611    1    1    2    0    0 -0.12736106689E-01 -0.28019857768E-03  0.80063510004E+00  0.80073660561E+00  0.51109989000E-03 0.  1.
</event>
<event>
 6   3  0.2312675E+03  0.9118800E+02  0.7818608E-02  0.1180000E+00
       11   -1    0    0    0    0  0.00000000000E+00  0.00000000000E+00  0.54999999763E+01  0.55000000000E+01  0.51109989000E-03 0. -1.
     -623   -1    0    0    0    0  0.00000000000E+00  0.00000000000E+00  0.93234578044E-11  0.17124000000E+03  0.17124000000E+03 0. -1.
       11    1    1    2    0    0  0.73729612333E-03  0.32532919343E-02  0.69681682414E-01  0.69763354285E-01  0.51109989000E-03 0. -1.
     -623    1    1    2    0    0  0.14077515058E-02  0.50255219572E-02  0.17109472489E-02  0.17124000009E+03  0.17124000000E+03 0. -1.
     -611    1    1    2    0    0 -0.56639675190E-01  0.19033924334E-01  0.15518873728E+01  0.15530373538E+01  0.51109989000E-03 0.  1.
      611    1    1    2    0    0  0.54494627561E-01 -0.27312738225E-01  0.38767199738E+01  0.38771992039E+01  0.51109989000E-03 0. -1.
</event>
<event>
 6   3  0.2312675E+03  0.9118800E+02  0.7818608E-02  0.1180000E+00
       11   -1    0    0    0    0  0.00000000000E+00  0.00000000000E+00  0.54999999763E+01  0.55000000000E+01  0.51109989000E-03 0.  1.
     -623   -1    0    0    0    0  0.00000000000E+00  0.00000000000E+00  0.93234578044E-11  0.17124000000E+03  0.17124000000E+03 0.  1.
       11    1    1    2    0    0  0.33389866676E-01 -0.55236795269E-01  0.28626035954E+00  0.29344716972E+00  0.51109989000E-03 0.  1.
     -623    1    1    2    0    0 -0.41283631134E-01  0.17369233101E-01  0.99627297741E-02  0.17124000615E+03  0.17124000000E+03 0.  1.
     -611    1    1    2    0    0  0.83855021561E-01  0.30970563459E-01  0.33675318175E+01  0.33687181010E+01  0.51109989000E-03 0.  1.
      611    1    1    2    0    0 -0.75961257103E-01  0.68969987090E-02  0.18362450694E+01  0.18378285821E+01  0.51109989000E-03 0. -1.
</event>
<event>
 6   3  0.2312675E+03  0.9118800E+02  0.7818608E-02  0.1180000E+00
       11   -1    0    0    0    0  0.00000000000E+00  0.00000000000E+00  0.54999999763E+01  0.55000000000E+01  0.51109989000E-03 0. -1.
     -623   -1    0    0    0    0  0.00000000000E+00  0.00000000000E+00  0.93234578044E-11  0.17124000000E+03  0.17124000000E+03 0.  1.
       11    1    1    2    0    0 -0.35593594785E-01  0.27634478031E-01  0.58752675753E+00  0.58925250988E+00  0.51109989000E-03 0. -1.
     -623    1    1    2    0    0 -0.15457568377E-01 -0.14266943332E-01  0.20107083856E-02  0.17124000130E+03  0.17124000000E+03 0.  1.
     -611    1    1    2    0    0  0.25192377217E-01 -0.65170978813E-02  0.24327145148E+01  0.24328537359E+01  0.51109989000E-03 0. -1.
      611    1    1    2    0    0  0.25858785923E-01 -0.68504368118E-02  0.24777479935E+01  0.24778924484E+01  0.51109989000E-03 0. -1.
</event>
<event>
 6   3  0.2312675E+03  0.9118800E+02  0.7818608E-02  0.1180000E+00
       11   -1    0    0    0    0  0.00000000000E+00  0.00000000000E+00  0.54999999763E+01  0.55000000000E+01  0.51109989000E-03 0.  1.
     -623   -1    0    0    0    0  0.00000000000E+00  0.00000000000E+00  0.93234578044E-11  0.17124000000E+03  0.17124000000E+03 0. -1.
       11    1    1    2    0    0  0.13577137454E-01  0.42878748218E-02  0.71765293533E+00  0.71779434474E+00  0.51109989000E-03 0.  1.
     -623    1    1    2    0    0  0.41857443031E-01  0.45930224103E-01  0.73788939461E-03  0.17124001128E+03  0.17124000000E+03 0. -1.
     -611    1    1    2    0    0 -0.25729294431E-01 -0.23224808907E-01  0.21827446145E+01  0.21830198583E+01  0.51109989000E-03 0.  1.
      611    1    1    2    0    0 -0.29705286066E-01 -0.26993290028E-01  0.25988645380E+01  0.25991745209E+01  0.51109989000E-03 0.  1.
</event>
<event>
 6   3  0.2312675E+03  0.9118800E+02  0.7818608E-02  0.1180000E+00
       11   -1    0    0    0    0  0.00000000000E+00  0.00000000000E+00  0.54999999763E+01  0.55000000000E+01  0.51109989000E-03 0.  1.
     -623   -1    0    0    0    0  0.00000000000E+00  0.00000000000E+00  0.93234578044E-11  0.17124000000E+03  0.17124000000E+03 0.  1.
       11    1    1    2    0    0  0.94366546255E-02 -0.13376560137E-01  0.85730067423E+00  0.85745710684E+00  0.51109989000E-03 0.  1.
     -623    1    1    2    0    0  0.44872844049E-03 -0.32078956477E-03  0.57260624097E-03  0.17124000000E+03  0.17124000000E+03 0.  1.
     -611    1    1    2    0    0  0.25027395728E-01  0.81109411090E-02  0.22732869918E+01  0.22734392814E+01  0.51109989000E-03 0.  1.
      611    1    1    2    0    0 -0.34912778794E-01  0.55864085931E-02  0.23688397044E+01  0.23691036103E+01  0.51109989000E-03 0. -1.
</event>
<event>
 6   3  0.2312675E+03  0.9118800E+02  0.7818608E-02  0.1180000E+00
       11   -1    0    0    0    0  0.00000000000E+00  0.00000000000E+00  0.54999999763E+01  0.55000000000E+01  0.51109989000E-03 0. -1.
     -623   -1    0    0    0    0  0.00000000000E+00  0.00000000000E+00  0.93234578044E-11  0.17124000000E+03  0.17124000000E+03 0.  1.
       11    1    1    2    0    0 -0.37909193339E-02 -0.12260581685E-01  0.11157539534E-01  0.17013078622E-01  0.51109989000E-03 0. -1.
     -623    1    1    2    0    0  0.39414723501E-02 -0.94763619356E-02  0.68071775568E-02  0.17124000044E+03  0.17124000000E+03 0.  1.
     -611    1    1    2    0    0 -0.40227397962E-01  0.39336506062E-01  0.36168295360E+01  0.36172671671E+01  0.51109989000E-03 0.  1.
      611    1    1    2    0    0  0.40076844946E-01 -0.17599562442E-01  0.18652057231E+01  0.18657193114E+01  0.51109989000E-03 0. -1.
</event>
<event>
 6   3  0.2312675E+03  0.9118800E+02  0.7818608E-02  0.1180000E+00
       11   -1    0    0    0    0  0.00000000000E+00  0.00000000000E+00  0.54999999763E+01  0.55000000000E+01  0.51109989000E-03 0. -1.
     -623   -1    0    0    0    0  0.00000000000E+00  0.00000000000E+00  0.93234578044E-11  0.17124000000E+03  0.17124000000E+03 0. -1.
       11    1    1    2    0    0 -0.47651294764E-02 -0.10548786884E-02  0.92969945637E-01  0.93099362204E-01  0.51109989000E-03 0. -1.
     -623    1    1    2    0    0  0.61356924424E-01  0.20527138742E-03  0.43722296686E-03  0.17124001099E+03  0.17124000000E+03 0. -1.
     -611    1    1    2    0    0 -0.41163935911E-01 -0.24882298693E-03  0.39790556020E+01  0.39792685605E+01  0.51109989000E-03 0. -1.
      611    1    1    2    0    0 -0.15427859010E-01  0.10984302876E-02  0.14275372030E+01  0.14276210816E+01  0.51109989000E-03 0. -1.
</event>
<event>
 6   3  0.2312675E+03  0.9118800E+02  0.7818608E-02  0.1180000E+00
       11   -1    0    0    0    0  0.00000000000E+00  0.00000000000E+00  0.54999999763E+01  0.55000000000E+01  0.51109989000E-03 0.  1.
     -623   -1    0    0    0    0  0.00000000000E+00  0.00000000000E+00  0.93234578044E-11  0.17124000000E+03  0.17124000000E+03 0. -1.
       11    1    1    2    0    0  0.77113766565E-02  0.10925035411E-02  0.27747375761E+00  0.27758351226E+00  0.51109989000E-03 0.  1.
     -623    1    1    2    0    0 -0.12660412137E+00 -0.10414070432E-01  0.15188661669E-02  0.17124004712E+03  0.17124000000E+03 0. -1.
     -611    1    1    2    0    0  0.65442702576E-01  0.51542563337E-02  0.28576867214E+01  0.28584406540E+01  0.51109989000E-03 0.  1.
      611    1    1    2    0    0  0.53450042074E-01  0.41673105511E-02  0.23633206283E+01  0.23639287059E+01  0.51109989000E-03 0.  1.
</event>
<event>
 6   3  0.2312675E+03  0.9118800E+02  0.7818608E-02  0.1180000E+00
       11   -1    0    0    0    0  0.00000000000E+00  0.00000000000E+00  0.54999999763E+01  0.55000000000E+01  0.51109989000E-03 0.  1.
     -623   -1    0    0    0    0  0.00000000000E+00  0.00000000000E+00  0.93234578044E-11  0.17124000000E+03  0.17124000000E+03 0. -1.
       11    1    1    2    0    0  0.55326480856E-01 -0.72916917411E-01  0.27858573502E+00  0.29323739412E+00  0.51109989000E-03 0.  1.
     -623    1    1    2    0    0  0.12257551561E-03  0.23096309547E-01  0.15187663011E-01  0.17124000223E+03  0.17124000000E+03 0. -1.
     -611    1    1    2    0    0 -0.26727185064E-01  0.24318513471E-01  0.25477380612E+01  0.25479943529E+01  0.51109989000E-03 0.  1.
      611    1    1    2    0    0 -0.28721871314E-01  0.25502094399E-01  0.26584885177E+01  0.26587660226E+01  0.51109989000E-03 0.  1.
</event>
<event>
 6   3  0.2312675E+03  0.9118800E+02  0.7818608E-02  0.1180000E+00
       11   -1    0    0    0    0  0.00000000000E+00  0.00000000000E+00  0.54999999763E+01  0.55000000000E+01  0.51109989000E-03 0.  1.
     -623   -1    0    0    0    0  0.00000000000E+00  0.00000000000E+00  0.93234578044E-11  0.17124000000E+03  0.17124000000E+03 0.  1.
       11    1    1    2    0    0 -0.60768808525E-02  0.12976160844E-01  0.41316521139E-01  0.43733572611E-01  0.51109989000E-03 0.  1.
     -623    1    1    2    0    0  0.79132693871E-02  0.20679187943E-01  0.31154120306E-02  0.17124000146E+03  0.17124000000E+03 0.  1.
     -611    1    1    2    0    0 -0.36140615929E-01 -0.38199484336E-01  0.33271830455E+01  0.33275986273E+01  0.51109989000E-03 0.  1.
      611    1    1    2    0    0  0.34304227394E-01  0.45441355487E-02  0.21283849976E+01  0.21286663403E+01  0.51109989000E-03 0. -1.
</event>
<event>
 6   3  0.2312675E+03  0.9118800E+02  0.7818608E-02  0.1180000E+00
       11   -1    0    0    0    0  0.00000000000E+00  0.00000000000E+00  0.54999999763E+01  0.55000000000E+01  0.51109989000E-03 0. -1.
     -623   -1    0    0    0    0  0.00000000000E+00  0.00000000000E+00  0.93234578044E-11  0.17124000000E+03  0.17124000000E+03 0. -1.
       11    1    1    2    0    0  0.45935717429E-01 -0.13225068958E-01  0.98905654399E+00  0.99021113961E+00  0.51109989000E-03 0. -1.
     -623    1    1    2    0    0  0.57877424704E-02 -0.19927246886E-01  0.15769254130E-02  0.17124000126E+03  0.17124000000E+03 0. -1.
     -611    1    1    2    0    0 -0.30607034953E-01  0.17550651756E-01  0.26990701926E+01  0.26993008320E+01  0.51109989000E-03 0. -1.
      611    1    1    2    0    0 -0.21116424952E-01  0.15601664091E-01  0.18102963147E+01  0.18104867643E+01  0.51109989000E-03 0. -1.
</event>
<event>
 6   3  0.2312675E+03  0.9118800E+02  0.7818608E-02  0.1180000E+00
       11   -1    0    0    0    0  0.00000000000E+00  0.00000000000E+00  0.54999999763E+01  0.55000000000E+01  0.51109989000E-03 0.  1.
     -623   -1    0    0    0    0  0.00000000000E+00  0.00000000000E+00  0.93234578044E-11  0.17124000000E+03  0.17124000000E+03 0. -1.
       11    1    1    2    0    0  0.23317548342E-01 -0.20662008852E-01  0.26124310457E+00  0.26309475019E+00  0.51109989000E-03 0.  1.
     -623    1    1    2    0    0  0.45323222828E-02 -0.14743321238E-01  0.63531490234E-02  0.17124000081E+03  0.17124000000E+03 0. -1.
     -611    1    1    2    0    0  0.60548339740E-01  0.91703014291E-01  0.30630567641E+01  0.30650273319E+01  0.51109989000E-03 0. -1.
      611    1    1    2    0    0 -0.88398210365E-01 -0.56297684201E-01  0.21693469586E+01  0.21718771054E+01  0.51109989000E-03 0.  1.
</event>
<event>
 6   3  0.2312675E+03  0.9118800E+02  0.7818608E-02  0.1180000E+00
       11   -1    0    0    0    0  0.00000000000E+00  0.00000000000E+00  0.54999999763E+01  0.55000000000E+01  0.51109989000E-03 0. -1.
     -623   -1    0    0    0    0  0.00000000000E+00  0.00000000000E+00  0.93234578044E-11  0.17124000000E+03  0.17124000000E+03 0. -1.
       11    1    1    2    0    0 -0.41952904014E-01 -0.33214024958E-02  0.15480475465E+00  0.16042397313E+00  0.51109989000E-03 0. -1.
     -623    1    1    2    0    0  0.22465717629E-02  0.10610359522E-01  0.62284561498E-02  0.17124000046E+03  0.17124000000E+03 0. -1.
     -611    1    1    2    0    0 -0.19500276522E-01  0.26730121815E-02  0.16926961130E+01  0.16928106208E+01  0.51109989000E-03 0.  1.
      611    1    1    2    0    0  0.59206608773E-01 -0.99619692074E-02  0.36462706525E+01  0.36467649494E+01  0.51109989000E-03 0. -1.
</event>
<event>
 6   3  0.2312675E+03  0.9118800E+02  0.7818608E-02  0.1180000E+00
       11   -1    0    0    0    0  0.00000000000E+00  0.00000000000E+00  0.54999999763E+01  0.55000000000E+01  0.51109989000E-03 0.  1.
     -623   -1    0    0    0    0  0.00000000000E+00  0.00000000000E+00  0.93234578044E-11  0.17124000000E+03  0.17124000000E+03 0. -1.
       11    1    1    2    0    0  0.38283016515E-02  0.14957124658E-01  0.27934272554E-01  0.31921094558E-01  0.51109989000E-03 0.  1.
     -623    1    1    2    0    0  0.31767809600E-02 -0.13690445291E-01  0.55703595772E-02  0.17124000067E+03  0.17124000000E+03 0. -1.
     -611    1    1    2    0    0  0.39614662467E-01  0.48940511310E-01  0.27125056833E+01  0.27132364140E+01  0.51109989000E-03 0.  1.
      611    1    1    2    0    0 -0.46619745078E-01 -0.50207190677E-01  0.27539896608E+01  0.27548418241E+01  0.51109989000E-03 0. -1.
</event>
<event>
 6   3  0.2312675E+03  0.9118800E+02  0.7818608E-02  0.1180000E+00
       11   -1    0    0    0    0  0.00000000000E+00  0.00000000000E+00  0.54999999763E+01  0.55000000000E+01  0.51109989000E-03 0. -1.
     -623   -1    0    0    0    0  0.00000000000E+00  0.00000000000E+00  0.93234578044E-11  0.17124000000E+03  0.17124000000E+03 0. -1.
       11    1    1    2    0    0  0.41859455400E-01  0.40961816123E-01  0.10357644523E+01  0.10374190794E+01  0.51109989000E-03 0. -1.
     -623    1    1    2    0    0  0.66446984653E-02 -0.15603565064E-01  0.19932338999E-02  0.17124000085E+03  0.17124000000E+03 0. -1.
     -611    1    1    2    0    0 -0.39532170537E-01 -0.22299915425E-01  0.37369560784E+01  0.37372317391E+01  0.51109989000E-03 0. -1.
      611    1    1    2    0    0 -0.89719833261E-02 -0.30583356331E-02  0.72528621152E+00  0.72534832994E+00  0.51109989000E-03 0.  1.
</event>
<event>
 6   3  0.2312675E+03  0.9118800E+02  0.7818608E-02  0.1180000E+00
       11   -1    0    0    0    0  0.00000000000E+00  0.00000000000E+00  0.54999999763E+01  0.55000000000E+01  0.51109989000E-03 0. -1.
     -623   -1    0    0    0    0  0.00000000000E+00  0.00000000000E+00  0.93234578044E-11  0.17124000000E+03  0.17124000000E+03 0.  1.
       11    1    1    2    0    0 -0.58145420799E-02 -0.32208952437E-02  0.10025467672E+01  0.10025689327E+01  0.51109989000E-03 0. -1.
     -623    1    1    2    0    0  0.63645092288E-01  0.91809558154E-01  0.13036069257E-02  0.17124003644E+03  0.17124000000E+03 0.  1.
     -611    1    1    2    0    0 -0.50816214777E-01 -0.76873611384E-01  0.39148395190E+01  0.39159239728E+01  0.51109989000E-03 0. -1.
      611    1    1    2    0    0 -0.70143354659E-02 -0.11715051579E-01  0.58131008596E+00  0.58147065325E+00  0.51109989000E-03 0. -1.
</event>
<event>
 6   3  0.2312675E+03  0.9118800E+02  0.7818608E-02  0.1180000E+00
       11   -1    0    0    0    0  0.00000000000E+00  0.00000000000E+00  0.54999999763E+01  0.55000000000E+01  0.51109989000E-03 0. -1.
     -623   -1    0    0    0    0  0.00000000000E+00  0.00000000000E+00  0.93234578044E-11  0.17124000000E+03  0.17124000000E+03 0.  1.
       11    1    1    2    0    0 -0.19106835049E-01  0.49156308436E-02  0.16384503490E+00  0.16502936483E+00  0.51109989000E-03 0. -1.
     -623    1    1    2    0    0  0.14519512327E-02  0.45903408322E-02  0.22118071236E-02  0.17124000008E+03  0.17124000000E+03 0.  1.
     -611    1    1    2    0    0 -0.40545856571E-01  0.10925138556E-01  0.25345633641E+01  0.25349112476E+01  0.51109989000E-03 0.  1.
      611    1    1    2    0    0  0.58200740387E-01 -0.20431110232E-01  0.27993797701E+01  0.28000593056E+01  0.51109989000E-03 0. -1.
</event>
<event>
 6   3  0.2312675E+03  0.9118800E+02  0.7818608E-02  0.1180000E+00
       11   -1    0    0    0    0  0.00000000000E+00  0.00000000000E+00  0.54999999763E+01  0.55000000000E+01  0.51109989000E-03 0. -1.
     -623   -1    0    0    0    0  0.00000000000E+00  0.00000000000E+00  0.93234578044E-11  0.17124000000E+03  0.17124000000E+03 0. -1.
       11    1    1    2    0    0  0.38992305323E-02  0.12410901727E-02  0.88978497837E-01  0.89074006332E-01  0.51109989000E-03 0. -1.
     -623    1    1    2    0    0 -0.66410751098E-01 -0.17989491941E-01  0.51254846909E-03  0.17124001382E+03  0.17124000000E+03 0. -1.
     -611    1    1    2    0    0  0.18599554418E-01  0.34946628282E-02  0.11438230020E+01  0.11439796664E+01  0.51109989000E-03 0.  1.
      611    1    1    2    0    0  0.43911966145E-01  0.13253738940E-01  0.42666859278E+01  0.42669325035E+01  0.51109989000E-03 0. -1.
</event>
<event>
 6   3  0.2312675E+03  0.9118800E+02  0.7818608E-02  0.1180000E+00
       11   -1    0    0    0    0  0.00000000000E+00  0.00000000000E+00  0.54999999763E+01  0.55000000000E+01  0.51109989000E-03 0. -1.
     -623   -1    0    0    0    0  0.00000000000E+00  0.00000000000E+00  0.93234578044E-11  0.17124000000E+03  0.17124000000E+03 0. -1.
       11    1    1    2    0    0  0.42126613601E-01 -0.34448627157E-02  0.75556721364E+00  0.75674869951E+00  0.51109989000E-03 0. -1.
     -623    1    1    2    0    0  0.26822837373E-01  0.35062503446E-02  0.16849791587E-02  0.17124000214E+03  0.17124000000E+03 0. -1.
     -611    1    1    2    0    0 -0.44502901835E-01  0.22248571523E-04  0.30907729415E+01  0.30910933577E+01  0.51109989000E-03 0. -1.
      611    1    1    2    0    0 -0.24446549078E-01 -0.83636200351E-04  0.16519748377E+01  0.16521557937E+01  0.51109989000E-03 0. -1.
</event>
<event>
 6   3  0.2312675E+03  0.9118800E+02  0.7818608E-02  0.1180000E+00
       11   -1    0    0    0    0  0.00000000000E+00  0.00000000000E+00  0.54999999763E+01  0.55000000000E+01  0.51109989000E-03 0.  1.
     -623   -1    0    0    0    0  0.00000000000E+00  0.00000000000E+00  0.93234578044E-11  0.17124000000E+03  0.17124000000E+03 0. -1.
       11    1    1    2    0    0  0.15001901781E-01 -0.15175192324E-02  0.61767069351E+00  0.61785492372E+00  0.51109989000E-03 0.  1.
     -623    1    1    2    0    0 -0.74327945864E-01  0.19224843190E-01  0.60401686425E-03  0.17124001721E+03  0.17124000000E+03 0. -1.
     -611    1    1    2    0    0  0.48678847279E-01 -0.10462277682E-01  0.38335200564E+01  0.38338434205E+01  0.51109989000E-03 0.  1.
      611    1    1    2    0    0  0.10647196795E-01 -0.72450462725E-02  0.10482052088E+01  0.10482844435E+01  0.51109989000E-03 0. -1.
</event>
<event>
 6   3  0.2312675E+03  0.9118800E+02  0.7818608E-02  0.1180000E+00
       11   -1    0    0    0    0  0.00000000000E+00  0.00000000000E+00  0.54999999763E+01  0.55000000000E+01  0.51109989000E-03 0.  1.
     -623   -1    0    0    0    0  0.00000000000E+00  0.00000000000E+00  0.93234578044E-11  0.17124000000E+03  0.17124000000E+03 0.  1.
       11    1    1    2    0    0 -0.54066849360E-01  0.38971019044E-01  0.42968614137E+00  0.43482456903E+00  0.51109989000E-03 0.  1.
     -623    1    1    2    0    0 -0.55101990041E-02 -0.62987353845E-01  0.55602932725E-02  0.17124001176E+03  0.17124000000E+03 0.  1.
     -611    1    1    2    0    0  0.35477268252E-01  0.16899376542E-01  0.30243363154E+01  0.30245916477E+01  0.51109989000E-03 0. -1.
      611    1    1    2    0    0  0.24099780115E-01  0.71169582610E-02  0.20404172266E+01  0.20405720203E+01  0.51109989000E-03 0.  1.
</event>
<event>
 6   3  0.2312675E+03  0.9118800E+02  0.7818608E-02  0.1180000E+00
       11   -1    0    0    0    0  0.00000000000E+00  0.00000000000E+00  0.54999999763E+01  0.55000000000E+01  0.51109989000E-03 0.  1.
     -623   -1    0    0    0    0  0.00000000000E+00  0.00000000000E+00  0.93234578044E-11  0.17124000000E+03  0.17124000000E+03 0.  1.
       11    1    1    2    0    0 -0.58165632880E-01  0.11701599549E-01  0.10415975725E+01  0.10432861220E+01  0.51109989000E-03 0.  1.
     -623    1    1    2    0    0  0.28345979414E-02  0.17817026108E-01  0.21310457933E-02  0.17124000096E+03  0.17124000000E+03 0.  1.
     -611    1    1    2    0    0  0.18669856480E-01 -0.93026936525E-02  0.14775859751E+01  0.14777332908E+01  0.51109989000E-03 0. -1.
      611    1    1    2    0    0  0.36661178456E-01 -0.20215932003E-01  0.29786853827E+01  0.29789796233E+01  0.51109989000E-03 0.  1.
</event>
<event>
 6   3  0.2312675E+03  0.9118800E+02  0.7818608E-02  0.1180000E+00
       11   -1    0    0    0    0  0.00000000000E+00  0.00000000000E+00  0.54999999763E+01  0.55000000000E+01  0.51109989000E-03 0.  1.
     -623   -1    0    0    0    0  0.00000000000E+00  0.00000000000E+00  0.93234578044E-11  0.17124000000E+03  0.17124000000E+03 0.  1.
       11    1    1    2    0    0  0.28026394073E-02  0.64322957125E-02  0.69347725006E-01  0.69703639807E-01  0.51109989000E-03 0.  1.
     -623    1    1    2    0    0  0.26412644876E-01  0.73737874927E-02  0.77121401625E-03  0.17124000220E+03  0.17124000000E+03 0.  1.
     -611    1    1    2    0    0 -0.46972577226E-01 -0.81553745843E-02  0.42234773478E+01  0.42237464533E+01  0.51109989000E-03 0.  1.
      611    1    1    2    0    0  0.17757292943E-01 -0.56507086209E-02  0.12064036893E+01  0.12065477093E+01  0.51109989000E-03 0. -1.
</event>
<event>
 6   3  0.2312675E+03  0.9118800E+02  0.7818608E-02  0.1180000E+00
       11   -1    0    0    0    0  0.00000000000E+00  0.00000000000E+00  0.54999999763E+01  0.55000000000E+01  0.51109989000E-03 0. -1.
     -623   -1    0    0    0    0  0.00000000000E+00  0.00000000000E+00  0.93234578044E-11  0.17124000000E+03  0.17124000000E+03 0.  1.
       11    1    1    2    0    0  0.24487981284E-02  0.27269759531E-02  0.48511972627E+00  0.48513384035E+00  0.51109989000E-03 0. -1.
     -623    1    1    2    0    0  0.76057787410E-03 -0.10916993276E-01  0.93798234778E-03  0.17124000035E+03  0.17124000000E+03 0.  1.
     -611    1    1    2    0    0  0.43414093130E-01 -0.11195516478E-01  0.20182407333E+01  0.20187387255E+01  0.51109989000E-03 0. -1.
      611    1    1    2    0    0 -0.46623469133E-01  0.19385533802E-01  0.29957015344E+01  0.29961270820E+01  0.51109989000E-03 0.  1.
</event>
<event>
 6   3  0.2312675E+03  0.9118800E+02  0.7818608E-02  0.1180000E+00
       11   -1    0    0    0    0  0.00000000000E+00  0.00000000000E+00  0.54999999763E+01  0.55000000000E+01  0.51109989000E-03 0. -1.
     -623   -1    0    0    0    0  0.00000000000E+00  0.00000000000E+00  0.93234578044E-11  0.17124000000E+03  0.17124000000E+03 0. -1.
       11    1    1    2    0    0 -0.55770796662E-02  0.20254303506E-01  0.83677989632E+00  0.83704372450E+00  0.51109989000E-03 0. -1.
     -623    1    1    2    0    0 -0.67344340030E-01 -0.28969921515E-01  0.85800868506E-03  0.17124001570E+03  0.17124000000E+03 0. -1.
     -611    1    1    2    0    0  0.48695540393E-01  0.56701222564E-02  0.31128012999E+01  0.31131873699E+01  0.51109989000E-03 0. -1.
      611    1    1    2    0    0  0.24225879095E-01  0.30454957257E-02  0.15495607580E+01  0.15497531972E+01  0.51109989000E-03 0. -1.
</event>
<event>
 6   3  0.2312675E+03  0.9118800E+02  0.7818608E-02  0.1180000E+00
       11   -1    0    0    0    0  0.00000000000E+00  0.00000000000E+00  0.54999999763E+01  0.55000000000E+01  0.51109989000E-03 0.  1.
     -623   -1    0    0    0    0  0.00000000000E+00  0.00000000000E+00  0.93234578044E-11  0.17124000000E+03  0.17124000000E+03 0.  1.
       11    1    1    2    0    0 -0.58878109367E-03  0.47049979798E-02  0.19989432378E-01  0.20550481723E-01  0.51109989000E-03 0.  1.
     -623    1    1    2    0    0 -0.75369558978E-03 -0.32660457970E-02  0.12217692282E-02  0.17124000004E+03  0.17124000000E+03 0.  1.
     -611    1    1    2    0    0  0.42910970985E-01  0.91867857219E-03  0.24761178591E+01  0.24764898766E+01  0.51109989000E-03 0. -1.
      611    1    1    2    0    0 -0.41568494302E-01 -0.23576307551E-02  0.30026709155E+01  0.30029596044E+01  0.51109989000E-03 0.  1.
</event>
<event>
 6   3  0.2312675E+03  0.9118800E+02  0.7818608E-02  0.1180000E+00
       11   -1    0    0    0    0  0.00000000000E+00  0.00000000000E+00  0.54999999763E+01  0.55000000000E+01  0.51109989000E-03 0. -1.
     -623   -1    0    0    0    0  0.00000000000E+00  0.00000000000E+00  0.93234578044E-11  0.17124000000E+03  0.17124000000E+03 0.  1.
       11    1    1    2    0    0  0.73190223077E-01  0.75587002413E-01  0.46226589556E+00  0.47408883462E+00  0.51109989000E-03 0. -1.
     -623    1    1    2    0    0 -0.85558369323E-02  0.13805489079E-02  0.12830253030E-01  0.17124000070E+03  0.17124000000E+03 0.  1.
     -611    1    1    2    0    0 -0.51625611542E-01 -0.62118664363E-01  0.39636244952E+01  0.39644474183E+01  0.51109989000E-03 0. -1.
      611    1    1    2    0    0 -0.13008774588E-01 -0.14848886939E-01  0.10612793313E+01  0.10614630459E+01  0.51109989000E-03 0.  1.
</event>
<event>
 6   3  0.2312675E+03  0.9118800E+02  0.7818608E-02  0.1180000E+00
       11   -1    0    0    0    0  0.00000000000E+00  0.00000000000E+00  0.54999999763E+01  0.55000000000E+01  0.51109989000E-03 0.  1.
     -623   -1    0    0    0    0  0.00000000000E+00  0.00000000000E+00  0.93234578044E-11  0.17124000000E+03  0.17124000000E+03 0.  1.
       11    1    1    2    0    0  0.87377517461E-02  0.11255586249E-01  0.83264354861E+00  0.83276561936E+00  0.51109989000E-03 0.  1.
     -623    1    1    2    0    0  0.45481300310E-01 -0.20940011874E-03  0.45653720512E-03  0.17124000604E+03  0.17124000000E+03 0.  1.
     -611    1    1    2    0    0 -0.37602798251E-01 -0.77720631448E-02  0.33021161894E+01  0.33023394685E+01  0.51109989000E-03 0.  1.
      611    1    1    2    0    0 -0.16616253791E-01 -0.32741229832E-02  0.13647836998E+01  0.13648888703E+01  0.51109989000E-03 0.  1.
</event>
<event>
 6   3  0.2312675E+03  0.9118800E+02  0.7818608E-02  0.1180000E+00
       11   -1    0    0    0    0  0.00000000000E+00  0.00000000000E+00  0.54999999763E+01  0.55000000000E+01  0.51109989000E-03 0.  1.
     -623   -1    0    0    0    0  0.00000000000E+00  0.00000000000E+00  0.93234578044E-11  0.17124000000E+03  0.17124000000E+03 0. -1.
       11    1    1    2    0    0 -0.42120334113E-01  0.29978238445E-01  0.76696887287E+00  0.76870952284E+00  0.51109989000E-03 0.  1.
     -623    1    1    2    0    0 -0.33329138342E-01  0.28296567198E-01  0.27074817662E-02  0.17124000560E+03  0.17124000000E+03 0. -1.
     -611    1    1    2    0    0  0.84247987248E-02 -0.57587674753E-02  0.50482600209E+00  0.50492939531E+00  0.51109989000E-03 0. -1.
      611    1    1    2    0    0  0.67024673702E-01 -0.52516038146E-01  0.42254976178E+01  0.42263554773E+01  0.51109989000E-03 0.  1.
</event>
<event>
 6   3  0.2312675E+03  0.9118800E+02  0.7818608E-02  0.1180000E+00
       11   -1    0    0    0    0  0.00000000000E+00  0.00000000000E+00  0.54999999763E+01  0.55000000000E+01  0.51109989000E-03 0. -1.
     -623   -1    0    0    0    0  0.00000000000E+00  0.00000000000E+00  0.93234578044E-11  0.17124000000E+03  0.17124000000E+03 0.  1.
       11    1    1    2    0    0 -0.41394592786E-01 -0.63284708628E-01  0.52449573542E+00  0.52991933759E+00  0.51109989000E-03 0. -1.
     -623    1    1    2    0    0  0.11941072147E-01  0.79736625369E-01  0.99765296853E-02  0.17124001927E+03  0.17124000000E+03 0.  1.
     -611    1    1    2    0    0  0.10576910006E+00 -0.56182556667E-01  0.34647636932E+01  0.34668330351E+01  0.51109989000E-03 0.  1.
      611    1    1    2    0    0 -0.76315579425E-01  0.39730639925E-01  0.15007640180E+01  0.15032283560E+01  0.51109989000E-03 0. -1.
</event>
<event>
 6   3  0.2312675E+03  0.9118800E+02  0.7818608E-02  0.1180000E+00
       11   -1    0    0    0    0  0.00000000000E+00  0.00000000000E+00  0.54999999763E+01  0.55000000000E+01  0.51109989000E-03 0.  1.
     -623   -1    0    0    0    0  0.00000000000E+00  0.00000000000E+00  0.93234578044E-11  0.17124000000E+03  0.17124000000E+03 0.  1.
       11    1    1    2    0    0  0.55953383151E-02  0.43933734819E-02  0.30390169439E-02  0.77528309988E-02  0.51109989000E-03 0.  1.
     -623    1    1    2    0    0 -0.18875938377E-01 -0.11600323527E-03  0.55492130001E-02  0.17124000113E+03  0.17124000000E+03 0.  1.
     -611    1    1    2    0    0  0.35535482468E-01  0.33691594540E-01  0.35355339814E+01  0.35358731155E+01  0.51109989000E-03 0.  1.
      611    1    1    2    0    0 -0.22254882405E-01 -0.37968964786E-01  0.19558777649E+01  0.19563729232E+01  0.51109989000E-03 0. -1.
</event>
<event>
 6   3  0.2312675E+03  0.9118800E+02  0.7818608E-02  0.1180000E+00
       11   -1    0    0    0    0  0.00000000000E+00  0.00000000000E+00  0.54999999763E+01  0.55000000000E+01  0.51109989000E-03 0. -1.
     -623   -1    0    0    0    0  0.00000000000E+00  0.00000000000E+00  0.93234578044E-11  0.17124000000E+03  0.17124000000E+03 0. -1.
       11    1    1    2    0    0 -0.32721766791E-02 -0.66096299825E-02  0.18222680620E-01  0.19665239912E-01  0.51109989000E-03 0. -1.
     -623    1    1    2    0    0 -0.53260003031E-01 -0.21544122007E-02  0.32865033153E-02  0.17124000833E+03  0.17124000000E+03 0. -1.
     -611    1    1    2    0    0  0.78612105079E-01  0.50673678303E-01  0.33287917573E+01  0.33301054802E+01  0.51109989000E-03 0. -1.
      611    1    1    2    0    0 -0.22079925368E-01 -0.41909636119E-01  0.21496990351E+01  0.21502209522E+01  0.51109989000E-03 0.  1.
</event>
<event>
 6   3  0.2312675E+03  0.9118800E+02  0.7818608E-02  0.1180000E+00
       11   -1    0    0    0    0  0.00000000000E+00  0.00000000000E+00  0.54999999763E+01  0.55000000000E+01  0.51109989000E-03 0. -1.
     -623   -1    0    0    0    0  0.00000000000E+00  0.00000000000E+00  0.93234578044E-11  0.17124000000E+03  0.17124000000E+03 0.  1.
       11    1    1    2    0    0  0.46112416239E-02 -0.46727957317E-02  0.61789755928E+00  0.61793264483E+00  0.51109989000E-03 0. -1.
     -623    1    1    2    0    0 -0.86410056705E-02  0.63650548283E-02  0.44027374514E-03  0.17124000034E+03  0.17124000000E+03 0.  1.
     -611    1    1    2    0    0  0.30495156773E-01  0.11862475493E-01  0.28338195206E+01  0.28340084702E+01  0.51109989000E-03 0.  1.
      611    1    1    2    0    0 -0.26465392726E-01 -0.13554734590E-01  0.20478426230E+01  0.20480585484E+01  0.51109989000E-03 0. -1.
</event>
<event>
 6   3  0.2312675E+03  0.9118800E+02  0.7818608E-02  0.1180000E+00
       11   -1    0    0    0    0  0.00000000000E+00  0.00000000000E+00  0.54999999763E+01  0.55000000000E+01  0.51109989000E-03 0.  1.
     -623   -1    0    0    0    0  0.00000000000E+00  0.00000000000E+00  0.93234578044E-11  0.17124000000E+03  0.17124000000E+03 0. -1.
       11    1    1    2    0    0 -0.37682679196E-02  0.73202961958E-02  0.58936870026E+00  0.58942642683E+00  0.51109989000E-03 0.  1.
     -623    1    1    2    0    0 -0.67776639337E-03 -0.35314971267E-03  0.64625676745E-03  0.17124000000E+03  0.17124000000E+03 0. -1.
     -611    1    1    2    0    0  0.34288052995E-01  0.11033762062E-01  0.33781887928E+01  0.33783808542E+01  0.51109989000E-03 0.  1.
      611    1    1    2    0    0 -0.29842018682E-01 -0.18000908545E-01  0.15317962265E+01  0.15321927161E+01  0.51109989000E-03 0. -1.
</event>
<event>
 6   3  0.2312675E+03  0.9118800E+02  0.7818608E-02  0.1180000E+00
       11   -1    0    0    0    0  0.00000000000E+00  0.00000000000E+00  0.54999999763E+01  0.55000000000E+01  0.51109989000E-03 0. -1.
     -623   -1    0    0    0    0  0.00000000000E+00  0.00000000000E+00  0.93234578044E-11  0.17124000000E+03  0.17124000000E+03 0.  1.
       11    1    1    2    0    0 -0.41972662906E-01 -0.18417207720E-01  0.30119153038E-01  0.54848177494E-01  0.51109989000E-03 0. -1.
     -623    1    1    2    0    0  0.93106626183E-01  0.60160779692E-01  0.62888987154E-01  0.17124004743E+03  0.17124000000E+03 0.  1.
     -611    1    1    2    0    0 -0.29829781758E+00 -0.19114627975E+00  0.30009930702E+01  0.30218335753E+01  0.51109989000E-03 0.  1.
      611    1    1    2    0    0  0.24716385430E+00  0.14940270778E+00  0.24059987659E+01  0.24232708191E+01  0.51109989000E-03 0. -1.
</event>
<event>
 6   3  0.2312675E+03  0.9118800E+02  0.7818608E-02  0.1180000E+00
       11   -1    0    0    0    0  0.00000000000E+00  0.00000000000E+00  0.54999999763E+01  0.55000000000E+01  0.51109989000E-03 0. -1.
     -623   -1    0    0    0    0  0.00000000000E+00  0.00000000000E+00  0.93234578044E-11  0.17124000000E+03  0.17124000000E+03 0.  1.
       11    1    1    2    0    0 -0.13505805076E-01  0.43761508702E-01  0.78627958526E-01  0.90995019093E-01  0.51109989000E-03 0. -1.
     -623    1    1    2    0    0  0.73136435109E-01  0.28311898905E-01  0.13199139000E-01  0.17124001847E+03  0.17124000000E+03 0.  1.
     -611    1    1    2    0    0 -0.11105889184E-01 -0.94812737793E-02  0.85810404040E+00  0.85822843154E+00  0.51109989000E-03 0.  1.
      611    1    1    2    0    0 -0.48524740847E-01 -0.62592133824E-01  0.45500688381E+01  0.45507580817E+01  0.51109989000E-03 0. -1.
</event>
<event>
 6   3  0.2312675E+03  0.9118800E+02  0.7818608E-02  0.1180000E+00
       11   -1    0    0    0    0  0.00000000000E+00  0.00000000000E+00  0.54999999763E+01  0.55000000000E+01  0.51109989000E-03 0.  1.
     -623   -1    0    0    0    0  0.00000000000E+00  0.00000000000E+00  0.93234578044E-11  0.17124000000E+03  0.17124000000E+03 0.  1.
       11    1    1    2    0    0 -0.57657763389E-01 -0.55896719366E-01  0.88225577211E+00  0.88590313780E+00  0.51109989000E-03 0.  1.
     -623    1    1    2    0    0 -0.16850066544E-01  0.70829775276E-03  0.45801894658E-02  0.17124000089E+03  0.17124000000E+03 0.  1.
     -611    1    1    2    0    0  0.39031636365E-01  0.29582025649E-01  0.24348037029E+01  0.24352962648E+01  0.51109989000E-03 0.  1.
      611    1    1    2    0    0  0.35476193584E-01  0.25606395976E-01  0.21783603128E+01  0.21787997066E+01  0.51109989000E-03 0. -1.
</event>
<event>
 6   3  0.2312675E+03  0.9118800E+02  0.7818608E-02  0.1180000E+00
       11   -1    0    0    0    0  0.00000000000E+00  0.00000000000E+00  0.54999999763E+01  0.55000000000E+01  0.51109989000E-03 0. -1.
     -623   -1    0    0    0    0  0.00000000000E+00  0.00000000000E+00  0.93234578044E-11  0.17124000000E+03  0.17124000000E+03 0. -1.
       11    1    1    2    0    0 -0.28491319492E-03 -0.62730094813E-03  0.10073167737E-02  0.13230994628E-02  0.51109989000E-03 0.  1.
     -623    1    1    2    0    0 -0.12498237917E-02  0.13779544622E-03  0.84660144320E-03  0.17124000001E+03  0.17124000000E+03 0. -1.
     -611    1    1    2    0    0  0.38657182771E-01  0.22555686090E-02  0.24879076859E+01  0.24882090708E+01  0.51109989000E-03 0.  1.
      611    1    1    2    0    0 -0.37122445784E-01 -0.17660631071E-02  0.30102383723E+01  0.30104678231E+01  0.51109989000E-03 0. -1.
</event>
<event>
 6   3  0.2312675E+03  0.9118800E+02  0.7818608E-02  0.1180000E+00
       11   -1    0    0    0    0  0.00000000000E+00  0.00000000000E+00  0.54999999763E+01  0.55000000000E+01  0.51109989000E-03 0. -1.
     -623   -1    0    0    0    0  0.00000000000E+00  0.00000000000E+00  0.93234578044E-11  0.17124000000E+03  0.17124000000E+03 0.  1.
       11    1    1    2    0    0 -0.50788385191E-01  0.53671718407E-01  0.72938378032E+00  0.73311736689E+00  0.51109989000E-03 0. -1.
     -623    1    1    2    0    0  0.52380240841E-03 -0.74129698860E-02  0.42254666501E-02  0.17124000021E+03  0.17124000000E+03 0.  1.
     -611    1    1    2    0    0  0.73100922832E-02 -0.48194376423E-02  0.58860973927E+00  0.58867508085E+00  0.51109989000E-03 0.  1.
      611    1    1    2    0    0  0.42954490502E-01 -0.41439310881E-01  0.41777809903E+01  0.41782073391E+01  0.51109989000E-03 0. -1.
</event>
<event>
 6   3  0.3366430E+03  0.9118800E+02  0.7818608E-02  0.1180000E+00
       11   -1    0    0    0    0  0.00000000000E+00  0.00000000000E+00  0.54999999763E+01  0.55000000000E+01  0.51109989000E-03 0.  1.
     -623   -1    0    0    0    0  0.00000000000E+00  0.00000000000E+00  0.93234578044E-11  0.17124000000E+03  0.17124000000E+03 0. -1.
       11    1    1    2    0    0 -0.11603561560E-02  0.15996678669E-02  0.17312636457E-01  0.17432554829E-01  0.51109989000E-03 0.  1.
     -623    1    1    2    0    0  0.64514673967E-03 -0.10579661108E-02  0.57853697043E-03  0.17124000001E+03  0.17124000000E+03 0. -1.
     -611    1    1    2    0    0  0.35528753424E-01 -0.38168041494E-02  0.28018335016E+01  0.28020614005E+01  0.51109989000E-03 0. -1.
      611    1    1    2    0    0 -0.35013544008E-01  0.32751023934E-02  0.26802753013E+01  0.26805060392E+01  0.51109989000E-03 0.  1.
</event>
<event>
 6   3  0.2312675E+03  0.9118800E+02  0.7818608E-02  0.1180000E+00
       11   -1    0    0    0    0  0.00000000000E+00  0.00000000000E+00  0.54999999763E+01  0.55000000000E+01  0.51109989000E-03 0.  1.
     -623   -1    0    0    0    0  0.00000000000E+00  0.00000000000E+00  0.93234578044E-11  0.17124000000E+03  0.17124000000E+03 0. -1.
       11    1    1    2    0    0 -0.52870408040E-01  0.36039612458E-01  0.10449104566E+01  0.10468678318E+01  0.51109989000E-03 0.  1.
     -623    1    1    2    0    0 -0.24459997262E-02  0.14243821517E-01  0.25912150060E-02  0.17124000063E+03  0.17124000000E+03 0. -1.
     -611    1    1    2    0    0  0.34048458809E-01 -0.27275291620E-01  0.24607529234E+01  0.24611396649E+01  0.51109989000E-03 0.  1.
      611    1    1    2    0    0  0.21267948957E-01 -0.23008142356E-01  0.19917453813E+01  0.19919918738E+01  0.51109989000E-03 0. -1.
</event>
<event>
 6   3  0.2312675E+03  0.9118800E+02  0.7818608E-02  0.1180000E+00
       11   -1    0    0    0    0  0.00000000000E+00  0.00000000000E+00  0.54999999763E+01  0.55000000000E+01  0.51109989000E-03 0. -1.
     -623   -1    0    0    0    0  0.00000000000E+00  0.00000000000E+00  0.93234578044E-11  0.17124000000E+03  0.17124000000E+03 0.  1.
       11    1    1    2    0    0 -0.15036251299E-01 -0.22694479918E-01  0.82872780397E-01  0.87231228501E-01  0.51109989000E-03 0. -1.
     -623    1    1    2    0    0 -0.11567555167E-01  0.17721096783E-02  0.61307124852E-02  0.17124000051E+03  0.17124000000E+03 0.  1.
     -611    1    1    2    0    0  0.77796771384E-01  0.25196827278E-02  0.23510555326E+01  0.23523437387E+01  0.51109989000E-03 0. -1.
      611    1    1    2    0    0 -0.51192964918E-01  0.18402687512E-01  0.30599409508E+01  0.30604245232E+01  0.51109989000E-03 0.  1.
</event>
<event>
 6   3  0.2312675E+03  0.9118800E+02  0.7818608E-02  0.1180000E+00
       11   -1    0    0    0    0  0.00000000000E+00  0.00000000000E+00  0.54999999763E+01  0.55000000000E+01  0.51109989000E-03 0.  1.
     -623   -1    0    0    0    0  0.00000000000E+00  0.00000000000E+00  0.93234578044E-11  0.17124000000E+03  0.17124000000E+03 0. -1.
       11    1    1    2    0    0  0.52122079384E-02 -0.98652265060E-02  0.94890535330E+00  0.94897108520E+00  0.51109989000E-03 0.  1.
     -623    1    1    2    0    0 -0.56449850657E-01  0.42096212715E-02  0.37395844637E-03  0.17124000936E+03  0.17124000000E+03 0. -1.
     -611    1    1    2    0    0  0.36761462277E-01  0.29953223806E-02  0.35286205404E+01  0.35288133354E+01  0.51109989000E-03 0.  1.
      611    1    1    2    0    0  0.14476180439E-01  0.26602828541E-02  0.10221001238E+01  0.10222062224E+01  0.51109989000E-03 0. -1.
</event>
<event>
 6   3  0.2312675E+03  0.9118800E+02  0.7818608E-02  0.1180000E+00
       11   -1    0    0    0    0  0.00000000000E+00  0.00000000000E+00  0.54999999763E+01  0.55000000000E+01  0.51109989000E-03 0. -1.
     -623   -1    0    0    0    0  0.00000000000E+00  0.00000000000E+00  0.93234578044E-11  0.17124000000E+03  0.17124000000E+03 0. -1.
       11    1    1    2    0    0  0.57628421141E-02  0.13350600854E-02 -0.64832547966E-02  0.87912769561E-02  0.51109989000E-03 0. -1.
     -623    1    1    2    0    0 -0.32805942083E-02  0.58260674887E-02  0.16014770073E-01  0.17124000088E+03  0.17124000000E+03 0. -1.
     -611    1    1    2    0    0  0.38521080392E-01 -0.11694816513E-01  0.15477756676E+01  0.15482992026E+01  0.51109989000E-03 0.  1.
      611    1    1    2    0    0 -0.41003328298E-01  0.45336889390E-02  0.39426927934E+01  0.39429086411E+01  0.51109989000E-03 0. -1.
</event>
<event>
 6   3  0.2312675E+03  0.9118800E+02  0.7818608E-02  0.1180000E+00
       11   -1    0    0    0    0  0.00000000000E+00  0.00000000000E+00  0.54999999763E+01  0.55000000000E+01  0.51109989000E-03 0. -1.
     -623   -1    0    0    0    0  0.00000000000E+00  0.00000000000E+00  0.93234578044E-11  0.17124000000E+03  0.17124000000E+03 0. -1.
       11    1    1    2    0    0 -0.10306351809E-02 -0.15330943458E-01  0.70781412785E+00  0.70798107379E+00  0.51109989000E-03 0. -1.
     -623    1    1    2    0    0  0.54063984143E-01  0.23413188592E-01  0.47797965101E-03  0.17124001014E+03  0.17124000000E+03 0. -1.
     -611    1    1    2    0    0 -0.42806676998E-01 -0.59598017222E-02  0.39122306957E+01  0.39124694514E+01  0.51109989000E-03 0. -1.
      611    1    1    2    0    0 -0.10226671951E-01 -0.21224434068E-02  0.87947717181E+00  0.87953933769E+00  0.51109989000E-03 0.  1.
</event>
<event>
 6   3  0.2312675E+03  0.9118800E+02  0.7818608E-02  0.1180000E+00
       11   -1    0    0    0    0  0.00000000000E+00  0.00000000000E+00  0.54999999763E+01  0.55000000000E+01  0.51109989000E-03 0. -1.
     -623   -1    0    0    0    0  0.00000000000E+00  0.00000000000E+00  0.93234578044E-11  0.17124000000E+03  0.17124000000E+03 0.  1.
       11    1    1    2    0    0 -0.12449080464E-01  0.99965870614E-02  0.79939118215E+00  0.79955077055E+00  0.51109989000E-03 0. -1.
     -623    1    1    2    0    0 -0.49315789643E-01 -0.47045651492E-01  0.72516969384E-03  0.17124001357E+03  0.17124000000E+03 0.  1.
     -611    1    1    2    0    0  0.44672994676E-01  0.26447968080E-01  0.33792407639E+01  0.33796395626E+01  0.51109989000E-03 0. -1.
      611    1    1    2    0    0  0.17091875485E-01  0.10601096384E-01  0.13206428647E+01  0.13207961057E+01  0.51109989000E-03 0. -1.
</event>
<event>
 6   3  0.2312675E+03  0.9118800E+02  0.7818608E-02  0.1180000E+00
       11   -1    0    0    0    0  0.00000000000E+00  0.00000000000E+00  0.54999999763E+01  0.55000000000E+01  0.51109989000E-03 0. -1.
     -623   -1    0    0    0    0  0.00000000000E+00  0.00000000000E+00  0.93234578044E-11  0.17124000000E+03  0.17124000000E+03 0.  1.
       11    1    1    2    0    0 -0.64556927508E-02  0.84270160133E-03  0.54339102613E+00  0.54343026656E+00  0.51109989000E-03 0. -1.
     -623    1    1    2    0    0  0.72191129178E-01 -0.43533082203E-02  0.49241175746E-03  0.17124001527E+03  0.17124000000E+03 0.  1.
     -611    1    1    2    0    0 -0.35515226919E-01  0.25724336644E-02  0.25994645297E+01  0.25997084550E+01  0.51109989000E-03 0. -1.
      611    1    1    2    0    0 -0.30220210754E-01  0.93817302974E-03  0.23566521036E+01  0.23568461002E+01  0.51109989000E-03 0.  1.
</event>
<event>
 6   3  0.2312675E+03  0.9118800E+02  0.7818608E-02  0.1180000E+00
       11   -1    0    0    0    0  0.00000000000E+00  0.00000000000E+00  0.54999999763E+01  0.55000000000E+01  0.51109989000E-03 0. -1.
     -623   -1    0    0    0    0  0.00000000000E+00  0.00000000000E+00  0.93234578044E-11  0.17124000000E+03  0.17124000000E+03 0.  1.
       11    1    1    2    0    0 -0.15565574176E-02 -0.31342244401E-02  0.34567933884E-02  0.49453895158E-02  0.51109989000E-03 0. -1.
     -623    1    1    2    0    0 -0.33188162436E-02  0.60695461106E-03  0.48404834057E-02  0.17124000010E+03  0.17124000000E+03 0.  1.
     -611    1    1    2    0    0  0.43236913692E-01  0.81933109742E-01  0.18865402516E+01  0.18888136084E+01  0.51109989000E-03 0.  1.
      611    1    1    2    0    0 -0.38361540030E-01 -0.79405839913E-01  0.36051624479E+01  0.36062409005E+01  0.51109989000E-03 0. -1.
</event>
<event>
 6   3  0.2312675E+03  0.9118800E+02  0.7818608E-02  0.1180000E+00
       11   -1    0    0    0    0  0.00000000000E+00  0.00000000000E+00  0.54999999763E+01  0.55000000000E+01  0.51109989000E-03 0.  1.
     -623   -1    0    0    0    0  0.00000000000E+00  0.00000000000E+00  0.93234578044E-11  0.17124000000E+03  0.17124000000E+03 0. -1.
       11    1    1    2    0    0 -0.26343937583E-01  0.11716714925E+00  0.39715142817E+00  0.41491163159E+00  0.51109989000E-03 0.  1.
     -623    1    1    2    0    0  0.42820146232E-01  0.51473389142E-02  0.20407445864E-01  0.17124000665E+03  0.17124000000E+03 0. -1.
     -611    1    1    2    0    0  0.24440174023E-01 -0.77167858454E-01  0.15476158797E+01  0.15497313873E+01  0.51109989000E-03 0.  1.
      611    1    1    2    0    0 -0.40916382672E-01 -0.45146629711E-01  0.35348252226E+01  0.35353503340E+01  0.51109989000E-03 0. -1.
</event>
<event>
 6   3  0.2312675E+03  0.9118800E+02  0.7818608E-02  0.1180000E+00
       11   -1    0    0    0    0  0.00000000000E+00  0.00000000000E+00  0.54999999763E+01  0.55000000000E+01  0.51109989000E-03 0. -1.
     -623   -1    0    0    0    0  0.00000000000E+00  0.00000000000E+00  0.93234578044E-11  0.17124000000E+03  0.17124000000E+03 0. -1.
       11    1    1    2    0    0 -0.32857886239E-01 -0.10952245244E-01  0.17255170607E+00  0.17599416142E+00  0.51109989000E-03 0. -1.
     -623    1    1    2    0    0 -0.58732480973E-01  0.42754389738E-02  0.42451501518E-02  0.17124001018E+03  0.17124000000E+03 0. -1.
     -611    1    1    2    0    0  0.11974683478E-01  0.53817070132E-03  0.72100284226E+00  0.72110265735E+00  0.51109989000E-03 0. -1.
      611    1    1    2    0    0  0.79615683692E-01  0.61386355655E-02  0.46022002753E+01  0.46028930007E+01  0.51109989000E-03 0. -1.
</event>
<event>
 6   3  0.2312675E+03  0.9118800E+02  0.7818608E-02  0.1180000E+00
       11   -1    0    0    0    0  0.00000000000E+00  0.00000000000E+00  0.54999999763E+01  0.55000000000E+01  0.51109989000E-03 0.  1.
     -623   -1    0    0    0    0  0.00000000000E+00  0.00000000000E+00  0.93234578044E-11  0.17124000000E+03  0.17124000000E+03 0. -1.
       11    1    1    2    0    0  0.19345169812E-01  0.13049633554E-01  0.27268140449E+00  0.27367853059E+00  0.51109989000E-03 0.  1.
     -623    1    1    2    0    0 -0.87444599777E-01  0.40788171807E-01  0.18139982164E-02  0.17124002719E+03  0.17124000000E+03 0. -1.
     -611    1    1    2    0    0  0.48722433605E-01 -0.45640692589E-01  0.33039814026E+01  0.33046558547E+01  0.51109989000E-03 0.  1.
      611    1    1    2    0    0  0.19376996358E-01 -0.81971127710E-02  0.19215231709E+01  0.19216384202E+01  0.51109989000E-03 0. -1.
</event>
<event>
 6   3  0.2312675E+03  0.9118800E+02  0.7818608E-02  0.1180000E+00
       11   -1    0    0    0    0  0.00000000000E+00  0.00000000000E+00  0.54999999763E+01  0.55000000000E+01  0.51109989000E-03 0. -1.
     -623   -1    0    0    0    0  0.00000000000E+00  0.00000000000E+00  0.93234578044E-11  0.17124000000E+03  0.17124000000E+03 0.  1.
       11    1    1    2    0    0 -0.30998984716E-02 -0.61204029205E-02  0.22732292606E+00  0.22742700507E+00  0.51109989000E-03 0. -1.
     -623    1    1    2    0    0  0.56372636669E-01 -0.92589562553E-03  0.38734042499E-03  0.17124000928E+03  0.17124000000E+03 0.  1.
     -611    1    1    2    0    0 -0.34362131196E-01  0.46403769160E-02  0.34349902036E+01  0.34351652434E+01  0.51109989000E-03 0. -1.
      611    1    1    2    0    0 -0.18910606883E-01  0.24059216153E-02  0.18372994945E+01  0.18373984579E+01  0.51109989000E-03 0. -1.
</event>
<event>
 6   3  0.2312675E+03  0.9118800E+02  0.7818608E-02  0.1180000E+00
       11   -1    0    0    0    0  0.00000000000E+00  0.00000000000E+00  0.54999999763E+01  0.55000000000E+01  0.51109989000E-03 0. -1.
     -623   -1    0    0    0    0  0.00000000000E+00  0.00000000000E+00  0.93234578044E-11  0.17124000000E+03  0.17124000000E+03 0.  1.
       11    1    1    2    0    0 -0.22259399188E-01  0.71324442303E-01  0.48308111340E+00  0.48882540878E+00  0.51109989000E-03 0. -1.
     -623    1    1    2    0    0 -0.32026055851E-01  0.55702229499E-02  0.66342587026E-02  0.17124000321E+03  0.17124000000E+03 0.  1.
     -611    1    1    2    0    0  0.63864468518E-02 -0.11197356678E-01  0.62571116165E+00  0.62584413917E+00  0.51109989000E-03 0.  1.
      611    1    1    2    0    0  0.47899008189E-01 -0.65697308578E-01  0.43845734427E+01  0.43853272383E+01  0.51109989000E-03 0. -1.
</event>
<event>
 6   3  0.2312675E+03  0.9118800E+02  0.7818608E-02  0.1180000E+00
       11   -1    0    0    0    0  0.00000000000E+00  0.00000000000E+00  0.54999999763E+01  0.55000000000E+01  0.51109989000E-03 0.  1.
     -623   -1    0    0    0    0  0.00000000000E+00  0.00000000000E+00  0.93234578044E-11  0.17124000000E+03  0.17124000000E+03 0.  1.
       11    1    1    2    0    0 -0.70739624160E-02 -0.12563048013E-02  0.74485838016E-01  0.74833284935E-01  0.51109989000E-03 0.  1.
     -623    1    1    2    0    0 -0.33882577835E-02  0.38670105896E-02  0.21652041539E-02  0.17124000009E+03  0.17124000000E+03 0.  1.
     -611    1    1    2    0    0  0.52619930455E-01 -0.34612520518E-01  0.43991490235E+01  0.43995998995E+01  0.51109989000E-03 0.  1.
      611    1    1    2    0    0 -0.42157710255E-01  0.32001814730E-01  0.10241999106E+01  0.10255667247E+01  0.51109989000E-03 0. -1.
</event>
<event>
 6   3  0.2312675E+03  0.9118800E+02  0.7818608E-02  0.1180000E+00
       11   -1    0    0    0    0  0.00000000000E+00  0.00000000000E+00  0.54999999763E+01  0.55000000000E+01  0.51109989000E-03 0.  1.
     -623   -1    0    0    0    0  0.00000000000E+00  0.00000000000E+00  0.93234578044E-11  0.17124000000E+03  0.17124000000E+03 0. -1.
       11    1    1    2    0    0 -0.60427241461E-02 -0.69585038193E-02  0.11003694424E+00  0.11042339250E+00  0.51109989000E-03 0.  1.
     -623    1    1    2    0    0  0.39681770136E-02  0.45965187928E-03  0.18224155796E-02  0.17124000006E+03  0.17124000000E+03 0. -1.
     -611    1    1    2    0    0  0.52393694611E-01  0.37081227631E-01  0.24155440024E+01  0.24163967401E+01  0.51109989000E-03 0. -1.
      611    1    1    2    0    0 -0.50319147478E-01 -0.30582375691E-01  0.29725966140E+01  0.29731798111E+01  0.51109989000E-03 0.  1.
</event>
<event>
 6   3  0.2312675E+03  0.9118800E+02  0.7818608E-02  0.1180000E+00
       11   -1    0    0    0    0  0.00000000000E+00  0.00000000000E+00  0.54999999763E+01  0.55000000000E+01  0.51109989000E-03 0. -1.
     -623   -1    0    0    0    0  0.00000000000E+00  0.00000000000E+00  0.93234578044E-11  0.17124000000E+03  0.17124000000E+03 0.  1.
       11    1    1    2    0    0 -0.41911023750E-01  0.41571825080E-01  0.10600647557E+01  0.10617072563E+01  0.51109989000E-03 0. -1.
     -623    1    1    2    0    0 -0.53701647900E-02 -0.70023999226E-02  0.20293738098E-02  0.17124000024E+03  0.17124000000E+03 0.  1.
     -611    1    1    2    0    0  0.12448478219E-01 -0.91100894618E-02  0.11564913684E+01  0.11565943562E+01  0.51109989000E-03 0. -1.
      611    1    1    2    0    0  0.34832710314E-01 -0.25459335690E-01  0.32814144777E+01  0.32816981474E+01  0.51109989000E-03 0. -1.
</event>
<event>
 6   3  0.2312675E+03  0.9118800E+02  0.7818608E-02  0.1180000E+00
       11   -1    0    0    0    0  0.00000000000E+00  0.00000000000E+00  0.54999999763E+01  0.55000000000E+01  0.51109989000E-03 0. -1.
     -623   -1    0    0    0    0  0.00000000000E+00  0.00000000000E+00  0.93234578044E-11  0.17124000000E+03  0.17124000000E+03 0. -1.
       11    1    1    2    0    0  0.51503947771E-01 -0.56403086106E-03  0.10857149774E+01  0.10869361748E+01  0.51109989000E-03 0. -1.
     -623    1    1    2    0    0  0.49181996920E-03  0.19137336278E-02  0.15281161178E-02  0.17124000002E+03  0.17124000000E+03 0. -1.
     -611    1    1    2    0    0 -0.12516553709E-01 -0.32070011058E-03  0.11155963043E+01  0.11156666807E+01  0.51109989000E-03 0. -1.
      611    1    1    2    0    0 -0.39479214040E-01 -0.10290026565E-02  0.32971605793E+01  0.32973971272E+01  0.51109989000E-03 0. -1.
</event>
<event>
 6   3  0.2312675E+03  0.9118800E+02  0.7818608E-02  0.1180000E+00
       11   -1    0    0    0    0  0.00000000000E+00  0.00000000000E+00  0.54999999763E+01  0.55000000000E+01  0.51109989000E-03 0.  1.
     -623   -1    0    0    0    0  0.00000000000E+00  0.00000000000E+00  0.93234578044E-11  0.17124000000E+03  0.17124000000E+03 0. -1.
       11    1    1    2    0    0 -0.16728226707E-03 -0.58040320238E-02  0.17681956860E+00  0.17691561783E+00  0.51109989000E-03 0.  1.
     -623    1    1    2    0    0 -0.42739232583E-02 -0.34992288359E-02  0.10252464973E-02  0.17124000009E+03  0.17124000000E+03 0. -1.
     -611    1    1    2    0    0 -0.30392210393E-01  0.41885687887E-01  0.27651911039E+01  0.27656753605E+01  0.51109989000E-03 0.  1.
      611    1    1    2    0    0  0.34833415919E-01 -0.32582427028E-01  0.25569640572E+01  0.25574089295E+01  0.51109989000E-03 0. -1.
</event>
<event>
 6   3  0.2312675E+03  0.9118800E+02  0.7818608E-02  0.1180000E+00
       11   -1    0    0    0    0  0.00000000000E+00  0.00000000000E+00  0.54999999763E+01  0.55000000000E+01  0.51109989000E-03 0. -1.
     -623   -1    0    0    0    0  0.00000000000E+00  0.00000000000E+00  0.93234578044E-11  0.17124000000E+03  0.17124000000E+03 0.  1.
       11    1    1    2    0    0  0.70862149939E-01 -0.43778158896E-01  0.80085296162E+00  0.80517308627E+00  0.51109989000E-03 0. -1.
     -623    1    1    2    0    0  0.20048182336E-01 -0.22263244660E-01  0.56695928286E-02  0.17124000271E+03  0.17124000000E+03 0.  1.
     -611    1    1    2    0    0 -0.10204339803E-01  0.85499130180E-02  0.59344012871E+00  0.59358965384E+00  0.51109989000E-03 0.  1.
      611    1    1    2    0    0 -0.80705992456E-01  0.57491490525E-01  0.41000372923E+01  0.41012345444E+01  0.51109989000E-03 0. -1.
</event>
<event>
 6   3  0.2312675E+03  0.9118800E+02  0.7818608E-02  0.1180000E+00
       11   -1    0    0    0    0  0.00000000000E+00  0.00000000000E+00  0.54999999763E+01  0.55000000000E+01  0.51109989000E-03 0.  1.
     -623   -1    0    0    0    0  0.00000000000E+00  0.00000000000E+00  0.93234578044E-11  0.17124000000E+03  0.17124000000E+03 0.  1.
       11    1    1    2    0    0  0.54910915372E-01  0.18328801820E-01  0.23280315737E+00  0.23989315311E+00  0.51109989000E-03 0.  1.
     -623    1    1    2    0    0  0.17343545479E-01 -0.46656070260E-02  0.79304319129E-02  0.17124000113E+03  0.17124000000E+03 0.  1.
     -611    1    1    2    0    0 -0.41868505534E-01 -0.30821191862E-01  0.40563395064E+01  0.40566726969E+01  0.51109989000E-03 0.  1.
      611    1    1    2    0    0 -0.30385955317E-01  0.17157997068E-01  0.12029268806E+01  0.12034330245E+01  0.51109989000E-03 0. -1.
</event>
<event>
 6   3  0.2312675E+03  0.9118800E+02  0.7818608E-02  0.1180000E+00
       11   -1    0    0    0    0  0.00000000000E+00  0.00000000000E+00  0.54999999763E+01  0.55000000000E+01  0.51109989000E-03 0. -1.
     -623   -1    0    0    0    0  0.00000000000E+00  0.00000000000E+00  0.93234578044E-11  0.17124000000E+03  0.17124000000E+03 0.  1.
       11    1    1    2    0    0 -0.64161869752E-02  0.86956503207E-03  0.23168778764E-01  0.24061943628E-01  0.51109989000E-03 0. -1.
     -623    1    1    2    0    0 -0.14919151321E-03  0.26678106942E-02  0.17839781913E-02  0.17124000003E+03  0.17124000000E+03 0.  1.
     -611    1    1    2    0    0  0.43546504990E-01  0.81989972529E-02  0.43428669247E+01  0.43430930117E+01  0.51109989000E-03 0. -1.
      611    1    1    2    0    0 -0.36981126502E-01 -0.11736372979E-01  0.11321802946E+01  0.11328450145E+01  0.51109989000E-03 0.  1.
</event>
<event>
 6   3  0.2312675E+03  0.9118800E+02  0.7818608E-02  0.1180000E+00
       11   -1    0    0    0    0  0.00000000000E+00  0.00000000000E+00  0.54999999763E+01  0.55000000000E+01  0.51109989000E-03 0.  1.
     -623   -1    0    0    0    0  0.00000000000E+00  0.00000000000E+00  0.93234578044E-11  0.17124000000E+03  0.17124000000E+03 0. -1.
       11    1    1    2    0    0  0.29274778240E-01 -0.30539699645E-01  0.45624529467E+00  0.45820270190E+00  0.51109989000E-03 0.  1.
     -623    1    1    2    0    0 -0.38460509545E-01 -0.11480258306E-01  0.26775982994E-02  0.17124000472E+03  0.17124000000E+03 0. -1.
     -611    1    1    2    0    0  0.39721374648E-01  0.16193022980E-01  0.31536599665E+01  0.31539517192E+01  0.51109989000E-03 0.  1.
      611    1    1    2    0    0 -0.30535643343E-01  0.25826934971E-01  0.18874171168E+01  0.18878408540E+01  0.51109989000E-03 0. -1.
</event>
<event>
 6   3  0.2312675E+03  0.9118800E+02  0.7818608E-02  0.1180000E+00
       11   -1    0    0    0    0  0.00000000000E+00  0.00000000000E+00  0.54999999763E+01  0.55000000000E+01  0.51109989000E-03 0.  1.
     -623   -1    0    0    0    0  0.00000000000E+00  0.00000000000E+00  0.93234578044E-11  0.17124000000E+03  0.17124000000E+03 0. -1.
       11    1    1    2    0    0  0.92804452826E-02  0.15317967032E-02  0.10155241713E+01  0.10155678592E+01  0.51109989000E-03 0.  1.
     -623    1    1    2    0    0 -0.60236474899E-01 -0.96853957682E-02  0.35294899136E-03  0.17124001087E+03  0.17124000000E+03 0. -1.
     -611    1    1    2    0    0  0.36775748650E-01  0.42999356456E-02  0.32156612680E+01  0.32158744684E+01  0.51109989000E-03 0.  1.
      611    1    1    2    0    0  0.14180280863E-01  0.38536634029E-02  0.12684615786E+01  0.12685467940E+01  0.51109989000E-03 0. -1.
</event>
<event>
 6   3  0.2312675E+03  0.9118800E+02  0.7818608E-02  0.1180000E+00
       11   -1    0    0    0    0  0.00000000000E+00  0.00000000000E+00  0.54999999763E+01  0.55000000000E+01  0.51109989000E-03 0.  1.
     -623   -1    0    0    0    0  0.00000000000E+00  0.00000000000E+00  0.93234578044E-11  0.17124000000E+03  0.17124000000E+03 0.  1.
       11    1    1    2    0    0  0.16744793754E-01 -0.70603006239E-02  0.51008725097E+00  0.51041110959E+00  0.51109989000E-03 0.  1.
     -623    1    1    2    0    0 -0.14091176228E+00  0.88946364505E-01  0.26230685068E-02  0.17124008110E+03  0.17124000000E+03 0.  1.
     -611    1    1    2    0    0  0.10576561257E+00 -0.68794861590E-01  0.42346715415E+01  0.42365507696E+01  0.51109989000E-03 0.  1.
      611    1    1    2    0    0  0.18401355712E-01 -0.13091202139E-01  0.75261810584E+00  0.75295701333E+00  0.51109989000E-03 0. -1.
</event>
<event>
 6   3  0.2312675E+03  0.9118800E+02  0.7818608E-02  0.1180000E+00
       11   -1    0    0    0    0  0.00000000000E+00  0.00000000000E+00  0.54999999763E+01  0.55000000000E+01  0.51109989000E-03 0.  1.
     -623   -1    0    0    0    0  0.00000000000E+00  0.00000000000E+00  0.93234578044E-11  0.17124000000E+03  0.17124000000E+03 0. -1.
       11    1    1    2    0    0  0.97050376168E-02  0.16143180943E-02  0.97177156590E+00  0.97182150177E+00  0.51109989000E-03 0.  1.
     -623    1    1    2    0    0 -0.59312899996E-01 -0.10564510699E-01  0.34145326567E-03  0.17124001060E+03  0.17124000000E+03 0. -1.
     -611    1    1    2    0    0  0.28977467557E-01  0.45556017413E-02  0.26584723546E+01  0.26586342300E+01  0.51109989000E-03 0. -1.
      611    1    1    2    0    0  0.20630396792E-01  0.43945912140E-02  0.18694147851E+01  0.18695338525E+01  0.51109989000E-03 0.  1.
</event>
<event>
 6   3  0.2312675E+03  0.9118800E+02  0.7818608E-02  0.1180000E+00
       11   -1    0    0    0    0  0.00000000000E+00  0.00000000000E+00  0.54999999763E+01  0.55000000000E+01  0.51109989000E-03 0.  1.
     -623   -1    0    0    0    0  0.00000000000E+00  0.00000000000E+00  0.93234578044E-11  0.17124000000E+03  0.17124000000E+03 0. -1.
       11    1    1    2    0    0 -0.33947463735E-02 -0.45503770911E-02  0.48411206395E-02  0.74784962897E-02  0.51109989000E-03 0.  1.
     -623    1    1    2    0    0  0.91487090919E-02  0.11682175168E-02  0.70380676972E-02  0.17124000039E+03  0.17124000000E+03 0. -1.
     -611    1    1    2    0    0  0.45839908608E-01  0.45087020128E-01  0.52039283818E+00  0.52435017293E+00  0.51109989000E-03 0. -1.
      611    1    1    2    0    0 -0.51593871327E-01 -0.41704860554E-01  0.49677279497E+01  0.49681709378E+01  0.51109989000E-03 0.  1.
</event>
<event>
 6   3  0.2312675E+03  0.9118800E+02  0.7818608E-02  0.1180000E+00
       11   -1    0    0    0    0  0.00000000000E+00  0.00000000000E+00  0.54999999763E+01  0.55000000000E+01  0.51109989000E-03 0.  1.
     -623   -1    0    0    0    0  0.00000000000E+00  0.00000000000E+00  0.93234578044E-11  0.17124000000E+03  0.17124000000E+03 0.  1.
       11    1    1    2    0    0 -0.27972804886E-02 -0.25853228278E-02  0.63334740128E-01  0.63451234838E-01  0.51109989000E-03 0.  1.
     -623    1    1    2    0    0  0.23352500585E-02 -0.18226016209E-03  0.60779012091E-03  0.17124000002E+03  0.17124000000E+03 0.  1.
     -611    1    1    2    0    0  0.35306839462E-01  0.79411880661E-02  0.21762725520E+01  0.21765734808E+01  0.51109989000E-03 0. -1.
      611    1    1    2    0    0 -0.34844809032E-01 -0.51736050762E-02  0.32597848940E+01  0.32599752673E+01  0.51109989000E-03 0.  1.
</event>
<event>
 6   3  0.2312675E+03  0.9118800E+02  0.7818608E-02  0.1180000E+00
       11   -1    0    0    0    0  0.00000000000E+00  0.00000000000E+00  0.54999999763E+01  0.55000000000E+01  0.51109989000E-03 0.  1.
     -623   -1    0    0    0    0  0.00000000000E+00  0.00000000000E+00  0.93234578044E-11  0.17124000000E+03  0.17124000000E+03 0.  1.
       11    1    1    2    0    0 -0.51887757855E-01  0.55456420738E-02  0.79259033584E+00  0.79430648697E+00  0.51109989000E-03 0.  1.
     -623    1    1    2    0    0 -0.19864870893E-02  0.57861768824E-02  0.20398072055E-02  0.17124000012E+03  0.17124000000E+03 0.  1.
     -611    1    1    2    0    0  0.43314231866E-01 -0.97372336786E-02  0.38946946101E+01  0.38949476637E+01  0.51109989000E-03 0.  1.
      611    1    1    2    0    0  0.10560013072E-01 -0.15945852762E-02  0.81067522255E+00  0.81074572725E+00  0.51109989000E-03 0. -1.
</event>
<event>
 6   3  0.2312675E+03  0.9118800E+02  0.7818608E-02  0.1180000E+00
       11   -1    0    0    0    0  0.00000000000E+00  0.00000000000E+00  0.54999999763E+01  0.55000000000E+01  0.51109989000E-03 0.  1.
     -623   -1    0    0    0    0  0.00000000000E+00  0.00000000000E+00  0.93234578044E-11  0.17124000000E+03  0.17124000000E+03 0. -1.
       11    1    1    2    0    0 -0.41366561046E-02 -0.15038541102E-02  0.59620677069E+00  0.59622323683E+00  0.51109989000E-03 0.  1.
     -623    1    1    2    0    0  0.64446138192E-01  0.27413123661E-01  0.47052232846E-03  0.17124001432E+03  0.17124000000E+03 0. -1.
     -611    1    1    2    0    0 -0.17805701299E-01 -0.79402933387E-02  0.14019019238E+01  0.14020375731E+01  0.51109989000E-03 0. -1.
      611    1    1    2    0    0 -0.42503780665E-01 -0.17968976160E-01  0.35014207491E+01  0.35017248576E+01  0.51109989000E-03 0.  1.
</event>
<event>
 6   3  0.2312675E+03  0.9118800E+02  0.7818608E-02  0.1180000E+00
       11   -1    0    0    0    0  0.00000000000E+00  0.00000000000E+00  0.54999999763E+01  0.55000000000E+01  0.51109989000E-03 0.  1.
     -623   -1    0    0    0    0  0.00000000000E+00  0.00000000000E+00  0.93234578044E-11  0.17124000000E+03  0.17124000000E+03 0.  1.
       11    1    1    2    0    0  0.93368799852E-02  0.20738882501E-01  0.37000496563E+00  0.37070367464E+00  0.51109989000E-03 0.  1.
     -623    1    1    2    0    0  0.25512202562E-01 -0.21805244270E-01  0.15080582707E-02  0.17124000330E+03  0.17124000000E+03 0.  1.
     -611    1    1    2    0    0 -0.54859224583E-01  0.12326266005E-01  0.45541000058E+01  0.45544471229E+01  0.51109989000E-03 0.  1.
      611    1    1    2    0    0  0.20010142035E-01 -0.11259904235E-01  0.57438694675E+00  0.57484590722E+00  0.51109989000E-03 0. -1.
</event>
<event>
 6   3  0.2312675E+03  0.9118800E+02  0.7818608E-02  0.1180000E+00
       11   -1    0    0    0    0  0.00000000000E+00  0.00000000000E+00  0.54999999763E+01  0.55000000000E+01  0.51109989000E-03 0. -1.
     -623   -1    0    0    0    0  0.00000000000E+00  0.00000000000E+00  0.93234578044E-11  0.17124000000E+03  0.17124000000E+03 0. -1.
       11    1    1    2    0    0  0.27100733501E-02 -0.14096253388E-01  0.81724343972E-01  0.82976975589E-01  0.51109989000E-03 0. -1.
     -623    1    1    2    0    0  0.95323187423E-03  0.21357391991E-02  0.17284995290E-02  0.17124000002E+03  0.17124000000E+03 0. -1.
     -611    1    1    2    0    0 -0.31876531788E-01  0.24688433607E-01  0.27355603285E+01  0.27358574897E+01  0.51109989000E-03 0. -1.
      611    1    1    2    0    0  0.28213226563E-01 -0.12727919418E-01  0.26809868043E+01  0.26811655101E+01  0.51109989000E-03 0.  1.
</event>
<event>
 6   3  0.2312675E+03  0.9118800E+02  0.7818608E-02  0.1180000E+00
       11   -1    0    0    0    0  0.00000000000E+00  0.00000000000E+00  0.54999999763E+01  0.55000000000E+01  0.51109989000E-03 0.  1.
     -623   -1    0    0    0    0  0.00000000000E+00  0.00000000000E+00  0.93234578044E-11  0.17124000000E+03  0.17124000000E+03 0.  1.
       11    1    1    2    0    0  0.57823497599E-01 -0.17006287923E-01  0.91115537317E+00  0.91314683703E+00  0.51109989000E-03 0.  1.
     -623    1    1    2    0    0  0.11995480348E-01  0.64709080532E-02  0.25363562224E-02  0.17124000056E+03  0.17124000000E+03 0.  1.
     -611    1    1    2    0    0 -0.60195562833E-01  0.84043383926E-02  0.39144737433E+01  0.39149456046E+01  0.51109989000E-03 0.  1.
      611    1    1    2    0    0 -0.96234151276E-02  0.21310414788E-02  0.67183450451E+00  0.67190699812E+00  0.51109989000E-03 0. -1.
</event>
<event>
 6   3  0.2312675E+03  0.9118800E+02  0.7818608E-02  0.1180000E+00
       11   -1    0    0    0    0  0.00000000000E+00  0.00000000000E+00  0.54999999763E+01  0.55000000000E+01  0.51109989000E-03 0.  1.
     -623   -1    0    0    0    0  0.00000000000E+00  0.00000000000E+00  0.93234578044E-11  0.17124000000E+03  0.17124000000E+03 0.  1.
       11    1    1    2    0    0 -0.19445898048E-02 -0.11939194626E-02  0.16105821112E-03  0.23439360138E-02  0.51109989000E-03 0.  1.
     -623    1    1    2    0    0 -0.88459530424E-02 -0.61980126980E-03  0.86008631021E-02  0.17124000045E+03  0.17124000000E+03 0.  1.
     -611    1    1    2    0    0 -0.87118664287E-01  0.53545388635E-01  0.10344619570E+01  0.10395040029E+01  0.51109989000E-03 0. -1.
      611    1    1    2    0    0  0.97909207134E-01 -0.51731667903E-01  0.44567760979E+01  0.44581516154E+01  0.51109989000E-03 0.  1.
</event>
<event>
 6   3  0.2312675E+03  0.9118800E+02  0.7818608E-02  0.1180000E+00
       11   -1    0    0    0    0  0.00000000000E+00  0.00000000000E+00  0.54999999763E+01  0.55000000000E+01  0.51109989000E-03 0. -1.
     -623   -1    0    0    0    0  0.00000000000E+00  0.00000000000E+00  0.93234578044E-11  0.17124000000E+03  0.17124000000E+03 0.  1.
       11    1    1    2    0    0  0.87824031550E-02 -0.25921950009E-01  0.79502863979E+00  0.79549976581E+00  0.51109989000E-03 0. -1.
     -623    1    1    2    0    0  0.43190698021E-01  0.12545512319E-01  0.78342823494E-03  0.17124000591E+03  0.17124000000E+03 0.  1.
     -611    1    1    2    0    0 -0.11740060792E-01  0.25540113057E-02  0.10688062416E+01  0.10688738912E+01  0.51109989000E-03 0. -1.
      611    1    1    2    0    0 -0.40233040335E-01  0.10822426372E-01  0.36353816623E+01  0.36356204305E+01  0.51109989000E-03 0. -1.
</event>
<event>
 6   3  0.2312675E+03  0.9118800E+02  0.7818608E-02  0.1180000E+00
       11   -1    0    0    0    0  0.00000000000E+00  0.00000000000E+00  0.54999999763E+01  0.55000000000E+01  0.51109989000E-03 0. -1.
     -623   -1    0    0    0    0  0.00000000000E+00  0.00000000000E+00  0.93234578044E-11  0.17124000000E+03  0.17124000000E+03 0. -1.
       11    1    1    2    0    0 -0.41708241182E-02 -0.45876578206E-02  0.23658471155E-01  0.24462764738E-01  0.51109989000E-03 0. -1.
     -623    1    1    2    0    0 -0.17806575574E-02  0.24517836596E-02  0.15018714294E-02  0.17124000003E+03  0.17124000000E+03 0. -1.
     -611    1    1    2    0    0  0.45777713635E-01  0.92158333850E-02  0.31374030849E+01  0.31377506130E+01  0.51109989000E-03 0.  1.
      611    1    1    2    0    0 -0.39826231959E-01 -0.70799592240E-02  0.23374365488E+01  0.23377865890E+01  0.51109989000E-03 0. -1.
</event>
<event>
 6   3  0.2312675E+03  0.9118800E+02  0.7818608E-02  0.1180000E+00
       11   -1    0    0    0    0  0.00000000000E+00  0.00000000000E+00  0.54999999763E+01  0.55000000000E+01  0.51109989000E-03 0. -1.
     -623   -1    0    0    0    0  0.00000000000E+00  0.00000000000E+00  0.93234578044E-11  0.17124000000E+03  0.17124000000E+03 0. -1.
       11    1    1    2    0    0  0.52298898772E-01 -0.68371634464E-02  0.95729856718E+00  0.95875060864E+00  0.51109989000E-03 0. -1.
     -623    1    1    2    0    0 -0.21427295064E-02  0.28311593530E-02  0.17310158189E-02  0.17124000005E+03  0.17124000000E+03 0. -1.
     -611    1    1    2    0    0 -0.28194293591E-01  0.24884812205E-02  0.25214852729E+01  0.25216441766E+01  0.51109989000E-03 0. -1.
      611    1    1    2    0    0 -0.21961875662E-01  0.15175228718E-02  0.20194851192E+01  0.20196051680E+01  0.51109989000E-03 0. -1.
</event>
<event>
 6   3  0.2312675E+03  0.9118800E+02  0.7818608E-02  0.1180000E+00
       11   -1    0    0    0    0  0.00000000000E+00  0.00000000000E+00  0.54999999763E+01  0.55000000000E+01  0.51109989000E-03 0.  1.
     -623   -1    0    0    0    0  0.00000000000E+00  0.00000000000E+00  0.93234578044E-11  0.17124000000E+03  0.17124000000E+03 0. -1.
       11    1    1    2    0    0  0.40175007383E-01  0.14838887355E-01  0.59984952698E+00  0.60137670394E+00  0.51109989000E-03 0.  1.
     -623    1    1    2    0    0  0.18559853258E-01  0.27699697883E-01  0.20674348549E-02  0.17124000326E+03  0.17124000000E+03 0. -1.
     -611    1    1    2    0    0 -0.11644716645E-01 -0.82989055310E-02  0.96949702245E+00  0.96960260366E+00  0.51109989000E-03 0.  1.
      611    1    1    2    0    0 -0.47090143962E-01 -0.34239679683E-01  0.39285859892E+01  0.39290174310E+01  0.51109989000E-03 0.  1.
</event>
<event>
 6   3  0.2312675E+03  0.9118800E+02  0.7818608E-02  0.1180000E+00
       11   -1    0    0    0    0  0.00000000000E+00  0.00000000000E+00  0.54999999763E+01  0.55000000000E+01  0.51109989000E-03 0. -1.
     -623   -1    0    0    0    0  0.00000000000E+00  0.00000000000E+00  0.93234578044E-11  0.17124000000E+03  0.17124000000E+03 0. -1.
       11    1    1    2    0    0  0.42399286526E-01 -0.80932717068E-02  0.21753691495E+00  0.22177865346E+00  0.51109989000E-03 0. -1.
     -623    1    1    2    0    0  0.20123993306E-02 -0.22957269595E-01  0.50148873247E-02  0.17124000162E+03  0.17124000000E+03 0. -1.
     -611    1    1    2    0    0  0.17515751022E-01  0.42861986591E-02  0.56324224405E+00  0.56353106368E+00  0.51109989000E-03 0.  1.
      611    1    1    2    0    0 -0.61927436878E-01  0.26764342643E-01  0.47142059300E+01  0.47146886587E+01  0.51109989000E-03 0. -1.
</event>
<event>
 6   3  0.2312675E+03  0.9118800E+02  0.7818608E-02  0.1180000E+00
       11   -1    0    0    0    0  0.00000000000E+00  0.00000000000E+00  0.54999999763E+01  0.55000000000E+01  0.51109989000E-03 0.  1.
     -623   -1    0    0    0    0  0.00000000000E+00  0.00000000000E+00  0.93234578044E-11  0.17124000000E+03  0.17124000000E+03 0.  1.
       11    1    1    2    0    0  0.77618071533E-01  0.63183863913E-02  0.82741396524E+00  0.83107076602E+00  0.51109989000E-03 0.  1.
     -623    1    1    2    0    0  0.18441535431E-01 -0.13360587490E-01  0.46648580451E-02  0.17124000158E+03  0.17124000000E+03 0.  1.
     -611    1    1    2    0    0 -0.41600180530E-01  0.76403666355E-02  0.21814262843E+01  0.21818363471E+01  0.51109989000E-03 0.  1.
      611    1    1    2    0    0 -0.54459426437E-01 -0.59816553660E-03  0.24864948687E+01  0.24870913092E+01  0.51109989000E-03 0. -1.
</event>
<event>
 6   3  0.2312675E+03  0.9118800E+02  0.7818608E-02  0.1180000E+00
       11   -1    0    0    0    0  0.00000000000E+00  0.00000000000E+00  0.54999999763E+01  0.55000000000E+01  0.51109989000E-03 0. -1.
     -623   -1    0    0    0    0  0.00000000000E+00  0.00000000000E+00  0.93234578044E-11  0.17124000000E+03  0.17124000000E+03 0. -1.
       11    1    1    2    0    0 -0.88399907396E-01 -0.25831239902E-01  0.85826391359E+00  0.86319117417E+00  0.51109989000E-03 0. -1.
     -623    1    1    2    0    0 -0.13282009572E-01  0.58220473446E-01  0.62384627810E-02  0.17124001053E+03  0.17124000000E+03 0. -1.
     -611    1    1    2    0    0  0.87383706000E-01 -0.18440198465E-01  0.35976519803E+01  0.35987603401E+01  0.51109989000E-03 0. -1.
      611    1    1    2    0    0  0.14298210968E-01 -0.13949035079E-01  0.10378456196E+01  0.10380379597E+01  0.51109989000E-03 0.  1.
</event>
<event>
 6   3  0.2312675E+03  0.9118800E+02  0.7818608E-02  0.1180000E+00
       11   -1    0    0    0    0  0.00000000000E+00  0.00000000000E+00  0.54999999763E+01  0.55000000000E+01  0.51109989000E-03 0. -1.
     -623   -1    0    0    0    0  0.00000000000E+00  0.00000000000E+00  0.93234578044E-11  0.17124000000E+03  0.17124000000E+03 0. -1.
       11    1    1    2    0    0 -0.31328711428E-02  0.58442827230E-02  0.10421810087E+01  0.10422022292E+01  0.51109989000E-03 0. -1.
     -623    1    1    2    0    0  0.56267330155E-01 -0.12518153497E-01  0.35292362841E-03  0.17124000970E+03  0.17124000000E+03 0. -1.
     -611    1    1    2    0    0 -0.29167492602E-01  0.30233111688E-02  0.24673463261E+01  0.24675206255E+01  0.51109989000E-03 0. -1.
      611    1    1    2    0    0 -0.23966966478E-01  0.36505596168E-02  0.19901197239E+01  0.19902674491E+01  0.51109989000E-03 0. -1.
</event>
<event>
 6   3  0.2312675E+03  0.9118800E+02  0.7818608E-02  0.1180000E+00
       11   -1    0    0    0    0  0.00000000000E+00  0.00000000000E+00  0.54999999763E+01  0.55000000000E+01  0.51109989000E-03 0.  1.
     -623   -1    0    0    0    0  0.00000000000E+00  0.00000000000E+00  0.93234578044E-11  0.17124000000E+03  0.17124000000E+03 0.  1.
       11    1    1    2    0    0  0.56290234739E-03 -0.14823540252E-02  0.13997734701E-01  0.14096525543E-01  0.51109989000E-03 0.  1.
     -623    1    1    2    0    0 -0.37439901316E-02  0.22789078256E-02  0.81256968098E-03  0.17124000006E+03  0.17124000000E+03 0.  1.
     -611    1    1    2    0    0  0.42061173916E-01  0.92125023933E-02  0.18947682242E+01  0.18952574752E+01  0.51109989000E-03 0. -1.
      611    1    1    2    0    0 -0.38880086132E-01 -0.10009056194E-01  0.35904214476E+01  0.35906459412E+01  0.51109989000E-03 0.  1.
</event>
<event>
 6   3  0.2312675E+03  0.9118800E+02  0.7818608E-02  0.1180000E+00
       11   -1    0    0    0    0  0.00000000000E+00  0.00000000000E+00  0.54999999763E+01  0.55000000000E+01  0.51109989000E-03 0.  1.
     -623   -1    0    0    0    0  0.00000000000E+00  0.00000000000E+00  0.93234578044E-11  0.17124000000E+03  0.17124000000E+03 0.  1.
       11    1    1    2    0    0 -0.75837805689E-01 -0.72681814300E-02  0.99874684814E+00  0.10016485048E+01  0.51109989000E-03 0.  1.
     -623    1    1    2    0    0  0.72364733488E-02  0.12516224317E-01  0.34444420644E-02  0.17124000064E+03  0.17124000000E+03 0.  1.
     -611    1    1    2    0    0  0.42277408461E-01 -0.90381469381E-02  0.28024461968E+01  0.28027796943E+01  0.51109989000E-03 0. -1.
      611    1    1    2    0    0  0.26323923879E-01  0.37901040516E-02  0.16953624892E+01  0.16955711560E+01  0.51109989000E-03 0.  1.
</event>
<event>
 6   3  0.2312675E+03  0.9118800E+02  0.7818608E-02  0.1180000E+00
       11   -1    0    0    0    0  0.00000000000E+00  0.00000000000E+00  0.54999999763E+01  0.55000000000E+01  0.51109989000E-03 0.  1.
     -623   -1    0    0    0    0  0.00000000000E+00  0.00000000000E+00  0.93234578044E-11  0.17124000000E+03  0.17124000000E+03 0.  1.
       11    1    1    2    0    0  0.70823304574E-01 -0.70991218214E-02  0.91895442954E+00  0.92170702656E+00  0.51109989000E-03 0.  1.
     -623    1    1    2    0    0 -0.43935706265E-02 -0.15044029237E-01  0.32979478638E-02  0.17124000075E+03  0.17124000000E+03 0.  1.
     -611    1    1    2    0    0 -0.28365237687E-01  0.12187024840E-01  0.17770079333E+01  0.17772761649E+01  0.51109989000E-03 0. -1.
      611    1    1    2    0    0 -0.38064496261E-01  0.99561262191E-02  0.28007396656E+01  0.28010160596E+01  0.51109989000E-03 0.  1.
</event>
<event>
 6   3  0.2312675E+03  0.9118800E+02  0.7818608E-02  0.1180000E+00
       11   -1    0    0    0    0  0.00000000000E+00  0.00000000000E+00  0.54999999763E+01  0.55000000000E+01  0.51109989000E-03 0. -1.
     -623   -1    0    0    0    0  0.00000000000E+00  0.00000000000E+00  0.93234578044E-11  0.17124000000E+03  0.17124000000E+03 0. -1.
       11    1    1    2    0    0 -0.31425721170E-02 -0.10253691707E-01  0.84960023928E-01  0.85635745119E-01  0.51109989000E-03 0. -1.
     -623    1    1    2    0    0  0.41382826762E-02  0.11824956787E-01  0.18216206902E-02  0.17124000047E+03  0.17124000000E+03 0. -1.
     -611    1    1    2    0    0 -0.50703282316E-01 -0.18133290964E-01  0.35516057162E+01  0.35520139448E+01  0.51109989000E-03 0. -1.
      611    1    1    2    0    0  0.49707571757E-01  0.16562025884E-01  0.18616126154E+01  0.18623498421E+01  0.51109989000E-03 0.  1.
</event>
<event>
 6   3  0.2312675E+03  0.9118800E+02  0.7818608E-02  0.1180000E+00
       11   -1    0    0    0    0  0.00000000000E+00  0.00000000000E+00  0.54999999763E+01  0.55000000000E+01  0.51109989000E-03 0.  1.
     -623   -1    0    0    0    0  0.00000000000E+00  0.00000000000E+00  0.93234578044E-11  0.17124000000E+03  0.17124000000E+03 0. -1.
       11    1    1    2    0    0  0.82307792944E-01 -0.74275556242E-01  0.78225048824E+00  0.79006804682E+00  0.51109989000E-03 0.  1.
     -623    1    1    2    0    0 -0.66391017661E-02  0.15505016200E-01  0.87933910254E-02  0.17124000106E+03  0.17124000000E+03 0. -1.
     -611    1    1    2    0    0 -0.53607752054E-01  0.41211791421E-01  0.33242565869E+01  0.33249442581E+01  0.51109989000E-03 0.  1.
      611    1    1    2    0    0 -0.22060938993E-01  0.17558748519E-01  0.13846995019E+01  0.13849866304E+01  0.51109989000E-03 0.  1.
</event>
<event>
 6   3  0.2312675E+03  0.9118800E+02  0.7818608E-02  0.1180000E+00
       11   -1    0    0    0    0  0.00000000000E+00  0.00000000000E+00  0.54999999763E+01  0.55000000000E+01  0.51109989000E-03 0.  1.
     -623   -1    0    0    0    0  0.00000000000E+00  0.00000000000E+00  0.93234578044E-11  0.17124000000E+03  0.17124000000E+03 0.  1.
       11    1    1    2    0    0 -0.21174398434E-02  0.18734073828E-02  0.34747474488E-01  0.34866049577E-01  0.51109989000E-03 0.  1.
     -623    1    1    2    0    0  0.86329084975E-03  0.11836816162E-03  0.63792175639E-03  0.17124000000E+03  0.17124000000E+03 0.  1.
     -611    1    1    2    0    0  0.36623496836E-01  0.96518198478E-02  0.29665346970E+01  0.29667765012E+01  0.51109989000E-03 0.  1.
      611    1    1    2    0    0 -0.35369347842E-01 -0.11643595392E-01  0.24980798826E+01  0.24983574455E+01  0.51109989000E-03 0. -1.
</event>
<event>
 6   3  0.2312675E+03  0.9118800E+02  0.7818608E-02  0.1180000E+00
       11   -1    0    0    0    0  0.00000000000E+00  0.00000000000E+00  0.54999999763E+01  0.55000000000E+01  0.51109989000E-03 0. -1.
     -623   -1    0    0    0    0  0.00000000000E+00  0.00000000000E+00  0.93234578044E-11  0.17124000000E+03  0.17124000000E+03 0.  1.
       11    1    1    2    0    0 -0.51408096591E-02 -0.49274835709E-02  0.34935651222E-01  0.35657663520E-01  0.51109989000E-03 0. -1.
     -623    1    1    2    0    0  0.86438643475E-03  0.47982547784E-02  0.19702925868E-02  0.17124000008E+03  0.17124000000E+03 0.  1.
     -611    1    1    2    0    0 -0.43855818389E-01  0.34696349706E-01  0.31058472024E+01  0.31063506363E+01  0.51109989000E-03 0.  1.
      611    1    1    2    0    0  0.48132241613E-01 -0.34567120913E-01  0.23572468300E+01  0.23579916195E+01  0.51109989000E-03 0. -1.
</event>
<event>
 6   3  0.2312675E+03  0.9118800E+02  0.7818608E-02  0.1180000E+00
       11   -1    0    0    0    0  0.00000000000E+00  0.00000000000E+00  0.54999999763E+01  0.55000000000E+01  0.51109989000E-03 0.  1.
     -623   -1    0    0    0    0  0.00000000000E+00  0.00000000000E+00  0.93234578044E-11  0.17124000000E+03  0.17124000000E+03 0. -1.
       11    1    1    2    0    0 -0.10787112892E-01  0.25519787396E-03  0.31129276526E+00  0.31148013397E+00  0.51109989000E-03 0.  1.
     -623    1    1    2    0    0 -0.44254243579E-01  0.36531470129E-02  0.48675709714E-03  0.17124000576E+03  0.17124000000E+03 0. -1.
     -611    1    1    2    0    0  0.13786086213E-01 -0.97993648261E-03  0.12607202199E+01  0.12607960780E+01  0.51109989000E-03 0. -1.
      611    1    1    2    0    0  0.41255270217E-01 -0.29284084013E-02  0.39275002303E+01  0.39277180261E+01  0.51109989000E-03 0.  1.
</event>
<event>
 6   3  0.2312675E+03  0.9118800E+02  0.7818608E-02  0.1180000E+00
       11   -1    0    0    0    0  0.00000000000E+00  0.00000000000E+00  0.54999999763E+01  0.55000000000E+01  0.51109989000E-03 0. -1.
     -623   -1    0    0    0    0  0.00000000000E+00  0.00000000000E+00  0.93234578044E-11  0.17124000000E+03  0.17124000000E+03 0. -1.
       11    1    1    2    0    0 -0.16458594587E-01 -0.25902659332E-01  0.30074576314E+00  0.30230796941E+00  0.51109989000E-03 0. -1.
     -623    1    1    2    0    0 -0.18131305775E-02 -0.83830892675E-02  0.22469193226E-02  0.17124000023E+03  0.17124000000E+03 0. -1.
     -611    1    1    2    0    0 -0.28910544546E-01  0.13076684091E-01  0.23536625863E+01  0.23538765156E+01  0.51109989000E-03 0.  1.
      611    1    1    2    0    0  0.47182269710E-01  0.21209064508E-01  0.28433447074E+01  0.28438152854E+01  0.51109989000E-03 0. -1.
</event>
<event>
 6   3  0.2312675E+03  0.9118800E+02  0.7818608E-02  0.1180000E+00
       11   -1    0    0    0    0  0.00000000000E+00  0.00000000000E+00  0.54999999763E+01  0.55000000000E+01  0.51109989000E-03 0. -1.
     -623   -1    0    0    0    0  0.00000000000E+00  0.00000000000E+00  0.93234578044E-11  0.17124000000E+03  0.17124000000E+03 0.  1.
       11    1    1    2    0    0 -0.38228802089E-01 -0.66017499301E-02  0.10297888128E+01  0.10305194247E+01  0.51109989000E-03 0. -1.
     -623    1    1    2    0    0 -0.14312628342E-01  0.22915414214E-01  0.10718468761E-02  0.17124000213E+03  0.17124000000E+03 0.  1.
     -611    1    1    2    0    0  0.29336916242E-01 -0.10025774680E-01  0.25419607515E+01  0.25421498567E+01  0.51109989000E-03 0. -1.
      611    1    1    2    0    0  0.23204514165E-01 -0.62878895977E-02  0.19271785632E+01  0.19273285820E+01  0.51109989000E-03 0. -1.
</event>
<event>
 6   3  0.2312675E+03  0.9118800E+02  0.7818608E-02  0.1180000E+00
       11   -1    0    0    0    0  0.00000000000E+00  0.00000000000E+00  0.54999999763E+01  0.55000000000E+01  0.51109989000E-03 0.  1.
     -623   -1    0    0    0    0  0.00000000000E+00  0.00000000000E+00  0.93234578044E-11  0.17124000000E+03  0.17124000000E+03 0.  1.
       11    1    1    2    0    0  0.42699783850E-02  0.43003181627E-01  0.60531834783E+00  0.60685918448E+00  0.51109989000E-03 0.  1.
     -623    1    1    2    0    0  0.58589651422E-01 -0.82636209226E-02  0.20855286953E-02  0.17124001024E+03  0.17124000000E+03 0.  1.
     -611    1    1    2    0    0 -0.13802257798E-01 -0.10500227686E-01  0.10127394197E+01  0.10128880247E+01  0.51109989000E-03 0. -1.
      611    1    1    2    0    0 -0.49057372013E-01 -0.24239333020E-01  0.38798566803E+01  0.38802425558E+01  0.51109989000E-03 0.  1.
</event>
<event>
 6   3  0.2312675E+03  0.9118800E+02  0.7818608E-02  0.1180000E+00
       11   -1    0    0    0    0  0.00000000000E+00  0.00000000000E+00  0.54999999763E+01  0.55000000000E+01  0.51109989000E-03 0.  1.
     -623   -1    0    0    0    0  0.00000000000E+00  0.00000000000E+00  0.93234578044E-11  0.17124000000E+03  0.17124000000E+03 0. -1.
       11    1    1    2    0    0 -0.70356046910E-02  0.55547386226E-02  0.90786047922E-01  0.91228956889E-01  0.51109989000E-03 0.  1.
     -623    1    1    2    0    0  0.30201583436E-03  0.33405246508E-02  0.10570817096E-02  0.17124000004E+03  0.17124000000E+03 0. -1.
     -611    1    1    2    0    0  0.41122745145E-01 -0.93142554268E-02  0.20229915165E+01  0.20234309409E+01  0.51109989000E-03 0. -1.
      611    1    1    2    0    0 -0.34389156289E-01  0.41899215350E-03  0.33851653301E+01  0.33853400661E+01  0.51109989000E-03 0.  1.
</event>
<event>
 6   3  0.2312675E+03  0.9118800E+02  0.7818608E-02  0.1180000E+00
       11   -1    0    0    0    0  0.00000000000E+00  0.00000000000E+00  0.54999999763E+01  0.55000000000E+01  0.51109989000E-03 0. -1.
     -623   -1    0    0    0    0  0.00000000000E+00  0.00000000000E+00  0.93234578044E-11  0.17124000000E+03  0.17124000000E+03 0.  1.
       11    1    1    2    0    0  0.69062556263E-01  0.45543908935E-01  0.30959948553E+00  0.32046214594E+00  0.51109989000E-03 0. -1.
     -623    1    1    2    0    0  0.12170395427E-01  0.36203105747E-02  0.11734027408E-01  0.17124000087E+03  0.17124000000E+03 0.  1.
     -611    1    1    2    0    0 -0.40790728265E-01 -0.24801788512E-01  0.26015630886E+01  0.26020011102E+01  0.51109989000E-03 0. -1.
      611    1    1    2    0    0 -0.40442223697E-01 -0.24362431162E-01  0.25771033921E+01  0.25775358884E+01  0.51109989000E-03 0. -1.
</event>
<event>
 6   3  0.2312675E+03  0.9118800E+02  0.7818608E-02  0.1180000E+00
       11   -1    0    0    0    0  0.00000000000E+00  0.00000000000E+00  0.54999999763E+01  0.55000000000E+01  0.51109989000E-03 0.  1.
     -623   -1    0    0    0    0  0.00000000000E+00  0.00000000000E+00  0.93234578044E-11  0.17124000000E+03  0.17124000000E+03 0.  1.
       11    1    1    2    0    0  0.24828966132E-01  0.33090156770E-01  0.61631197002E+00  0.61769907046E+00  0.51109989000E-03 0.  1.
     -623    1    1    2    0    0  0.47583294688E-01  0.14600532000E-01  0.21644867286E-02  0.17124000725E+03  0.17124000000E+03 0.  1.
     -611    1    1    2    0    0 -0.56048633086E-01 -0.36635793381E-01  0.37690749298E+01  0.37696697094E+01  0.51109989000E-03 0.  1.
      611    1    1    2    0    0 -0.16363627825E-01 -0.11054895449E-01  0.11124485959E+01  0.11126239790E+01  0.51109989000E-03 0.  1.
</event>
<event>
 6   3  0.2312675E+03  0.9118800E+02  0.7818608E-02  0.1180000E+00
       11   -1    0    0    0    0  0.00000000000E+00  0.00000000000E+00  0.54999999763E+01  0.55000000000E+01  0.51109989000E-03 0. -1.
     -623   -1    0    0    0    0  0.00000000000E+00  0.00000000000E+00  0.93234578044E-11  0.17124000000E+03  0.17124000000E+03 0. -1.
       11    1    1    2    0    0  0.92079433200E-02 -0.78539535091E-02  0.54114698986E+00  0.54128254791E+00  0.51109989000E-03 0. -1.
     -623    1    1    2    0    0  0.44393431143E-01 -0.11152129435E-01  0.46805561610E-03  0.17124000612E+03  0.17124000000E+03 0. -1.
     -611    1    1    2    0    0 -0.11033246970E-01  0.43465659876E-02  0.10409861762E+01  0.10410538437E+01  0.51109989000E-03 0.  1.
      611    1    1    2    0    0 -0.42568127495E-01  0.14659516957E-01  0.39173987547E+01  0.39176574903E+01  0.51109989000E-03 0. -1.
</event>
<event>
 6   3  0.2312675E+03  0.9118800E+02  0.7818608E-02  0.1180000E+00
       11   -1    0    0    0    0  0.00000000000E+00  0.00000000000E+00  0.54999999763E+01  0.55000000000E+01  0.51109989000E-03 0. -1.
     -623   -1    0    0    0    0  0.00000000000E+00  0.00000000000E+00  0.93234578044E-11  0.17124000000E+03  0.17124000000E+03 0. -1.
       11    1    1    2    0    0 -0.49838636736E-03 -0.38709336712E-02  0.13080614140E-01  0.13660022175E-01  0.51109989000E-03 0. -1.
     -623    1    1    2    0    0  0.16712536855E-02  0.17018676667E-02  0.92621109029E-03  0.17124000002E+03  0.17124000000E+03 0. -1.
     -611    1    1    2    0    0 -0.31090600612E-01 -0.32543233581E-02  0.28368201943E+01  0.28369924730E+01  0.51109989000E-03 0.  1.
      611    1    1    2    0    0  0.29917733293E-01  0.54233893626E-02  0.26491729568E+01  0.26493474857E+01  0.51109989000E-03 0. -1.
</event>
<event>
 6   3  0.2312675E+03  0.9118800E+02  0.7818608E-02  0.1180000E+00
       11   -1    0    0    0    0  0.00000000000E+00  0.00000000000E+00  0.54999999763E+01  0.55000000000E+01  0.51109989000E-03 0. -1.
     -623   -1    0    0    0    0  0.00000000000E+00  0.00000000000E+00  0.93234578044E-11  0.17124000000E+03  0.17124000000E+03 0.  1.
       11    1    1    2    0    0 -0.29659361315E-02 -0.29588436709E-02  0.18687905012E-01  0.19158563355E-01  0.51109989000E-03 0. -1.
     -623    1    1    2    0    0  0.73749462867E-02  0.80384971218E-02  0.22974638967E-02  0.17124000036E+03  0.17124000000E+03 0.  1.
     -611    1    1    2    0    0  0.54195709094E-01 -0.42468719172E-01  0.21554112912E+01  0.21565108074E+01  0.51109989000E-03 0.  1.
      611    1    1    2    0    0 -0.58604719249E-01  0.37389065722E-01  0.33236033161E+01  0.33243302663E+01  0.51109989000E-03 0. -1.
</event>
<event>
 6   3  0.2312675E+03  0.9118800E+02  0.7818608E-02  0.1180000E+00
       11   -1    0    0    0    0  0.00000000000E+00  0.00000000000E+00  0.54999999763E+01  0.55000000000E+01  0.51109989000E-03 0.  1.
     -623   -1    0    0    0    0  0.00000000000E+00  0.00000000000E+00  0.93234578044E-11  0.17124000000E+03  0.17124000000E+03 0. -1.
       11    1    1    2    0    0  0.58118503111E-01  0.16472501215E-01  0.85889459845E+00  0.86101643200E+00  0.51109989000E-03 0.  1.
     -623    1    1    2    0    0  0.49646929577E-02  0.15239230837E-01  0.26622352434E-02  0.17124000077E+03  0.17124000000E+03 0. -1.
     -611    1    1    2    0    0 -0.40879993272E-01 -0.18118778620E-01  0.29392702948E+01  0.29396104489E+01  0.51109989000E-03 0.  1.
      611    1    1    2    0    0 -0.22203202796E-01 -0.13592953431E-01  0.16991728477E+01  0.16993723483E+01  0.51109989000E-03 0. -1.
</event>
<event>
 6   3  0.2312675E+03  0.9118800E+02  0.7818608E-02  0.1180000E+00
       11   -1    0    0    0    0  0.00000000000E+00  0.00000000000E+00  0.54999999763E+01  0.55000000000E+01  0.51109989000E-03 0. -1.
     -623   -1    0    0    0    0  0.00000000000E+00  0.00000000000E+00  0.93234578044E-11  0.17124000000E+03  0.17124000000E+03 0.  1.
       11    1    1    2    0    0  0.10405636088E-01 -0.31158969081E-02  0.80962590541E+00  0.80969892800E+00  0.51109989000E-03 0. -1.
     -623    1    1    2    0    0 -0.12053959167E+00  0.13362076101E-01  0.14207194185E-02  0.17124004295E+03  0.17124000000E+03 0.  1.
     -611    1    1    2    0    0  0.71490012443E-01 -0.63385439598E-02  0.30162610574E+01  0.30171148515E+01  0.51109989000E-03 0. -1.
      611    1    1    2    0    0  0.38643943097E-01 -0.39076352279E-02  0.16726922919E+01  0.16731432660E+01  0.51109989000E-03 0. -1.
</event>
<event>
 6   3  0.3205470E+03  0.9118800E+02  0.7818608E-02  0.1180000E+00
       11   -1    0    0    0    0  0.00000000000E+00  0.00000000000E+00  0.54999999763E+01  0.55000000000E+01  0.51109989000E-03 0.  1.
     -623   -1    0    0    0    0  0.00000000000E+00  0.00000000000E+00  0.93234578044E-11  0.17124000000E+03  0.17124000000E+03 0.  1.
       11    1    1    2    0    0 -0.73023598262E-03 -0.10956640599E-02  0.10328697841E-01  0.10424823572E-01  0.51109989000E-03 0.  1.
     -623    1    1    2    0    0  0.10235737339E-02  0.82003076087E-03  0.63350029968E-03  0.17124000001E+03  0.17124000000E+03 0.  1.
     -611    1    1    2    0    0  0.36902073454E-01 -0.58491160164E-02  0.21512550286E+01  0.21515795209E+01  0.51109989000E-03 0.  1.
      611    1    1    2    0    0 -0.37195411206E-01  0.61247493154E-02  0.33377827494E+01  0.33379956492E+01  0.51109989000E-03 0. -1.
</event>
<event>
 6   3  0.2312675E+03  0.9118800E+02  0.7818608E-02  0.1180000E+00
       11   -1    0    0    0    0  0.00000000000E+00  0.00000000000E+00  0.54999999763E+01  0.55000000000E+01  0.51109989000E-03 0. -1.
     -623   -1    0    0    0    0  0.00000000000E+00  0.00000000000E+00  0.93234578044E-11  0.17124000000E+03  0.17124000000E+03 0.  1.
       11    1    1    2    0    0 -0.31237264939E-01 -0.26457915509E-01  0.19856555633E+00  0.20274202672E+00  0.51109989000E-03 0. -1.
     -623    1    1    2    0    0 -0.57945269550E-02  0.28551609117E-01  0.77524349547E-02  0.17124000265E+03  0.17124000000E+03 0.  1.
     -611    1    1    2    0    0 -0.77333539387E-01  0.10821679719E-01  0.24533156054E+01  0.24545580673E+01  0.51109989000E-03 0. -1.
      611    1    1    2    0    0  0.11436533128E+00 -0.12915373327E-01  0.28403663796E+01  0.28426972522E+01  0.51109989000E-03 0.  1.
</event>
<event>
 6   3  0.2312675E+03  0.9118800E+02  0.7818608E-02  0.1180000E+00
       11   -1    0    0    0    0  0.00000000000E+00  0.00000000000E+00  0.54999999763E+01  0.55000000000E+01  0.51109989000E-03 0.  1.
     -623   -1    0    0    0    0  0.00000000000E+00  0.00000000000E+00  0.93234578044E-11  0.17124000000E+03  0.17124000000E+03 0. -1.
       11    1    1    2    0    0 -0.76269478706E-02  0.23257134064E-02  0.60212050001E+00  0.60217351073E+00  0.51109989000E-03 0. -1.
     -623    1    1    2    0    0  0.65441645938E-01 -0.25991937422E-02  0.40813942506E-03  0.17124001252E+03  0.17124000000E+03 0. -1.
     -611    1    1    2    0    0 -0.33221862408E-01  0.18996028458E-02  0.28061237622E+01  0.28063211026E+01  0.51109989000E-03 0.  1.
      611    1    1    2    0    0 -0.24592835606E-01 -0.16261225124E-02  0.20913475701E+01  0.20914928573E+01  0.51109989000E-03 0. -1.
</event>
<event>
 6   3  0.2312675E+03  0.9118800E+02  0.7818608E-02  0.1180000E+00
       11   -1    0    0    0    0  0.00000000000E+00  0.00000000000E+00  0.54999999763E+01  0.55000000000E+01  0.51109989000E-03 0.  1.
     -623   -1    0    0    0    0  0.00000000000E+00  0.00000000000E+00  0.93234578044E-11  0.17124000000E+03  0.17124000000E+03 0. -1.
       11    1    1    2    0    0 -0.12261578518E-01  0.37122584500E-02  0.50213963047E+00  0.50230329173E+00  0.51109989000E-03 0.  1.
     -623    1    1    2    0    0  0.68439902060E-01  0.16064793105E-01  0.53312466275E-03  0.17124001443E+03  0.17124000000E+03 0. -1.
     -611    1    1    2    0    0 -0.36469246679E-01 -0.12484481026E-01  0.32283176424E+01  0.32285478051E+01  0.51109989000E-03 0.  1.
      611    1    1    2    0    0 -0.19709076940E-01 -0.72925705558E-02  0.17690095856E+01  0.17691344789E+01  0.51109989000E-03 0.  1.
</event>
<event>
 6   3  0.2312675E+03  0.9118800E+02  0.7818608E-02  0.1180000E+00
       11   -1    0    0    0    0  0.00000000000E+00  0.00000000000E+00  0.54999999763E+01  0.55000000000E+01  0.51109989000E-03 0.  1.
     -623   -1    0    0    0    0  0.00000000000E+00  0.00000000000E+00  0.93234578044E-11  0.17124000000E+03  0.17124000000E+03 0.  1.
       11    1    1    2    0    0 -0.54674616327E-01 -0.83577160919E-01  0.10411625681E+01  0.10459417813E+01  0.51109989000E-03 0.  1.
     -623    1    1    2    0    0 -0.20580700659E-02 -0.93557506109E-02  0.61306503818E-02  0.17124000038E+03  0.17124000000E+03 0.  1.
     -611    1    1    2    0    0  0.23090893986E-01  0.50469349998E-01  0.22936289635E+01  0.22943004224E+01  0.51109989000E-03 0. -1.
      611    1    1    2    0    0  0.33641792406E-01  0.42463561531E-01  0.21590777943E+01  0.21597574186E+01  0.51109989000E-03 0.  1.
</event>
<event>
 6   3  0.2312675E+03  0.9118800E+02  0.7818608E-02  0.1180000E+00
       11   -1    0    0    0    0  0.00000000000E+00  0.00000000000E+00  0.54999999763E+01  0.55000000000E+01  0.51109989000E-03 0. -1.
     -623   -1    0    0    0    0  0.00000000000E+00  0.00000000000E+00  0.93234578044E-11  0.17124000000E+03  0.17124000000E+03 0. -1.
       11    1    1    2    0    0 -0.24006700642E-02  0.13889774142E-01  0.75161529564E-01  0.76473562700E-01  0.51109989000E-03 0. -1.
     -623    1    1    2    0    0 -0.26054791093E-02 -0.13321323154E-01  0.37371055917E-02  0.17124000058E+03  0.17124000000E+03 0. -1.
     -611    1    1    2    0    0 -0.71840455407E-01  0.28530789290E-01  0.21398714754E+01  0.21412672065E+01  0.51109989000E-03 0.  1.
      611    1    1    2    0    0  0.76846604580E-01 -0.29099240277E-01  0.32812298657E+01  0.32822586521E+01  0.51109989000E-03 0. -1.
</event>
<event>
 6   3  0.2312675E+03  0.9118800E+02  0.7818608E-02  0.1180000E+00
       11   -1    0    0    0    0  0.00000000000E+00  0.00000000000E+00  0.54999999763E+01  0.55000000000E+01  0.51109989000E-03 0. -1.
     -623   -1    0    0    0    0  0.00000000000E+00  0.00000000000E+00  0.93234578044E-11  0.17124000000E+03  0.17124000000E+03 0.  1.
       11    1    1    2    0    0  0.15999757068E-02  0.29788559458E-02  0.19647179663E-02  0.39439630821E-02  0.51109989000E-03 0. -1.
     -623    1    1    2    0    0 -0.32532546112E-02  0.11647383971E-02  0.46388939642E-02  0.17124000010E+03  0.17124000000E+03 0.  1.
     -611    1    1    2    0    0 -0.75880335766E-01  0.91711725784E-02  0.15584476253E+01  0.15603208638E+01  0.51109989000E-03 0.  1.
      611    1    1    2    0    0  0.77533614670E-01 -0.13314766921E-01  0.39349487390E+01  0.39357350754E+01  0.51109989000E-03 0. -1.
</event>
<event>
 6   3  0.2312675E+03  0.9118800E+02  0.7818608E-02  0.1180000E+00
       11   -1    0    0    0    0  0.00000000000E+00  0.00000000000E+00  0.54999999763E+01  0.55000000000E+01  0.51109989000E-03 0. -1.
     -623   -1    0    0    0    0  0.00000000000E+00  0.00000000000E+00  0.93234578044E-11  0.17124000000E+03  0.17124000000E+03 0. -1.
       11    1    1    2    0    0  0.21865516346E-02 -0.97224251450E-02  0.62494999721E+00  0.62502965273E+00  0.51109989000E-03 0. -1.
     -623    1    1    2    0    0 -0.84264085192E-02 -0.72841942156E-03  0.12089054951E-02  0.17124000021E+03  0.17124000000E+03 0. -1.
     -611    1    1    2    0    0  0.50487307884E-01 -0.83811025778E-02  0.32930873456E+01  0.32934850445E+01  0.51109989000E-03 0. -1.
      611    1    1    2    0    0 -0.44247450999E-01  0.18831947144E-01  0.15807537279E+01  0.15814850897E+01  0.51109989000E-03 0.  1.
</event>
<event>
 6   3  0.2312675E+03  0.9118800E+02  0.7818608E-02  0.1180000E+00
       11   -1    0    0    0    0  0.00000000000E+00  0.00000000000E+00  0.54999999763E+01  0.55000000000E+01  0.51109989000E-03 0. -1.
     -623   -1    0    0    0    0  0.00000000000E+00  0.00000000000E+00  0.93234578044E-11  0.17124000000E+03  0.17124000000E+03 0.  1.
       11    1    1    2    0    0 -0.46732304179E-01  0.76636536431E-02  0.10779556831E+01  0.10789955309E+01  0.51109989000E-03 0. -1.
     -623    1    1    2    0    0 -0.11587704650E-01  0.87857340199E-02  0.14559043228E-02  0.17124000062E+03  0.17124000000E+03 0.  1.
     -611    1    1    2    0    0  0.39944651591E-01 -0.11111842581E-01  0.30387626404E+01  0.30390455235E+01  0.51109989000E-03 0. -1.
      611    1    1    2    0    0  0.18375357101E-01 -0.53375450435E-02  0.13818257381E+01  0.13819583115E+01  0.51109989000E-03 0. -1.
</event>
<event>
 6   3  0.2312675E+03  0.9118800E+02  0.7818608E-02  0.1180000E+00
       11   -1    0    0    0    0  0.00000000000E+00  0.00000000000E+00  0.54999999763E+01  0.55000000000E+01  0.51109989000E-03 0.  1.
     -623   -1    0    0    0    0  0.00000000000E+00  0.00000000000E+00  0.93234578044E-11  0.17124000000E+03  0.17124000000E+03 0.  1.
       11    1    1    2    0    0 -0.10021441212E-01  0.31114461782E-01  0.54465231647E-01  0.63523709726E-01  0.51109989000E-03 0.  1.
     -623    1    1    2    0    0 -0.10311974497E-01 -0.16331083818E-01  0.14286779300E-01  0.17124000169E+03  0.17124000000E+03 0.  1.
     -611    1    1    2    0    0 -0.10557936118E+00  0.20377563394E-01  0.25173453316E+01  0.25196408526E+01  0.51109989000E-03 0. -1.
      611    1    1    2    0    0  0.12591277689E+00 -0.35160941358E-01  0.29139026338E+01  0.29168337524E+01  0.51109989000E-03 0.  1.
</event>
<event>
 6   3  0.2312675E+03  0.9118800E+02  0.7818608E-02  0.1180000E+00
       11   -1    0    0    0    0  0.00000000000E+00  0.00000000000E+00  0.54999999763E+01  0.55000000000E+01  0.51109989000E-03 0. -1.
     -623   -1    0    0    0    0  0.00000000000E+00  0.00000000000E+00  0.93234578044E-11  0.17124000000E+03  0.17124000000E+03 0. -1.
       11    1    1    2    0    0  0.27926964187E-01 -0.35818425230E-01  0.64065106867E+00  0.64225923733E+00  0.51109989000E-03 0. -1.
     -623    1    1    2    0    0 -0.98358017383E-02  0.26154105669E-02  0.34531949913E-02  0.17124000034E+03  0.17124000000E+03 0. -1.
     -611    1    1    2    0    0 -0.64281016013E-01  0.53180900188E-01  0.31206013237E+01  0.31217163772E+01  0.51109989000E-03 0.  1.
      611    1    1    2    0    0  0.46189853564E-01 -0.19977885526E-01  0.17352943889E+01  0.17360240482E+01  0.51109989000E-03 0. -1.
</event>
<event>
 6   3  0.2312675E+03  0.9118800E+02  0.7818608E-02  0.1180000E+00
       11   -1    0    0    0    0  0.00000000000E+00  0.00000000000E+00  0.54999999763E+01  0.55000000000E+01  0.51109989000E-03 0.  1.
     -623   -1    0    0    0    0  0.00000000000E+00  0.00000000000E+00  0.93234578044E-11  0.17124000000E+03  0.17124000000E+03 0. -1.
       11    1    1    2    0    0  0.19596225061E-02  0.16807182752E-02  0.79881602278E-01  0.79924943165E-01  0.51109989000E-03 0.  1.
     -623    1    1    2    0    0 -0.13051979131E-02 -0.46366790750E-03  0.37238570188E-03  0.17124000001E+03  0.17124000000E+03 0. -1.
     -611    1    1    2    0    0 -0.29379470438E-01 -0.72356415098E-02  0.29148566692E+01  0.29150137514E+01  0.51109989000E-03 0.  1.
      611    1    1    2    0    0  0.28725045845E-01  0.60185911421E-02  0.25048893188E+01  0.25050612992E+01  0.51109989000E-03 0. -1.
</event>
<event>
 6   3  0.2312675E+03  0.9118800E+02  0.7818608E-02  0.1180000E+00
       11   -1    0    0    0    0  0.00000000000E+00  0.00000000000E+00  0.54999999763E+01  0.55000000000E+01  0.51109989000E-03 0.  1.
     -623   -1    0    0    0    0  0.00000000000E+00  0.00000000000E+00  0.93234578044E-11  0.17124000000E+03  0.17124000000E+03 0.  1.
       11    1    1    2    0    0 -0.48959247837E-01 -0.29166046792E-01  0.99321291551E+00  0.99484663290E+00  0.51109989000E-03 0.  1.
     -623    1    1    2    0    0 -0.12487106342E-01  0.20465038267E-01  0.20630802642E-02  0.17124000169E+03  0.17124000000E+03 0.  1.
     -611    1    1    2    0    0  0.49336988399E-01  0.70425810300E-02  0.35973168157E+01  0.35976620561E+01  0.51109989000E-03 0.  1.
      611    1    1    2    0    0  0.12109365769E-01  0.16584274928E-02  0.90740716400E+00  0.90748961956E+00  0.51109989000E-03 0.  1.
</event>
<event>
 6   3  0.2312675E+03  0.9118800E+02  0.7818608E-02  0.1180000E+00
       11   -1    0    0    0    0  0.00000000000E+00  0.00000000000E+00  0.54999999763E+01  0.55000000000E+01  0.51109989000E-03 0.  1.
     -623   -1    0    0    0    0  0.00000000000E+00  0.00000000000E+00  0.93234578044E-11  0.17124000000E+03  0.17124000000E+03 0.  1.
       11    1    1    2    0    0  0.67120887650E-02 -0.85860360224E-02  0.51587309651E+00  0.51598845440E+00  0.51109989000E-03 0.  1.
     -623    1    1    2    0    0 -0.98068990656E-02 -0.59690660170E-02  0.54707397503E-03  0.17124000039E+03  0.17124000000E+03 0.  1.
     -611    1    1    2    0    0  0.31817971911E-01 -0.76241127511E-03  0.29360571715E+01  0.29362297152E+01  0.51109989000E-03 0. -1.
      611    1    1    2    0    0 -0.28723161611E-01  0.15317513314E-01  0.20475226340E+01  0.20477814445E+01  0.51109989000E-03 0.  1.
</event>
<event>
 6   3  0.2312675E+03  0.9118800E+02  0.7818608E-02  0.1180000E+00
       11   -1    0    0    0    0  0.00000000000E+00  0.00000000000E+00  0.54999999763E+01  0.55000000000E+01  0.51109989000E-03 0.  1.
     -623   -1    0    0    0    0  0.00000000000E+00  0.00000000000E+00  0.93234578044E-11  0.17124000000E+03  0.17124000000E+03 0. -1.
       11    1    1    2    0    0 -0.63559499948E-01  0.16832939200E-01  0.95641197890E+00  0.95866954290E+00  0.51109989000E-03 0.  1.
     -623    1    1    2    0    0  0.12631881502E-01  0.93865579575E-02  0.26197950529E-02  0.17124000074E+03  0.17124000000E+03 0. -1.
     -611    1    1    2    0    0  0.33787180717E-01 -0.16833639772E-01  0.29930490837E+01  0.29932871602E+01  0.51109989000E-03 0. -1.
      611    1    1    2    0    0  0.17140437700E-01 -0.93858573693E-02  0.15479191159E+01  0.15480425510E+01  0.51109989000E-03 0.  1.
</event>
<event>
 6   3  0.2312675E+03  0.9118800E+02  0.7818608E-02  0.1180000E+00
       11   -1    0    0    0    0  0.00000000000E+00  0.00000000000E+00  0.54999999763E+01  0.55000000000E+01  0.51109989000E-03 0. -1.
     -623   -1    0    0    0    0  0.00000000000E+00  0.00000000000E+00  0.93234578044E-11  0.17124000000E+03  0.17124000000E+03 0. -1.
       11    1    1    2    0    0 -0.11698315402E+00 -0.11185715205E+00  0.66366261039E+00  0.68311448706E+00  0.51109989000E-03 0. -1.
     -623    1    1    2    0    0 -0.12815667846E-01 -0.22241430167E-01  0.23201469067E-01  0.17124000350E+03  0.17124000000E+03 0. -1.
     -611    1    1    2    0    0  0.21285253394E-01  0.34915910908E-01  0.78533158808E+00  0.78639566842E+00  0.51109989000E-03 0.  1.
      611    1    1    2    0    0  0.10851356847E+00  0.99182671303E-01  0.40278043087E+01  0.40304863487E+01  0.51109989000E-03 0. -1.
</event>
<event>
 6   3  0.2312675E+03  0.9118800E+02  0.7818608E-02  0.1180000E+00
       11   -1    0    0    0    0  0.00000000000E+00  0.00000000000E+00  0.54999999763E+01  0.55000000000E+01  0.51109989000E-03 0.  1.
     -623   -1    0    0    0    0  0.00000000000E+00  0.00000000000E+00  0.93234578044E-11  0.17124000000E+03  0.17124000000E+03 0. -1.
       11    1    1    2    0    0  0.28606934858E-01 -0.23174556422E-01  0.26682640362E+00  0.26935479888E+00  0.51109989000E-03 0.  1.
     -623    1    1    2    0    0  0.47236071810E-01  0.31023358901E-01  0.30952289603E-02  0.17124000935E+03  0.17124000000E+03 0. -1.
     -611    1    1    2    0    0 -0.67161382848E-01 -0.56834613935E-02  0.46259950994E+01  0.46264861260E+01  0.51109989000E-03 0.  1.
      611    1    1    2    0    0 -0.86816238239E-02 -0.21653410861E-02  0.60408324455E+00  0.60414972222E+00  0.51109989000E-03 0. -1.
</event>
<event>
 6   3  0.2312675E+03  0.9118800E+02  0.7818608E-02  0.1180000E+00
       11   -1    0    0    0    0  0.00000000000E+00  0.00000000000E+00  0.54999999763E+01  0.55000000000E+01  0.51109989000E-03 0.  1.
     -623   -1    0    0    0    0  0.00000000000E+00  0.00000000000E+00  0.93234578044E-11  0.17124000000E+03  0.17124000000E+03 0. -1.
       11    1    1    2    0    0 -0.88381812970E-02 -0.69585793998E-02  0.92503110801E+00  0.92509964182E+00  0.51109989000E-03 0.  1.
     -623    1    1    2    0    0  0.66579642166E-01  0.94845657406E-02  0.46765625813E-03  0.17124001321E+03  0.17124000000E+03 0. -1.
     -611    1    1    2    0    0 -0.23794771063E-01  0.30190993636E-02  0.23113878559E+01  0.23115123594E+01  0.51109989000E-03 0. -1.
      611    1    1    2    0    0 -0.33946689800E-01 -0.55450857036E-02  0.22631133556E+01  0.22633747916E+01  0.51109989000E-03 0.  1.
</event>
<event>
 6   3  0.2312675E+03  0.9118800E+02  0.7818608E-02  0.1180000E+00
       11   -1    0    0    0    0  0.00000000000E+00  0.00000000000E+00  0.54999999763E+01  0.55000000000E+01  0.51109989000E-03 0. -1.
     -623   -1    0    0    0    0  0.00000000000E+00  0.00000000000E+00  0.93234578044E-11  0.17124000000E+03  0.17124000000E+03 0. -1.
       11    1    1    2    0    0  0.42709450779E-01 -0.72264625914E-01  0.71789433944E+00  0.72278545722E+00  0.51109989000E-03 0. -1.
     -623    1    1    2    0    0 -0.58522618222E-02  0.20965022418E-01  0.55333289687E-02  0.17124000147E+03  0.17124000000E+03 0. -1.
     -611    1    1    2    0    0  0.10924478744E-01  0.64423344555E-02  0.74981244230E+00  0.74991986756E+00  0.51109989000E-03 0.  1.
      611    1    1    2    0    0 -0.47781667701E-01  0.44857269041E-01  0.40267598656E+01  0.40272932025E+01  0.51109989000E-03 0. -1.
</event>
<event>
 6   3  0.2312675E+03  0.9118800E+02  0.7818608E-02  0.1180000E+00
       11   -1    0    0    0    0  0.00000000000E+00  0.00000000000E+00  0.54999999763E+01  0.55000000000E+01  0.51109989000E-03 0. -1.
     -623   -1    0    0    0    0  0.00000000000E+00  0.00000000000E+00  0.93234578044E-11  0.17124000000E+03  0.17124000000E+03 0. -1.
       11    1    1    2    0    0 -0.10782153303E-01 -0.34834418914E-02  0.57795282966E-01  0.58897751685E-01  0.51109989000E-03 0. -1.
     -623    1    1    2    0    0  0.68956738737E-03 -0.76408796552E-02  0.28294096263E-02  0.17124000020E+03  0.17124000000E+03 0. -1.
     -611    1    1    2    0    0 -0.46585375996E-01  0.73905246625E-02  0.43430877486E+01  0.43433439042E+01  0.51109989000E-03 0. -1.
      611    1    1    2    0    0  0.56677961912E-01  0.37337968841E-02  0.10962875351E+01  0.10977581489E+01  0.51109989000E-03 0.  1.
</event>
<event>
 6   3  0.2312675E+03  0.9118800E+02  0.7818608E-02  0.1180000E+00
       11   -1    0    0    0    0  0.00000000000E+00  0.00000000000E+00  0.54999999763E+01  0.55000000000E+01  0.51109989000E-03 0.  1.
     -623   -1    0    0    0    0  0.00000000000E+00  0.00000000000E+00  0.93234578044E-11  0.17124000000E+03  0.17124000000E+03 0. -1.
       11    1    1    2    0    0 -0.47271703438E-01 -0.14097752236E-01  0.38241860199E-01  0.62418440053E-01  0.51109989000E-03 0.  1.
     -623    1    1    2    0    0  0.30157204317E-01 -0.39652889656E-01  0.35352680459E-01  0.17124001090E+03  0.17124000000E+03 0. -1.
     -611    1    1    2    0    0 -0.10134811109E+00 -0.10657815166E+00  0.25855796739E+01  0.25897592269E+01  0.51109989000E-03 0.  1.
      611    1    1    2    0    0  0.11846261021E+00  0.16032879355E+00  0.28408257617E+01  0.28478114372E+01  0.51109989000E-03 0. -1.
</event>
<event>
 6   3  0.2312675E+03  0.9118800E+02  0.7818608E-02  0.1180000E+00
       11   -1    0    0    0    0  0.00000000000E+00  0.00000000000E+00  0.54999999763E+01  0.55000000000E+01  0.51109989000E-03 0.  1.
     -623   -1    0    0    0    0  0.00000000000E+00  0.00000000000E+00  0.93234578044E-11  0.17124000000E+03  0.17124000000E+03 0. -1.
       11    1    1    2    0    0 -0.59555014973E-01 -0.22998487482E-01  0.13466689982E+00  0.14903410806E+00  0.51109989000E-03 0.  1.
     -623    1    1    2    0    0 -0.10035032914E-01 -0.36338177247E-01  0.15160515543E-01  0.17124000482E+03  0.17124000000E+03 0. -1.
     -611    1    1    2    0    0  0.45750334002E-01  0.37344221119E-01  0.36740494538E+01  0.36745240963E+01  0.51109989000E-03 0.  1.
      611    1    1    2    0    0  0.23839713885E-01  0.21992443610E-01  0.16761231071E+01  0.16764369749E+01  0.51109989000E-03 0. -1.
</event>
<event>
 6   3  0.2312675E+03  0.9118800E+02  0.7818608E-02  0.1180000E+00
       11   -1    0    0    0    0  0.00000000000E+00  0.00000000000E+00  0.54999999763E+01  0.55000000000E+01  0.51109989000E-03 0. -1.
     -623   -1    0    0    0    0  0.00000000000E+00  0.00000000000E+00  0.93234578044E-11  0.17124000000E+03  0.17124000000E+03 0.  1.
       11    1    1    2    0    0 -0.84403808544E-01  0.35769818484E-01  0.82543698546E+00  0.83051186686E+00  0.51109989000E-03 0. -1.
     -623    1    1    2    0    0 -0.91179854377E-02 -0.73487537070E-01  0.61801200810E-02  0.17124001612E+03  0.17124000000E+03 0.  1.
     -611    1    1    2    0    0  0.32980213590E-01  0.13488182191E-01  0.16494762592E+01  0.16498611506E+01  0.51109989000E-03 0. -1.
      611    1    1    2    0    0  0.60541580444E-01  0.24229536417E-01  0.30189066142E+01  0.30196108623E+01  0.51109989000E-03 0. -1.
</event>
<event>
 6   3  0.2443706E+03  0.9118800E+02  0.7818608E-02  0.1180000E+00
       11   -1    0    0    0    0  0.00000000000E+00  0.00000000000E+00  0.54999999763E+01  0.55000000000E+01  0.51109989000E-03 0.  1.
     -623   -1    0    0    0    0  0.00000000000E+00  0.00000000000E+00  0.93234578044E-11  0.17124000000E+03  0.17124000000E+03 0.  1.
       11    1    1    2    0    0  0.62369740709E-03  0.26121267281E-02  0.42243006490E+00  0.42243891056E+00  0.51109989000E-03 0.  1.
     -623    1    1    2    0    0 -0.71258760601E-03  0.79958382726E-03  0.34135656617E-03  0.17124000000E+03  0.17124000000E+03 0.  1.
     -611    1    1    2    0    0  0.28754750491E-01 -0.40757302446E-02  0.22627348549E+01  0.22629212828E+01  0.51109989000E-03 0. -1.
      611    1    1    2    0    0 -0.28665860292E-01  0.66401968929E-03  0.28144936998E+01  0.28146398028E+01  0.51109989000E-03 0.  1.
</event>
<event>
 6   3  0.2312675E+03  0.9118800E+02  0.7818608E-02  0.1180000E+00
       11   -1    0    0    0    0  0.00000000000E+00  0.00000000000E+00  0.54999999763E+01  0.55000000000E+01  0.51109989000E-03 0. -1.
     -623   -1    0    0    0    0  0.00000000000E+00  0.00000000000E+00  0.93234578044E-11  0.17124000000E+03  0.17124000000E+03 0.  1.
       11    1    1    2    0    0  0.50664941955E-01 -0.86765542771E-02  0.89360478538E+00  0.89508211501E+00  0.51109989000E-03 0. -1.
     -623    1    1    2    0    0  0.13363470926E-01  0.28164127398E-02  0.19271387084E-02  0.17124000056E+03  0.17124000000E+03 0.  1.
     -611    1    1    2    0    0 -0.75554739137E-02  0.54271937708E-03  0.56540284852E+00  0.56545381957E+00  0.51109989000E-03 0.  1.
      611    1    1    2    0    0 -0.56472938972E-01  0.53174221607E-02  0.40390652041E+01  0.40394635104E+01  0.51109989000E-03 0. -1.
</event>
<event>
 6   3  0.2312675E+03  0.9118800E+02  0.7818608E-02  0.1180000E+00
       11   -1    0    0    0    0  0.00000000000E+00  0.00000000000E+00  0.54999999763E+01  0.55000000000E+01  0.51109989000E-03 0. -1.
     -623   -1    0    0    0    0  0.00000000000E+00  0.00000000000E+00  0.93234578044E-11  0.17124000000E+03  0.17124000000E+03 0.  1.
       11    1    1    2    0    0 -0.10195354293E+00 -0.16391114489E-01  0.91635943119E+00  0.92215945579E+00  0.51109989000E-03 0. -1.
     -623    1    1    2    0    0 -0.18765700043E-01  0.85661136125E-02  0.74498864515E-02  0.17124000140E+03  0.17124000000E+03 0.  1.
     -611    1    1    2    0    0  0.10106227270E+00  0.14430656119E-01  0.37809823401E+01  0.37823603139E+01  0.51109989000E-03 0. -1.
      611    1    1    2    0    0  0.19656970275E-01 -0.66056552428E-02  0.79520831851E+00  0.79547882574E+00  0.51109989000E-03 0.  1.
</event>
<event>
 6   3  0.2312675E+03  0.9118800E+02  0.7818608E-02  0.1180000E+00
       11   -1    0    0    0    0  0.00000000000E+00  0.00000000000E+00  0.54999999763E+01  0.55000000000E+01  0.51109989000E-03 0.  1.
     -623   -1    0    0    0    0  0.00000000000E+00  0.00000000000E+00  0.93234578044E-11  0.17124000000E+03  0.17124000000E+03 0. -1.
       11    1    1    2    0    0 -0.15307304385E-01  0.43626662533E-02  0.99699208871E+00  0.99711926699E+00  0.51109989000E-03 0.  1.
     -623    1    1    2    0    0  0.81522511085E-01 -0.23660528032E-01  0.67677649017E-03  0.17124002104E+03  0.17124000000E+03 0. -1.
     -611    1    1    2    0    0 -0.50123551931E-01  0.15129611072E-01  0.34324912308E+01  0.34328905585E+01  0.51109989000E-03 0.  1.
      611    1    1    2    0    0 -0.16091653050E-01  0.41682502081E-02  0.10698397643E+01  0.10699690174E+01  0.51109989000E-03 0. -1.
</event>
<event>
 6   3  0.2312675E+03  0.9118800E+02  0.7818608E-02  0.1180000E+00
       11   -1    0    0    0    0  0.00000000000E+00  0.00000000000E+00  0.54999999763E+01  0.55000000000E+01  0.51109989000E-03 0.  1.
     -623   -1    0    0    0    0  0.00000000000E+00  0.00000000000E+00  0.93234578044E-11  0.17124000000E+03  0.17124000000E+03 0.  1.
       11    1    1    2    0    0  0.23360036355E-01 -0.67551683195E-01  0.86915571323E-01  0.11253221300E+00  0.51109989000E-03 0.  1.
     -623    1    1    2    0    0  0.37886731406E-03  0.51170970844E-01  0.28287871880E-01  0.17124000998E+03  0.17124000000E+03 0.  1.
     -611    1    1    2    0    0  0.65455972552E-01  0.21251854410E-02  0.12864957204E+01  0.12881616749E+01  0.51109989000E-03 0. -1.
      611    1    1    2    0    0 -0.89194876221E-01  0.14255526910E-01  0.40983008126E+01  0.40992961296E+01  0.51109989000E-03 0.  1.
</event>
<event>
 6   3  0.2312675E+03  0.9118800E+02  0.7818608E-02  0.1180000E+00
       11   -1    0    0    0    0  0.00000000000E+00  0.00000000000E+00  0.54999999763E+01  0.55000000000E+01  0.51109989000E-03 0.  1.
     -623   -1    0    0    0    0  0.00000000000E+00  0.00000000000E+00  0.93234578044E-11  0.17124000000E+03  0.17124000000E+03 0. -1.
       11    1    1    2    0    0 -0.60921612730E-02 -0.11895672916E+00  0.10428469465E+01  0.10496274734E+01  0.51109989000E-03 0.  1.
     -623    1    1    2    0    0  0.36840912314E-01  0.16740765819E-01  0.83587688766E-02  0.17124000499E+03  0.17124000000E+03 0. -1.
     -611    1    1    2    0    0  0.11262952749E-01  0.51622967318E-02  0.54459199505E+00  0.54473315092E+00  0.51109989000E-03 0. -1.
      611    1    1    2    0    0 -0.42011703790E-01  0.97053666606E-01  0.39042022658E+01  0.39056343903E+01  0.51109989000E-03 0.  1.
</event>
<event>
 6   3  0.2312675E+03  0.9118800E+02  0.7818608E-02  0.1180000E+00
       11   -1    0    0    0    0  0.00000000000E+00  0.00000000000E+00  0.54999999763E+01  0.55000000000E+01  0.51109989000E-03 0.  1.
     -623   -1    0    0    0    0  0.00000000000E+00  0.00000000000E+00  0.93234578044E-11  0.17124000000E+03  0.17124000000E+03 0. -1.
       11    1    1    2    0    0  0.44133101065E-01  0.17700085549E-01  0.69768603163E+00  0.69930471441E+00  0.51109989000E-03 0.  1.
     -623    1    1    2    0    0  0.11786731451E-01 -0.13679879164E-01  0.19471873989E-02  0.17124000096E+03  0.17124000000E+03 0. -1.
     -611    1    1    2    0    0 -0.13929908849E-01 -0.97209884753E-03  0.11733868397E+01  0.11734700355E+01  0.51109989000E-03 0.  1.
      611    1    1    2    0    0 -0.41989923696E-01 -0.30481075395E-02  0.36269799200E+01  0.36272242895E+01  0.51109989000E-03 0.  1.
</event>
<event>
 6   3  0.2312675E+03  0.9118800E+02  0.7818608E-02  0.1180000E+00
       11   -1    0    0    0    0  0.00000000000E+00  0.00000000000E+00  0.54999999763E+01  0.55000000000E+01  0.51109989000E-03 0. -1.
     -623   -1    0    0    0    0  0.00000000000E+00  0.00000000000E+00  0.93234578044E-11  0.17124000000E+03  0.17124000000E+03 0. -1.
       11    1    1    2    0    0 -0.48456070175E-03  0.53996231835E-01  0.48576645651E+00  0.48875877418E+00  0.51109989000E-03 0. -1.
     -623    1    1    2    0    0  0.65552480836E-01  0.44619677333E-02  0.37688976047E-02  0.17124001265E+03  0.17124000000E+03 0. -1.
     -611    1    1    2    0    0 -0.31585082247E-01 -0.28535649380E-01  0.24944303991E+01  0.24947936142E+01  0.51109989000E-03 0. -1.
      611    1    1    2    0    0 -0.33482837887E-01 -0.29922550187E-01  0.25160342231E+01  0.25164349648E+01  0.51109989000E-03 0.  1.
</event>
<event>
 6   3  0.2312675E+03  0.9118800E+02  0.7818608E-02  0.1180000E+00
       11   -1    0    0    0    0  0.00000000000E+00  0.00000000000E+00  0.54999999763E+01  0.55000000000E+01  0.51109989000E-03 0.  1.
     -623   -1    0    0    0    0  0.00000000000E+00  0.00000000000E+00  0.93234578044E-11  0.17124000000E+03  0.17124000000E+03 0.  1.
       11    1    1    2    0    0 -0.18532152818E-01 -0.11737834070E-01  0.20600732188E+00  0.20717262205E+00  0.51109989000E-03 0.  1.
     -623    1    1    2    0    0 -0.20299084308E-02  0.16966499529E-01  0.16264191570E-02  0.17124000086E+03  0.17124000000E+03 0.  1.
     -611    1    1    2    0    0  0.43005752685E-01 -0.25378994673E-02  0.42317264536E+01  0.42319457670E+01  0.51109989000E-03 0.  1.
      611    1    1    2    0    0 -0.22443691436E-01 -0.26907659917E-02  0.10606397817E+01  0.10608807507E+01  0.51109989000E-03 0. -1.
</event>
<event>
 6   3  0.2312675E+03  0.9118800E+02  0.7818608E-02  0.1180000E+00
       11   -1    0    0    0    0  0.00000000000E+00  0.00000000000E+00  0.54999999763E+01  0.55000000000E+01  0.51109989000E-03 0.  1.
     -623   -1    0    0    0    0  0.00000000000E+00  0.00000000000E+00  0.93234578044E-11  0.17124000000E+03  0.17124000000E+03 0. -1.
       11    1    1    2    0    0 -0.20003282350E-01  0.39113057522E-02  0.10344200119E-01  0.22862487105E-01  0.51109989000E-03 0.  1.
     -623    1    1    2    0    0  0.20067929575E-01  0.22421050404E-02  0.13738155643E-01  0.17124000174E+03  0.17124000000E+03 0. -1.
     -611    1    1    2    0    0  0.51675614470E-01 -0.28621926139E-01  0.28570822844E+01  0.28576929549E+01  0.51109989000E-03 0.  1.
      611    1    1    2    0    0 -0.51740261695E-01  0.22468515347E-01  0.26188353361E+01  0.26194428163E+01  0.51109989000E-03 0. -1.
</event>
<event>
 6   3  0.2312675E+03  0.9118800E+02  0.7818608E-02  0.1180000E+00
       11   -1    0    0    0    0  0.00000000000E+00  0.00000000000E+00  0.54999999763E+01  0.55000000000E+01  0.51109989000E-03 0.  1.
     -623   -1    0    0    0    0  0.00000000000E+00  0.00000000000E+00  0.93234578044E-11  0.17124000000E+03  0.17124000000E+03 0. -1.
       11    1    1    2    0    0 -0.18682829113E-02 -0.36899847669E-02  0.69119299242E+00  0.69120555586E+00  0.51109989000E-03 0.  1.
     -623    1    1    2    0    0  0.11337546912E-02  0.45098759151E-03  0.39577066512E-03  0.17124000000E+03  0.17124000000E+03 0. -1.
     -611    1    1    2    0    0  0.29566104055E-01 -0.46847285118E-02  0.28098868884E+01  0.28100463854E+01  0.51109989000E-03 0.  1.
      611    1    1    2    0    0 -0.28831575835E-01  0.79237256872E-02  0.19985243247E+01  0.19987480539E+01  0.51109989000E-03 0. -1.
</event>
<event>
 6   3  0.2312675E+03  0.9118800E+02  0.7818608E-02  0.1180000E+00
       11   -1    0    0    0    0  0.00000000000E+00  0.00000000000E+00  0.54999999763E+01  0.55000000000E+01  0.51109989000E-03 0.  1.
     -623   -1    0    0    0    0  0.00000000000E+00  0.00000000000E+00  0.93234578044E-11  0.17124000000E+03  0.17124000000E+03 0.  1.
       11    1    1    2    0    0 -0.40144322689E-02  0.11796151447E-02  0.40195323742E+00  0.40197533936E+00  0.51109989000E-03 0.  1.
     -623    1    1    2    0    0  0.77842941949E-01  0.11503947977E-01  0.59079572760E-03  0.17124001808E+03  0.17124000000E+03 0.  1.
     -611    1    1    2    0    0 -0.45716922677E-01 -0.72843423592E-02  0.31434325104E+01  0.31437734186E+01  0.51109989000E-03 0.  1.
      611    1    1    2    0    0 -0.28111587291E-01 -0.53992208059E-02  0.19540234530E+01  0.19542331818E+01  0.51109989000E-03 0.  1.
</event>
<event>
 6   3  0.2312675E+03  0.9118800E+02  0.7818608E-02  0.1180000E+00
       11   -1    0    0    0    0  0.00000000000E+00  0.00000000000E+00  0.54999999763E+01  0.55000000000E+01  0.51109989000E-03 0. -1.
     -623   -1    0    0    0    0  0.00000000000E+00  0.00000000000E+00  0.93234578044E-11  0.17124000000E+03  0.17124000000E+03 0.  1.
       11    1    1    2    0    0 -0.48150617751E-01 -0.48805618982E-01  0.68428144933E+00  0.68770766577E+00  0.51109989000E-03 0. -1.
     -623    1    1    2    0    0 -0.32700372243E-01  0.37936763265E-01  0.41252841265E-02  0.17124000737E+03  0.17124000000E+03 0.  1.
     -611    1    1    2    0    0  0.23952293938E-01  0.35593905183E-02  0.14402592296E+01  0.14404628740E+01  0.51109989000E-03 0. -1.
      611    1    1    2    0    0  0.56898695977E-01  0.73094651876E-02  0.33713340085E+01  0.33718220813E+01  0.51109989000E-03 0. -1.
</event>
<event>
 6   3  0.2312675E+03  0.9118800E+02  0.7818608E-02  0.1180000E+00
       11   -1    0    0    0    0  0.00000000000E+00  0.00000000000E+00  0.54999999763E+01  0.55000000000E+01  0.51109989000E-03 0.  1.
     -623   -1    0    0    0    0  0.00000000000E+00  0.00000000000E+00  0.93234578044E-11  0.17124000000E+03  0.17124000000E+03 0.  1.
       11    1    1    2    0    0  0.26609230761E-02 -0.52643947369E-02  0.28771807444E-01  0.29374691322E-01  0.51109989000E-03 0.  1.
     -623    1    1    2    0    0 -0.85723198354E-01 -0.17675404877E-02  0.12761940063E-02  0.17124002147E+03  0.17124000000E+03 0.  1.
     -611    1    1    2    0    0  0.38159131287E-01  0.36822093518E-02  0.20865522021E+01  0.20869044136E+01  0.51109989000E-03 0. -1.
      611    1    1    2    0    0  0.44903143990E-01  0.33497258729E-02  0.33833997727E+01  0.33836994246E+01  0.51109989000E-03 0.  1.
</event>
<event>
 6   3  0.2312675E+03  0.9118800E+02  0.7818608E-02  0.1180000E+00
       11   -1    0    0    0    0  0.00000000000E+00  0.00000000000E+00  0.54999999763E+01  0.55000000000E+01  0.51109989000E-03 0.  1.
     -623   -1    0    0    0    0  0.00000000000E+00  0.00000000000E+00  0.93234578044E-11  0.17124000000E+03  0.17124000000E+03 0.  1.
       11    1    1    2    0    0 -0.41859924031E-02 -0.12281632123E-02  0.34784457324E+00  0.34787230311E+00  0.51109989000E-03 0.  1.
     -623    1    1    2    0    0  0.59262869803E-01  0.56936859916E-02  0.33465675806E-03  0.17124001035E+03  0.17124000000E+03 0.  1.
     -611    1    1    2    0    0 -0.12238273398E-01 -0.10483828375E-02  0.11035832614E+01  0.11036517343E+01  0.51109989000E-03 0.  1.
      611    1    1    2    0    0 -0.42838603861E-01 -0.34171399286E-02  0.40482374717E+01  0.40484655997E+01  0.51109989000E-03 0.  1.
</event>
<event>
 6   3  0.2312675E+03  0.9118800E+02  0.7818608E-02  0.1180000E+00
       11   -1    0    0    0    0  0.00000000000E+00  0.00000000000E+00  0.54999999763E+01  0.55000000000E+01  0.51109989000E-03 0.  1.
     -623   -1    0    0    0    0  0.00000000000E+00  0.00000000000E+00  0.93234578044E-11  0.17124000000E+03  0.17124000000E+03 0.  1.
       11    1    1    2    0    0 -0.13927632500E-03 -0.32402475162E-03  0.77406771093E-03  0.99236780129E-03  0.51109989000E-03 0. -1.
     -623    1    1    2    0    0  0.72716743334E-04 -0.50006026628E-03  0.14724965722E-02  0.17124000001E+03  0.17124000000E+03 0.  1.
     -611    1    1    2    0    0 -0.51209575480E-01  0.28388745317E-01  0.30496470152E+01  0.30502090945E+01  0.51109989000E-03 0.  1.
      611    1    1    2    0    0  0.51276135062E-01 -0.27564660299E-01  0.24481063968E+01  0.24487985307E+01  0.51109989000E-03 0. -1.
</event>
<event>
 6   3  0.2312675E+03  0.9118800E+02  0.7818608E-02  0.1180000E+00
       11   -1    0    0    0    0  0.00000000000E+00  0.00000000000E+00  0.54999999763E+01  0.55000000000E+01  0.51109989000E-03 0.  1.
     -623   -1    0    0    0    0  0.00000000000E+00  0.00000000000E+00  0.93234578044E-11  0.17124000000E+03  0.17124000000E+03 0.  1.
       11    1    1    2    0    0 -0.57447611811E-01  0.14576891930E-01  0.10653698508E+01  0.10670172886E+01  0.51109989000E-03 0.  1.
     -623    1    1    2    0    0 -0.71954688862E-02  0.98980581500E-03  0.21490691359E-02  0.17124000017E+03  0.17124000000E+03 0.  1.
     -611    1    1    2    0    0  0.40549763943E-01 -0.73898308892E-02  0.27055435003E+01  0.27058574955E+01  0.51109989000E-03 0.  1.
      611    1    1    2    0    0  0.24093316753E-01 -0.81768668556E-02  0.17269375559E+01  0.17271250483E+01  0.51109989000E-03 0. -1.
</event>
<event>
 6   3  0.2312675E+03  0.9118800E+02  0.7818608E-02  0.1180000E+00
       11   -1    0    0    0    0  0.00000000000E+00  0.00000000000E+00  0.54999999763E+01  0.55000000000E+01  0.51109989000E-03 0.  1.
     -623   -1    0    0    0    0  0.00000000000E+00  0.00000000000E+00  0.93234578044E-11  0.17124000000E+03  0.17124000000E+03 0. -1.
       11    1    1    2    0    0  0.61605035041E-02  0.67852201002E-02  0.46965477094E+00  0.46974445830E+00  0.51109989000E-03 0.  1.
     -623    1    1    2    0    0 -0.83578630369E-01 -0.32860453620E-01  0.77812221925E-03  0.17124002355E+03  0.17124000000E+03 0. -1.
     -611    1    1    2    0    0  0.26547187794E-01  0.75812441760E-02  0.16242109107E+01  0.16244456200E+01  0.51109989000E-03 0.  1.
      611    1    1    2    0    0  0.50870939140E-01  0.18493989371E-01  0.34053561770E+01  0.34057863752E+01  0.51109989000E-03 0. -1.
</event>
<event>
 6   3  0.2312675E+03  0.9118800E+02  0.7818608E-02  0.1180000E+00
       11   -1    0    0    0    0  0.00000000000E+00  0.00000000000E+00  0.54999999763E+01  0.55000000000E+01  0.51109989000E-03 0.  1.
     -623   -1    0    0    0    0  0.00000000000E+00  0.00000000000E+00  0.93234578044E-11  0.17124000000E+03  0.17124000000E+03 0. -1.
       11    1    1    2    0    0 -0.13999301052E-01 -0.56290114071E-01  0.27854214070E+00  0.28451808860E+00  0.51109989000E-03 0.  1.
     -623    1    1    2    0    0  0.96320210379E-01  0.15506492773E-02  0.69452611347E-02  0.17124002724E+03  0.17124000000E+03 0. -1.
     -611    1    1    2    0    0 -0.25203548435E-01  0.17465085508E-01  0.14501146594E+01  0.14504389111E+01  0.51109989000E-03 0. -1.
      611    1    1    2    0    0 -0.57117360890E-01  0.37274379285E-01  0.37643979150E+01  0.37650157630E+01  0.51109989000E-03 0.  1.
</event>
<event>
 6   3  0.2312675E+03  0.9118800E+02  0.7818608E-02  0.1180000E+00
       11   -1    0    0    0    0  0.00000000000E+00  0.00000000000E+00  0.54999999763E+01  0.55000000000E+01  0.51109989000E-03 0. -1.
     -623   -1    0    0    0    0  0.00000000000E+00  0.00000000000E+00  0.93234578044E-11  0.17124000000E+03  0.17124000000E+03 0. -1.
       11    1    1    2    0    0 -0.40717044178E-02 -0.18185415781E-01  0.94920629746E+00  0.94938935347E+00  0.51109989000E-03 0. -1.
     -623    1    1    2    0    0  0.82608532834E-01  0.58584107694E-01  0.10708093687E-02  0.17124002995E+03  0.17124000000E+03 0. -1.
     -611    1    1    2    0    0 -0.14730918217E-01 -0.69676259889E-02  0.80732126073E+00  0.80748586799E+00  0.51109989000E-03 0.  1.
      611    1    1    2    0    0 -0.63805910192E-01 -0.33431065919E-01  0.37424016082E+01  0.37430948276E+01  0.51109989000E-03 0. -1.
</event>
<event>
 6   3  0.2755695E+03  0.9118800E+02  0.7818608E-02  0.1180000E+00
       11   -1    0    0    0    0  0.00000000000E+00  0.00000000000E+00  0.54999999763E+01  0.55000000000E+01  0.51109989000E-03 0. -1.
     -623   -1    0    0    0    0  0.00000000000E+00  0.00000000000E+00  0.93234578044E-11  0.17124000000E+03  0.17124000000E+03 0.  1.
       11    1    1    2    0    0  0.15597192727E-01 -0.70224804906E-02  0.10897209929E+01  0.10898553534E+01  0.51109989000E-03 0. -1.
     -623    1    1    2    0    0 -0.68892617053E-01  0.28183168841E-01  0.52497253748E-03  0.17124001618E+03  0.17124000000E+03 0.  1.
     -611    1    1    2    0    0  0.64689532616E-02 -0.37693199828E-02  0.54867743048E+00  0.54872874818E+00  0.51109989000E-03 0.  1.
      611    1    1    2    0    0  0.46826470950E-01 -0.17391368321E-01  0.38610765712E+01  0.38613997110E+01  0.51109989000E-03 0. -1.
</event>
<event>
 6   3  0.2312675E+03  0.9118800E+02  0.7818608E-02  0.1180000E+00
       11   -1    0    0    0    0  0.00000000000E+00  0.00000000000E+00  0.54999999763E+01  0.55000000000E+01  0.51109989000E-03 0.  1.
     -623   -1    0    0    0    0  0.00000000000E+00  0.00000000000E+00  0.93234578044E-11  0.17124000000E+03  0.17124000000E+03 0.  1.
       11    1    1    2    0    0 -0.52227288270E-01  0.13981570019E-01  0.50586567158E+00  0.50874700279E+00  0.51109989000E-03 0.  1.
     -623    1    1    2    0    0 -0.15284698080E-01 -0.16197318424E-01  0.41549429207E-02  0.17124000150E+03  0.17124000000E+03 0.  1.
     -611    1    1    2    0    0  0.88944347142E-01  0.60957619829E-02  0.36131651284E+01  0.36142648992E+01  0.51109989000E-03 0.  1.
      611    1    1    2    0    0 -0.21432360792E-01 -0.38800135775E-02  0.13768142333E+01  0.13769865994E+01  0.51109989000E-03 0. -1.
</event>
<event>
 6   3  0.2312675E+03  0.9118800E+02  0.7818608E-02  0.1180000E+00
       11   -1    0    0    0    0  0.00000000000E+00  0.00000000000E+00  0.54999999763E+01  0.55000000000E+01  0.51109989000E-03 0. -1.
     -623   -1    0    0    0    0  0.00000000000E+00  0.00000000000E+00  0.93234578044E-11  0.17124000000E+03  0.17124000000E+03 0. -1.
       11    1    1    2    0    0  0.52917032418E-01  0.20923493662E-01  0.10894471849E+01  0.10909323695E+01  0.51109989000E-03 0. -1.
     -623    1    1    2    0    0 -0.22978530774E-02 -0.19742914506E-02  0.18166484140E-02  0.17124000004E+03  0.17124000000E+03 0. -1.
     -611    1    1    2    0    0 -0.34204276703E-01 -0.12961015132E-01  0.29805270414E+01  0.29807515204E+01  0.51109989000E-03 0. -1.
      611    1    1    2    0    0 -0.16414902646E-01 -0.59881870817E-02  0.14282091023E+01  0.14283160745E+01  0.51109989000E-03 0. -1.
</event>
<event>
 6   3  0.2312675E+03  0.9118800E+02  0.7818608E-02  0.1180000E+00
       11   -1    0    0    0    0  0.00000000000E+00  0.00000000000E+00  0.54999999763E+01  0.55000000000E+01  0.51109989000E-03 0. -1.
     -623   -1    0    0    0    0  0.00000000000E+00  0.00000000000E+00  0.93234578044E-11  0.17124000000E+03  0.17124000000E+03 0. -1.
       11    1    1    2    0    0 -0.35840073870E-02  0.25210008927E-02  0.36995278360E-01  0.37257380457E-01  0.51109989000E-03 0. -1.
     -623    1    1    2    0    0  0.12693264672E-02  0.55777721733E-03  0.72579015623E-03  0.17124000001E+03  0.17124000000E+03 0. -1.
     -611    1    1    2    0    0  0.33509928520E-01 -0.14985478806E-01  0.33278129832E+01  0.33280154736E+01  0.51109989000E-03 0.  1.
      611    1    1    2    0    0 -0.31195247600E-01  0.11906700696E-01  0.21344659244E+01  0.21347271387E+01  0.51109989000E-03 0. -1.
</event>
<event>
 6   3  0.2312675E+03  0.9118800E+02  0.7818608E-02  0.1180000E+00
       11   -1    0    0    0    0  0.00000000000E+00  0.00000000000E+00  0.54999999763E+01  0.55000000000E+01  0.51109989000E-03 0.  1.
     -623   -1    0    0    0    0  0.00000000000E+00  0.00000000000E+00  0.93234578044E-11  0.17124000000E+03  0.17124000000E+03 0. -1.
       11    1    1    2    0    0  0.84503847780E-01 -0.20913756573E-01  0.27398663664E+00  0.28748430180E+00  0.51109989000E-03 0.  1.
     -623    1    1    2    0    0  0.38343707803E-01 -0.18573235206E-01  0.15121821383E-01  0.17124000597E+03  0.17124000000E+03 0. -1.
     -611    1    1    2    0    0 -0.52160200570E-01  0.22801897228E-01  0.21114626160E+01  0.21122299243E+01  0.51109989000E-03 0. -1.
      611    1    1    2    0    0 -0.70687355013E-01  0.16685094552E-01  0.30994289022E+01  0.31002798060E+01  0.51109989000E-03 0.  1.
</event>
<event>
 6   3  0.2312675E+03  0.9118800E+02  0.7818608E-02  0.1180000E+00
       11   -1    0    0    0    0  0.00000000000E+00  0.00000000000E+00  0.54999999763E+01  0.55000000000E+01  0.51109989000E-03 0.  1.
     -623   -1    0    0    0    0  0.00000000000E+00  0.00000000000E+00  0.93234578044E-11  0.17124000000E+03  0.17124000000E+03 0. -1.
       11    1    1    2    0    0  0.22159159434E-01  0.24916095885E-01  0.10845396278E+01  0.10850522134E+01  0.51109989000E-03 0.  1.
     -623    1    1    2    0    0  0.88780251561E-01 -0.81393865172E-01  0.23662272039E-02  0.17124004237E+03  0.17124000000E+03 0. -1.
     -611    1    1    2    0    0 -0.91380457035E-01  0.54571684936E-01  0.38371147148E+01  0.38385906336E+01  0.51109989000E-03 0.  1.
      611    1    1    2    0    0 -0.19558953958E-01  0.19060843487E-02  0.57597940632E+00  0.57631477819E+00  0.51109989000E-03 0. -1.
</event>
<event>
 6   3  0.2312675E+03  0.9118800E+02  0.7818608E-02  0.1180000E+00
       11   -1    0    0    0    0  0.00000000000E+00  0.00000000000E+00  0.54999999763E+01  0.55000000000E+01  0.51109989000E-03 0. -1.
     -623   -1    0    0    0    0  0.00000000000E+00  0.00000000000E+00  0.93234578044E-11  0.17124000000E+03  0.17124000000E+03 0.  1.
       11    1    1    2    0    0  0.10737629073E-01 -0.12319482144E-01  0.28106939198E+00  0.28154454470E+00  0.51109989000E-03 0. -1.
     -623    1    1    2    0    0 -0.19662802100E-01  0.12932844166E-01  0.10037114533E-02  0.17124000162E+03  0.17124000000E+03 0.  1.
     -611    1    1    2    0    0  0.39521519468E-01  0.71148613759E-02  0.35605352566E+01  0.35607617369E+01  0.51109989000E-03 0.  1.
      611    1    1    2    0    0 -0.30596346441E-01 -0.77282233979E-02  0.16573916162E+01  0.16576920982E+01  0.51109989000E-03 0. -1.
</event>
<event>
 6   3  0.2312675E+03  0.9118800E+02  0.7818608E-02  0.1180000E+00
       11   -1    0    0    0    0  0.00000000000E+00  0.00000000000E+00  0.54999999763E+01  0.55000000000E+01  0.51109989000E-03 0. -1.
     -623   -1    0    0    0    0  0.00000000000E+00  0.00000000000E+00  0.93234578044E-11  0.17124000000E+03  0.17124000000E+03 0.  1.
       11    1    1    2    0    0  0.65632503630E-01 -0.49886468405E-01  0.41637054338E+00  0.42445373821E+00  0.51109989000E-03 0. -1.
     -623    1    1    2    0    0  0.28265560713E-02 -0.15720832478E-01  0.89712330398E-02  0.17124000098E+03  0.17124000000E+03 0.  1.
     -611    1    1    2    0    0 -0.49601944927E-01  0.47489751752E-01  0.35913893860E+01  0.35920458812E+01  0.51109989000E-03 0. -1.
      611    1    1    2    0    0 -0.18857114764E-01  0.18117549121E-01  0.14832688130E+01  0.14834993998E+01  0.51109989000E-03 0. -1.
</event>
<event>
 6   3  0.2312675E+03  0.9118800E+02  0.7818608E-02  0.1180000E+00
       11   -1    0    0    0    0  0.00000000000E+00  0.00000000000E+00  0.54999999763E+01  0.55000000000E+01  0.51109989000E-03 0. -1.
     -623   -1    0    0    0    0  0.00000000000E+00  0.00000000000E+00  0.93234578044E-11  0.17124000000E+03  0.17124000000E+03 0. -1.
       11    1    1    2    0    0 -0.14201837638E-01  0.35644730606E-02  0.85113695271E+00  0.85126304463E+00  0.51109989000E-03 0.  1.
     -623    1    1    2    0    0  0.91420808368E-01 -0.41739452426E-01  0.95389582723E-03  0.17124002949E+03  0.17124000000E+03 0. -1.
     -611    1    1    2    0    0 -0.56884973997E-01  0.27992778267E-01  0.34335752151E+01  0.34341605255E+01  0.51109989000E-03 0. -1.
      611    1    1    2    0    0 -0.20333996668E-01  0.10182201066E-01  0.12143339087E+01  0.12145469327E+01  0.51109989000E-03 0. -1.
</event>
<event>
 6   3  0.2312675E+03  0.9118800E+02  0.7818608E-02  0.1180000E+00
       11   -1    0    0    0    0  0.00000000000E+00  0.00000000000E+00  0.54999999763E+01  0.55000000000E+01  0.51109989000E-03 0.  1.
     -623   -1    0    0    0    0  0.00000000000E+00  0.00000000000E+00  0.93234578044E-11  0.17124000000E+03  0.17124000000E+03 0. -1.
       11    1    1    2    0    0 -0.30810068387E-02  0.26627390802E-01  0.46879521386E+00  0.46956120400E+00  0.51109989000E-03 0.  1.
     -623    1    1    2    0    0  0.30263774444E-02  0.11686801123E-01  0.37209877382E-02  0.17124000047E+03  0.17124000000E+03 0. -1.
     -611    1    1    2    0    0 -0.74482339393E-01  0.19644519626E-02  0.33379635256E+01  0.33387950278E+01  0.51109989000E-03 0.  1.
      611    1    1    2    0    0  0.74536968787E-01 -0.40278643888E-01  0.16895202490E+01  0.16916433022E+01  0.51109989000E-03 0. -1.
</event>
<event>
 6   3  0.2312675E+03  0.9118800E+02  0.7818608E-02  0.1180000E+00
       11   -1    0    0    0    0  0.00000000000E+00  0.00000000000E+00  0.54999999763E+01  0.55000000000E+01  0.51109989000E-03 0. -1.
     -623   -1    0    0    0    0  0.00000000000E+00  0.00000000000E+00  0.93234578044E-11  0.17124000000E+03  0.17124000000E+03 0. -1.
       11    1    1    2    0    0  0.65033773982E-01  0.21468008393E-01  0.36535701327E+00  0.37172069556E+00  0.51109989000E-03 0. -1.
     -623    1    1    2    0    0  0.91049688510E-02 -0.67807615864E-02  0.69322953366E-02  0.17124000052E+03  0.17124000000E+03 0. -1.
     -611    1    1    2    0    0 -0.62832899954E-01 -0.16262466643E-01  0.43530111581E+01  0.43534950149E+01  0.51109989000E-03 0. -1.
      611    1    1    2    0    0 -0.11305842879E-01  0.15752198364E-02  0.77469950951E+00  0.77478377284E+00  0.51109989000E-03 0.  1.
</event>
<event>
 6   3  0.2312675E+03  0.9118800E+02  0.7818608E-02  0.1180000E+00
       11   -1    0    0    0    0  0.00000000000E+00  0.00000000000E+00  0.54999999763E+01  0.55000000000E+01  0.51109989000E-03 0.  1.
     -623   -1    0    0    0    0  0.00000000000E+00  0.00000000000E+00  0.93234578044E-11  0.17124000000E+03  0.17124000000E+03 0. -1.
       11    1    1    2    0    0 -0.23075422654E-01  0.17201228368E-01  0.71228348464E+00  0.71286491083E+00  0.51109989000E-03 0.  1.
     -623    1    1    2    0    0  0.18755068105E-01  0.42317403368E-02  0.11057253342E-02  0.17124000108E+03  0.17124000000E+03 0. -1.
     -611    1    1    2    0    0 -0.29614391300E-01  0.35181220652E-03  0.16747614788E+01  0.16750234052E+01  0.51109989000E-03 0. -1.
      611    1    1    2    0    0  0.33934745848E-01 -0.21784780911E-01  0.31118492875E+01  0.31121106011E+01  0.51109989000E-03 0.  1.
</event>
<event>
 6   3  0.2312675E+03  0.9118800E+02  0.7818608E-02  0.1180000E+00
       11   -1    0    0    0    0  0.00000000000E+00  0.00000000000E+00  0.54999999763E+01  0.55000000000E+01  0.51109989000E-03 0. -1.
     -623   -1    0    0    0    0  0.00000000000E+00  0.00000000000E+00  0.93234578044E-11  0.17124000000E+03  0.17124000000E+03 0.  1.
       11    1    1    2    0    0  0.41891292651E-02 -0.76788363990E-02  0.65742167895E-01  0.66323504092E-01  0.51109989000E-03 0. -1.
     -623    1    1    2    0    0 -0.61459638857E-02  0.83234280092E-02  0.10168275871E-02  0.17124000032E+03  0.17124000000E+03 0.  1.
     -611    1    1    2    0    0 -0.31058617764E-01 -0.11748075148E-01  0.30459358701E+01  0.30461169119E+01  0.51109989000E-03 0. -1.
      611    1    1    2    0    0  0.33015452384E-01  0.11103483538E-01  0.23873051106E+01  0.23875592683E+01  0.51109989000E-03 0.  1.
</event>
<event>
 6   3  0.2312675E+03  0.9118800E+02  0.7818608E-02  0.1180000E+00
       11   -1    0    0    0    0  0.00000000000E+00  0.00000000000E+00  0.54999999763E+01  0.55000000000E+01  0.51109989000E-03 0.  1.
     -623   -1    0    0    0    0  0.00000000000E+00  0.00000000000E+00  0.93234578044E-11  0.17124000000E+03  0.17124000000E+03 0. -1.
       11    1    1    2    0    0 -0.67648616389E-01 -0.44534471041E-01  0.65221886392E+00  0.65722854631E+00  0.51109989000E-03 0.  1.
     -623    1    1    2    0    0 -0.23500515749E-01  0.29008012651E-01  0.58972387748E-02  0.17124000417E+03  0.17124000000E+03 0. -1.
     -611    1    1    2    0    0  0.61848905619E-01  0.10623833507E-01  0.32306920001E+01  0.32313014737E+01  0.51109989000E-03 0.  1.
      611    1    1    2    0    0  0.29300226482E-01  0.49026248768E-02  0.16111918715E+01  0.16114658070E+01  0.51109989000E-03 0.  1.
</event>
<event>
 6   3  0.2312675E+03  0.9118800E+02  0.7818608E-02  0.1180000E+00
       11   -1    0    0    0    0  0.00000000000E+00  0.00000000000E+00  0.54999999763E+01  0.55000000000E+01  0.51109989000E-03 0. -1.
     -623   -1    0    0    0    0  0.00000000000E+00  0.00000000000E+00  0.93234578044E-11  0.17124000000E+03  0.17124000000E+03 0. -1.
       11    1    1    2    0    0 -0.99240810963E-03 -0.22952953772E-01  0.75015666928E+00  0.75050856934E+00  0.51109989000E-03 0. -1.
     -623    1    1    2    0    0 -0.54555543734E-01  0.93750418287E-01  0.12391974639E-02  0.17124003436E+03  0.17124000000E+03 0. -1.
     -611    1    1    2    0    0  0.16142890366E-01 -0.21631309774E-01  0.14096322487E+01  0.14098907206E+01  0.51109989000E-03 0. -1.
      611    1    1    2    0    0  0.39405061491E-01 -0.49166154752E-01  0.33389718618E+01  0.33395663528E+01  0.51109989000E-03 0. -1.
</event>
<event>
 6   3  0.2312675E+03  0.9118800E+02  0.7818608E-02  0.1180000E+00
       11   -1    0    0    0    0  0.00000000000E+00  0.00000000000E+00  0.54999999763E+01  0.55000000000E+01  0.51109989000E-03 0. -1.
     -623   -1    0    0    0    0  0.00000000000E+00  0.00000000000E+00  0.93234578044E-11  0.17124000000E+03  0.17124000000E+03 0.  1.
       11    1    1    2    0    0  0.47854153958E-02  0.75885570302E-02  0.98996874065E+00  0.99000952273E+00  0.51109989000E-03 0. -1.
     -623    1    1    2    0    0 -0.52667222490E-01 -0.11280633230E-01  0.30532903989E-03  0.17124000847E+03  0.17124000000E+03 0.  1.
     -611    1    1    2    0    0  0.39974220622E-01  0.28140235624E-02  0.37994877835E+01  0.37996991375E+01  0.51109989000E-03 0. -1.
      611    1    1    2    0    0  0.79075865151E-02  0.87805264639E-03  0.71023812750E+00  0.71028287315E+00  0.51109989000E-03 0. -1.
</event>
<event>
 6   3  0.2312675E+03  0.9118800E+02  0.7818608E-02  0.1180000E+00
       11   -1    0    0    0    0  0.00000000000E+00  0.00000000000E+00  0.54999999763E+01  0.55000000000E+01  0.51109989000E-03 0. -1.
     -623   -1    0    0    0    0  0.00000000000E+00  0.00000000000E+00  0.93234578044E-11  0.17124000000E+03  0.17124000000E+03 0. -1.
       11    1    1    2    0    0  0.68501551388E-02  0.11218062785E-01  0.76422289533E+00  0.76433609396E+00  0.51109989000E-03 0.  1.
     -623    1    1    2    0    0 -0.55778901584E-01 -0.82779511311E-01  0.93613942853E-03  0.17124002910E+03  0.17124000000E+03 0. -1.
     -611    1    1    2    0    0  0.33257485629E-01  0.48790650222E-01  0.31885258227E+01  0.31890725566E+01  0.51109989000E-03 0. -1.
      611    1    1    2    0    0  0.15671261241E-01  0.22770798933E-01  0.15463151607E+01  0.15465622959E+01  0.51109989000E-03 0. -1.
</event>
<event>
 6   3  0.2312675E+03  0.9118800E+02  0.7818608E-02  0.1180000E+00
       11   -1    0    0    0    0  0.00000000000E+00  0.00000000000E+00  0.54999999763E+01  0.55000000000E+01  0.51109989000E-03 0. -1.
     -623   -1    0    0    0    0  0.00000000000E+00  0.00000000000E+00  0.93234578044E-11  0.17124000000E+03  0.17124000000E+03 0.  1.
       11    1    1    2    0    0 -0.55819958486E-01 -0.19437159536E-01  0.42191856884E+00  0.42603897813E+00  0.51109989000E-03 0. -1.
     -623    1    1    2    0    0 -0.10370482655E-01  0.67965824302E-02  0.45687260592E-02  0.17124000051E+03  0.17124000000E+03 0.  1.
     -611    1    1    2    0    0  0.23025896158E-01  0.37273385127E-02  0.17357170071E+01  0.17358738074E+01  0.51109989000E-03 0. -1.
      611    1    1    2    0    0  0.43164544916E-01  0.89132385807E-02  0.33377956691E+01  0.33380866995E+01  0.51109989000E-03 0.  1.
</event>
<event>
 6   3  0.2312675E+03  0.9118800E+02  0.7818608E-02  0.1180000E+00
       11   -1    0    0    0    0  0.00000000000E+00  0.00000000000E+00  0.54999999763E+01  0.55000000000E+01  0.51109989000E-03 0. -1.
     -623   -1    0    0    0    0  0.00000000000E+00  0.00000000000E+00  0.93234578044E-11  0.17124000000E+03  0.17124000000E+03 0.  1.
       11    1    1    2    0    0 -0.48572311310E-01  0.24541007115E-01  0.95928340140E+00  0.96082591341E+00  0.51109989000E-03 0. -1.
     -623    1    1    2    0    0 -0.74780919196E-02 -0.33133204587E-01  0.19002810545E-02  0.17124000338E+03  0.17124000000E+03 0.  1.
     -611    1    1    2    0    0  0.37808536496E-01  0.56803829939E-02  0.30297931306E+01  0.30300343938E+01  0.51109989000E-03 0. -1.
      611    1    1    2    0    0  0.18241866786E-01  0.29118144858E-02  0.15090231673E+01  0.15091363176E+01  0.51109989000E-03 0.  1.
</event>
<event>
 6   3  0.2312675E+03  0.9118800E+02  0.7818608E-02  0.1180000E+00
       11   -1    0    0    0    0  0.00000000000E+00  0.00000000000E+00  0.54999999763E+01  0.55000000000E+01  0.51109989000E-03 0. -1.
     -623   -1    0    0    0    0  0.00000000000E+00  0.00000000000E+00  0.93234578044E-11  0.17124000000E+03  0.17124000000E+03 0.  1.
       11    1    1    2    0    0 -0.13843949430E-01 -0.28978940900E-02  0.69883317171E-01  0.71302117556E-01  0.51109989000E-03 0. -1.
     -623    1    1    2    0    0  0.64289463419E-02  0.69670015377E-02  0.27844426210E-02  0.17124000029E+03  0.17124000000E+03 0.  1.
     -611    1    1    2    0    0  0.56811162945E-01 -0.61950947485E-02  0.15552205767E+01  0.15562702820E+01  0.51109989000E-03 0.  1.
      611    1    1    2    0    0 -0.49396159856E-01  0.21259873009E-02  0.38721116398E+01  0.38724273153E+01  0.51109989000E-03 0. -1.
</event>
<event>
 6   3  0.2312675E+03  0.9118800E+02  0.7818608E-02  0.1180000E+00
       11   -1    0    0    0    0  0.00000000000E+00  0.00000000000E+00  0.54999999763E+01  0.55000000000E+01  0.51109989000E-03 0. -1.
     -623   -1    0    0    0    0  0.00000000000E+00  0.00000000000E+00  0.93234578044E-11  0.17124000000E+03  0.17124000000E+03 0.  1.
       11    1    1    2    0    0  0.20232668917E-01 -0.26950235210E-01  0.70163788770E-01  0.77838901245E-01  0.51109989000E-03 0. -1.
     -623    1    1    2    0    0  0.74615276489E-02 -0.29574881816E-02  0.88378903989E-02  0.17124000042E+03  0.17124000000E+03 0.  1.
     -611    1    1    2    0    0 -0.55956922098E-01  0.45326337086E-01  0.45456269789E+01  0.45461973722E+01  0.51109989000E-03 0. -1.
      611    1    1    2    0    0  0.28262725532E-01 -0.15418613694E-01  0.87537131816E+00  0.87596331040E+00  0.51109989000E-03 0.  1.
</event>
<event>
 6   3  0.2312675E+03  0.9118800E+02  0.7818608E-02  0.1180000E+00
       11   -1    0    0    0    0  0.00000000000E+00  0.00000000000E+00  0.54999999763E+01  0.55000000000E+01  0.51109989000E-03 0.  1.
     -623   -1    0    0    0    0  0.00000000000E+00  0.00000000000E+00  0.93234578044E-11  0.17124000000E+03  0.17124000000E+03 0. -1.
       11    1    1    2    0    0 -0.27844014960E-02 -0.52285518397E-01  0.10560930247E+01  0.10573903094E+01  0.51109989000E-03 0.  1.
     -623    1    1    2    0    0  0.14875697759E-01  0.44040597247E-01  0.18715916515E-02  0.17124000632E+03  0.17124000000E+03 0. -1.
     -611    1    1    2    0    0 -0.37411464986E-01  0.20717913900E-01  0.26015372197E+01  0.26018887402E+01  0.51109989000E-03 0. -1.
      611    1    1    2    0    0  0.25320168723E-01 -0.12472992750E-01  0.18404981402E+01  0.18407146307E+01  0.51109989000E-03 0.  1.
</event>
<event>
 6   3  0.2312675E+03  0.9118800E+02  0.7818608E-02  0.1180000E+00
       11   -1    0    0    0    0  0.00000000000E+00  0.00000000000E+00  0.54999999763E+01  0.55000000000E+01  0.51109989000E-03 0. -1.
     -623   -1    0    0    0    0  0.00000000000E+00  0.00000000000E+00  0.93234578044E-11  0.17124000000E+03  0.17124000000E+03 0. -1.
       11    1    1    2    0    0 -0.50090799991E-01  0.12165969796E-01  0.10300478251E+01  0.10313369392E+01  0.51109989000E-03 0. -1.
     -623    1    1    2    0    0 -0.19909390353E-01  0.94700927441E-02  0.19893217648E-02  0.17124000143E+03  0.17124000000E+03 0. -1.
     -611    1    1    2    0    0  0.55325249450E-01 -0.56888173292E-02  0.35921106058E+01  0.35925411774E+01  0.51109989000E-03 0. -1.
      611    1    1    2    0    0  0.14674940894E-01 -0.15947245211E-01  0.87585222366E+00  0.87612045258E+00  0.51109989000E-03 0.  1.
</event>
<event>
 6   3  0.2312675E+03  0.9118800E+02  0.7818608E-02  0.1180000E+00
       11   -1    0    0    0    0  0.00000000000E+00  0.00000000000E+00  0.54999999763E+01  0.55000000000E+01  0.51109989000E-03 0. -1.
     -623   -1    0    0    0    0  0.00000000000E+00  0.00000000000E+00  0.93234578044E-11  0.17124000000E+03  0.17124000000E+03 0. -1.
       11    1    1    2    0    0 -0.21340352785E-02  0.76527753764E-02  0.95740661906E-01  0.96071091609E-01  0.51109989000E-03 0. -1.
     -623    1    1    2    0    0  0.82170674017E-03 -0.24615298182E-02  0.11532126657E-02  0.17124000002E+03  0.17124000000E+03 0. -1.
     -611    1    1    2    0    0 -0.36183069601E-01 -0.30485153488E-01  0.22424012884E+01  0.22429004344E+01  0.51109989000E-03 0. -1.
      611    1    1    2    0    0  0.37495398140E-01  0.25293907930E-01  0.31607048132E+01  0.31610284504E+01  0.51109989000E-03 0.  1.
</event>
<event>
 6   3  0.2312675E+03  0.9118800E+02  0.7818608E-02  0.1180000E+00
       11   -1    0    0    0    0  0.00000000000E+00  0.00000000000E+00  0.54999999763E+01  0.55000000000E+01  0.51109989000E-03 0.  1.
     -623   -1    0    0    0    0  0.00000000000E+00  0.00000000000E+00  0.93234578044E-11  0.17124000000E+03  0.17124000000E+03 0. -1.
       11    1    1    2    0    0 -0.82689891203E-01  0.37345320089E-01  0.79874718619E+00  0.80388408350E+00  0.51109989000E-03 0.  1.
     -623    1    1    2    0    0 -0.90271901526E-02 -0.96804535777E-02  0.61158027650E-02  0.17124000062E+03  0.17124000000E+03 0. -1.
     -611    1    1    2    0    0  0.30630390240E-01 -0.96038138443E-02  0.15067918833E+01  0.15071338676E+01  0.51109989000E-03 0. -1.
      611    1    1    2    0    0  0.61086691106E-01 -0.18061052664E-01  0.31883451035E+01  0.31889814276E+01  0.51109989000E-03 0.  1.
</event>
<event>
 6   3  0.2312675E+03  0.9118800E+02  0.7818608E-02  0.1180000E+00
       11   -1    0    0    0    0  0.00000000000E+00  0.00000000000E+00  0.54999999763E+01  0.55000000000E+01  0.51109989000E-03 0.  1.
     -623   -1    0    0    0    0  0.00000000000E+00  0.00000000000E+00  0.93234578044E-11  0.17124000000E+03  0.17124000000E+03 0. -1.
       11    1    1    2    0    0  0.45326234499E-01 -0.98992331495E-02  0.85883485082E+00  0.86008721915E+00  0.51109989000E-03 0.  1.
     -623    1    1    2    0    0  0.43524559125E-01  0.13826124464E-01  0.21120140980E-02  0.17124000610E+03  0.17124000000E+03 0. -1.
     -611    1    1    2    0    0 -0.37359487149E-01 -0.85845561632E-03  0.20157841802E+01  0.20161305986E+01  0.51109989000E-03 0. -1.
      611    1    1    2    0    0 -0.51491306469E-01 -0.30684356975E-02  0.26232689308E+01  0.26237760793E+01  0.51109989000E-03 0.  1.
</event>
<event>
 6   3  0.2312675E+03  0.9118800E+02  0.7818608E-02  0.1180000E+00
       11   -1    0    0    0    0  0.00000000000E+00  0.00000000000E+00  0.54999999763E+01  0.55000000000E+01  0.51109989000E-03 0.  1.
     -623   -1    0    0    0    0  0.00000000000E+00  0.00000000000E+00  0.93234578044E-11  0.17124000000E+03  0.17124000000E+03 0.  1.
       11    1    1    2    0    0 -0.23199262415E-01  0.39302201344E-02  0.80829551333E+00  0.80863808376E+00  0.51109989000E-03 0.  1.
     -623    1    1    2    0    0 -0.37275438275E-01  0.35249969649E-01  0.90401624831E-03  0.17124000769E+03  0.17124000000E+03 0.  1.
     -611    1    1    2    0    0  0.13494578417E-01 -0.86233729414E-02  0.10798844844E+01  0.10800033459E+01  0.51109989000E-03 0.  1.
      611    1    1    2    0    0  0.46980122249E-01 -0.30556816826E-01  0.36109159604E+01  0.36113508809E+01  0.51109989000E-03 0.  1.
</event>
<event>
 6   3  0.2312675E+03  0.9118800E+02  0.7818608E-02  0.1180000E+00
       11   -1    0    0    0    0  0.00000000000E+00  0.00000000000E+00  0.54999999763E+01  0.55000000000E+01  0.51109989000E-03 0.  1.
     -623   -1    0    0    0    0  0.00000000000E+00  0.00000000000E+00  0.93234578044E-11  0.17124000000E+03  0.17124000000E+03 0.  1.
       11    1    1    2    0    0 -0.16949459876E-01  0.15769803746E-01  0.21404044028E+00  0.21528943820E+00  0.51109989000E-03 0.  1.
     -623    1    1    2    0    0 -0.10283177506E-01  0.12636444040E-02  0.32806212691E-02  0.17124000034E+03  0.17124000000E+03 0.  1.
     -611    1    1    2    0    0 -0.35923213934E-01  0.44523955666E-01  0.24036868679E+01  0.24043676258E+01  0.51109989000E-03 0. -1.
      611    1    1    2    0    0  0.63155851316E-01 -0.61557403817E-01  0.28789920468E+01  0.28803425912E+01  0.51109989000E-03 0.  1.
</event>
<event>
 6   3  0.2312675E+03  0.9118800E+02  0.7818608E-02  0.1180000E+00
       11   -1    0    0    0    0  0.00000000000E+00  0.00000000000E+00  0.54999999763E+01  0.55000000000E+01  0.51109989000E-03 0.  1.
     -623   -1    0    0    0    0  0.00000000000E+00  0.00000000000E+00  0.93234578044E-11  0.17124000000E+03  0.17124000000E+03 0. -1.
       11    1    1    2    0    0  0.11235267324E+00 -0.39656939143E-01  0.68544747558E+00  0.69572573548E+00  0.51109989000E-03 0.  1.
     -623    1    1    2    0    0 -0.43970833705E-01 -0.30772858825E-01  0.11290238035E-01  0.17124000878E+03  0.17124000000E+03 0. -1.
     -611    1    1    2    0    0 -0.45483886571E-01  0.46853993803E-01  0.31736725352E+01  0.31743442949E+01  0.51109989000E-03 0.  1.
      611    1    1    2    0    0 -0.22897952977E-01  0.23575804174E-01  0.16295897280E+01  0.16299211876E+01  0.51109989000E-03 0.  1.
</event>
<event>
 6   3  0.2312675E+03  0.9118800E+02  0.7818608E-02  0.1180000E+00
       11   -1    0    0    0    0  0.00000000000E+00  0.00000000000E+00  0.54999999763E+01  0.55000000000E+01  0.51109989000E-03 0. -1.
     -623   -1    0    0    0    0  0.00000000000E+00  0.00000000000E+00  0.93234578044E-11  0.17124000000E+03  0.17124000000E+03 0.  1.
       11    1    1    2    0    0  0.18622630693E-01  0.12348280695E-01  0.20312981033E+00  0.20435572778E+00  0.51109989000E-03 0. -1.
     -623    1    1    2    0    0 -0.13984701630E-02 -0.75161917739E-02  0.18811728091E-02  0.17124000018E+03  0.17124000000E+03 0.  1.
     -611    1    1    2    0    0 -0.49302046743E-01 -0.95661782311E-02  0.35289339456E+01  0.35292913251E+01  0.51109989000E-03 0. -1.
      611    1    1    2    0    0  0.32077886213E-01  0.47340893101E-02  0.17660550475E+01  0.17663527661E+01  0.51109989000E-03 0.  1.
</event>
<event>
 6   3  0.2312675E+03  0.9118800E+02  0.7818608E-02  0.1180000E+00
       11   -1    0    0    0    0  0.00000000000E+00  0.00000000000E+00  0.54999999763E+01  0.55000000000E+01  0.51109989000E-03 0. -1.
     -623   -1    0    0    0    0  0.00000000000E+00  0.00000000000E+00  0.93234578044E-11  0.17124000000E+03  0.17124000000E+03 0.  1.
       11    1    1    2    0    0  0.62023544642E-02 -0.44950177144E-02  0.46017968552E+00  0.46024371649E+00  0.51109989000E-03 0. -1.
     -623    1    1    2    0    0 -0.63496617641E-01  0.37541277314E-01  0.51411624065E-03  0.17124001589E+03  0.17124000000E+03 0.  1.
     -611    1    1    2    0    0  0.35750028024E-01 -0.20848571038E-01  0.31804074266E+01  0.31806767185E+01  0.51109989000E-03 0. -1.
      611    1    1    2    0    0  0.21544235089E-01 -0.12197688524E-01  0.18588987425E+01  0.18590636712E+01  0.51109989000E-03 0.  1.
</event>
<event>
 6   3  0.2312675E+03  0.9118800E+02  0.7818608E-02  0.1180000E+00
       11   -1    0    0    0    0  0.00000000000E+00  0.00000000000E+00  0.54999999763E+01  0.55000000000E+01  0.51109989000E-03 0.  1.
     -623   -1    0    0    0    0  0.00000000000E+00  0.00000000000E+00  0.93234578044E-11  0.17124000000E+03  0.17124000000E+03 0. -1.
       11    1    1    2    0    0  0.67227809041E-01 -0.19383372455E-01  0.40987925886E+00  0.41580832303E+00  0.51109989000E-03 0.  1.
     -623    1    1    2    0    0  0.84116395691E-02 -0.11522708650E-01  0.65866778258E-02  0.17124000072E+03  0.17124000000E+03 0. -1.
     -611    1    1    2    0    0 -0.59969712654E-01  0.24425244640E-01  0.40557362305E+01  0.40562531469E+01  0.51109989000E-03 0.  1.
      611    1    1    2    0    0 -0.15669735878E-01  0.64808364339E-02  0.10277978038E+01  0.10279378039E+01  0.51109989000E-03 0. -1.
</event>
<event>
 6   3  0.2312675E+03  0.9118800E+02  0.7818608E-02  0.1180000E+00
       11   -1    0    0    0    0  0.00000000000E+00  0.00000000000E+00  0.54999999763E+01  0.55000000000E+01  0.51109989000E-03 0. -1.
     -623   -1    0    0    0    0  0.00000000000E+00  0.00000000000E+00  0.93234578044E-11  0.17124000000E+03  0.17124000000E+03 0. -1.
       11    1    1    2    0    0 -0.95281700719E-03 -0.44747074066E-02  0.22105613840E-01  0.22579863882E-01  0.51109989000E-03 0. -1.
     -623    1    1    2    0    0 -0.13884552475E-02  0.17448588317E-02  0.27116842889E-02  0.17124000004E+03  0.17124000000E+03 0. -1.
     -611    1    1    2    0    0  0.61005878378E-01 -0.39688380723E-01  0.17193534734E+01  0.17208932310E+01  0.51109989000E-03 0.  1.
      611    1    1    2    0    0 -0.58664606123E-01  0.42418229298E-01  0.37558292048E+01  0.37565268692E+01  0.51109989000E-03 0. -1.
</event>
<event>
 6   3  0.2312675E+03  0.9118800E+02  0.7818608E-02  0.1180000E+00
       11   -1    0    0    0    0  0.00000000000E+00  0.00000000000E+00  0.54999999763E+01  0.55000000000E+01  0.51109989000E-03 0.  1.
     -623   -1    0    0    0    0  0.00000000000E+00  0.00000000000E+00  0.93234578044E-11  0.17124000000E+03  0.17124000000E+03 0. -1.
       11    1    1    2    0    0 -0.10526836399E+00 -0.61520520817E-01  0.98592429862E+00  0.99343504406E+00  0.51109989000E-03 0.  1.
     -623    1    1    2    0    0  0.16216162433E-01 -0.96871435972E-02  0.90305383034E-02  0.17124000128E+03  0.17124000000E+03 0. -1.
     -611    1    1    2    0    0  0.57454813418E-01  0.38457553275E-01  0.22601732817E+01  0.22612305419E+01  0.51109989000E-03 0.  1.
      611    1    1    2    0    0  0.31597388138E-01  0.32750111139E-01  0.22448718576E+01  0.22453331341E+01  0.51109989000E-03 0. -1.
</event>
<event>
 6   3  0.2312675E+03  0.9118800E+02  0.7818608E-02  0.1180000E+00
       11   -1    0    0    0    0  0.00000000000E+00  0.00000000000E+00  0.54999999763E+01  0.55000000000E+01  0.51109989000E-03 0.  1.
     -623   -1    0    0    0    0  0.00000000000E+00  0.00000000000E+00  0.93234578044E-11  0.17124000000E+03  0.17124000000E+03 0. -1.
       11    1    1    2    0    0 -0.73218893156E-01  0.54718895943E-01  0.71561223305E+00  0.72142656813E+00  0.51109989000E-03 0.  1.
     -623    1    1    2    0    0  0.35135470311E-01 -0.38722002374E-01  0.66199650395E-02  0.17124000811E+03  0.17124000000E+03 0. -1.
     -611    1    1    2    0    0 -0.16074286881E-01 -0.25017501983E-01  0.11613110879E+01  0.11616918533E+01  0.51109989000E-03 0.  1.
      611    1    1    2    0    0  0.54157709726E-01  0.90206084142E-02  0.36164566903E+01  0.36168734679E+01  0.51109989000E-03 0. -1.
</event>
<event>
 6   3  0.2312675E+03  0.9118800E+02  0.7818608E-02  0.1180000E+00
       11   -1    0    0    0    0  0.00000000000E+00  0.00000000000E+00  0.54999999763E+01  0.55000000000E+01  0.51109989000E-03 0.  1.
     -623   -1    0    0    0    0  0.00000000000E+00  0.00000000000E+00  0.93234578044E-11  0.17124000000E+03  0.17124000000E+03 0. -1.
       11    1    1    2    0    0 -0.79046626625E-02  0.18045449887E-01  0.59332656903E-01  0.62519975622E-01  0.51109989000E-03 0.  1.
     -623    1    1    2    0    0  0.92834966975E-01  0.18895723090E-01  0.40025729001E-02  0.17124002625E+03  0.17124000000E+03 0. -1.
     -611    1    1    2    0    0 -0.60515932940E-01 -0.26331972552E-01  0.38983950253E+01  0.38989536526E+01  0.51109989000E-03 0.  1.
      611    1    1    2    0    0 -0.24414371344E-01 -0.10609200413E-01  0.15382697194E+01  0.15385001162E+01  0.51109989000E-03 0.  1.
</event>
<event>
 6   3  0.2312675E+03  0.9118800E+02  0.7818608E-02  0.1180000E+00
       11   -1    0    0    0    0  0.00000000000E+00  0.00000000000E+00  0.54999999763E+01  0.55000000000E+01  0.51109989000E-03 0.  1.
     -623   -1    0    0    0    0  0.00000000000E+00  0.00000000000E+00  0.93234578044E-11  0.17124000000E+03  0.17124000000E+03 0.  1.
       11    1    1    2    0    0  0.30471981738E-01  0.28589067863E-02  0.10210354435E+01  0.10214941767E+01  0.51109989000E-03 0.  1.
     -623    1    1    2    0    0  0.19053945562E-01  0.82740721428E-02  0.74800955290E-03  0.17124000126E+03  0.17124000000E+03 0.  1.
     -611    1    1    2    0    0 -0.17175081264E-01 -0.41606620813E-02  0.16126091734E+01  0.16127060804E+01  0.51109989000E-03 0. -1.
      611    1    1    2    0    0 -0.32350846032E-01 -0.69723168470E-02  0.28656073495E+01  0.28657984809E+01  0.51109989000E-03 0.  1.
</event>
<event>
 6   3  0.2312675E+03  0.9118800E+02  0.7818608E-02  0.1180000E+00
       11   -1    0    0    0    0  0.00000000000E+00  0.00000000000E+00  0.54999999763E+01  0.55000000000E+01  0.51109989000E-03 0.  1.
     -623   -1    0    0    0    0  0.00000000000E+00  0.00000000000E+00  0.93234578044E-11  0.17124000000E+03  0.17124000000E+03 0.  1.
       11    1    1    2    0    0 -0.85052354689E-01 -0.48753527444E-01  0.27282415026E+00  0.28990358339E+00  0.51109989000E-03 0.  1.
     -623    1    1    2    0    0  0.53541411988E-01 -0.81301748283E-02  0.22177040005E-01  0.17124001000E+03  0.17124000000E+03 0.  1.
     -611    1    1    2    0    0 -0.56022742134E-01  0.10632597469E+00  0.20785123624E+01  0.20819840687E+01  0.51109989000E-03 0.  1.
      611    1    1    2    0    0  0.87533684835E-01 -0.49442272416E-01  0.31264864236E+01  0.31281023485E+01  0.51109989000E-03 0. -1.
</event>
<event>
 6   3  0.2312675E+03  0.9118800E+02  0.7818608E-02  0.1180000E+00
       11   -1    0    0    0    0  0.00000000000E+00  0.00000000000E+00  0.54999999763E+01  0.55000000000E+01  0.51109989000E-03 0. -1.
     -623   -1    0    0    0    0  0.00000000000E+00  0.00000000000E+00  0.93234578044E-11  0.17124000000E+03  0.17124000000E+03 0.  1.
       11    1    1    2    0    0  0.20260819760E-02 -0.57983129973E-02  0.22348050836E-01  0.23182364872E-01  0.51109989000E-03 0. -1.
     -623    1    1    2    0    0 -0.96867978110E-02 -0.12127620520E-02  0.13368370275E-02  0.17124000028E+03  0.17124000000E+03 0.  1.
     -611    1    1    2    0    0 -0.27360286194E-01 -0.16521288017E-01  0.23171032939E+01  0.23173237741E+01  0.51109989000E-03 0. -1.
      611    1    1    2    0    0  0.35021002029E-01  0.23532363067E-01  0.31592117945E+01  0.31594935775E+01  0.51109989000E-03 0. -1.
</event>
<event>
 6   3  0.2312675E+03  0.9118800E+02  0.7818608E-02  0.1180000E+00
       11   -1    0    0    0    0  0.00000000000E+00  0.00000000000E+00  0.54999999763E+01  0.55000000000E+01  0.51109989000E-03 0. -1.
     -623   -1    0    0    0    0  0.00000000000E+00  0.00000000000E+00  0.93234578044E-11  0.17124000000E+03  0.17124000000E+03 0. -1.
       11    1    1    2    0    0 -0.21788993173E-01 -0.94069828236E-02  0.56355347669E+00  0.56405321900E+00  0.51109989000E-03 0. -1.
     -623    1    1    2    0    0 -0.91870705260E-02  0.94619085589E-03  0.94973047587E-03  0.17124000025E+03  0.17124000000E+03 0. -1.
     -611    1    1    2    0    0  0.44179790605E-01 -0.31443465831E-03  0.43813669096E+01  0.43815896899E+01  0.51109989000E-03 0. -1.
      611    1    1    2    0    0 -0.13203726906E-01  0.87752266260E-02  0.55412985941E+00  0.55435683933E+00  0.51109989000E-03 0.  1.
</event>
<event>
 6   3  0.2312675E+03  0.9118800E+02  0.7818608E-02  0.1180000E+00
       11   -1    0    0    0    0  0.00000000000E+00  0.00000000000E+00  0.54999999763E+01  0.55000000000E+01  0.51109989000E-03 0.  1.
     -623   -1    0    0    0    0  0.00000000000E+00  0.00000000000E+00  0.93234578044E-11  0.17124000000E+03  0.17124000000E+03 0.  1.
       11    1    1    2    0    0  0.55159376866E-01 -0.17162287877E-01  0.38192902082E+00  0.38627339948E+00  0.51109989000E-03 0.  1.
     -623    1    1    2    0    0  0.69499032917E-02  0.25785391757E-02  0.53604497832E-02  0.17124000024E+03  0.17124000000E+03 0.  1.
     -611    1    1    2    0    0 -0.79788729372E-01  0.47461797186E-02  0.36448982165E+01  0.36457745456E+01  0.51109989000E-03 0.  1.
      611    1    1    2    0    0  0.17679449214E-01  0.98375689827E-02  0.14678122892E+01  0.14679518106E+01  0.51109989000E-03 0. -1.
</event>
<event>
 6   3  0.2312675E+03  0.9118800E+02  0.7818608E-02  0.1180000E+00
       11   -1    0    0    0    0  0.00000000000E+00  0.00000000000E+00  0.54999999763E+01  0.55000000000E+01  0.51109989000E-03 0.  1.
     -623   -1    0    0    0    0  0.00000000000E+00  0.00000000000E+00  0.93234578044E-11  0.17124000000E+03  0.17124000000E+03 0.  1.
       11    1    1    2    0    0 -0.67221490402E-01  0.16372878660E+00  0.58161424614E+00  0.60794838339E+00  0.51109989000E-03 0.  1.
     -623    1    1    2    0    0 -0.32216162646E-01  0.14803860928E-01  0.30612604352E-01  0.17124000641E+03  0.17124000000E+03 0.  1.
     -611    1    1    2    0    0  0.32008591827E-01 -0.55637308555E-01  0.15763820442E+01  0.15776883946E+01  0.51109989000E-03 0.  1.
      611    1    1    2    0    0  0.67429061235E-01 -0.12289533900E+00  0.33113910823E+01  0.33143568160E+01  0.51109989000E-03 0.  1.
</event>
<event>
 6   3  0.2312675E+03  0.9118800E+02  0.7818608E-02  0.1180000E+00
       11   -1    0    0    0    0  0.00000000000E+00  0.00000000000E+00  0.54999999763E+01  0.55000000000E+01  0.51109989000E-03 0. -1.
     -623   -1    0    0    0    0  0.00000000000E+00  0.00000000000E+00  0.93234578044E-11  0.17124000000E+03  0.17124000000E+03 0. -1.
       11    1    1    2    0    0 -0.23537329104E-01  0.17991672354E-01  0.10646644370E+00  0.11051276394E+00  0.51109989000E-03 0. -1.
     -623    1    1    2    0    0 -0.28989058566E-02  0.20410905840E-02  0.47189252686E-02  0.17124000010E+03  0.17124000000E+03 0. -1.
     -611    1    1    2    0    0  0.44794376909E-01  0.33979636893E-02  0.43876571578E+01  0.43878871541E+01  0.51109989000E-03 0. -1.
      611    1    1    2    0    0 -0.18358141949E-01 -0.23430726627E-01  0.10011574495E+01  0.10015999802E+01  0.51109989000E-03 0.  1.
</event>
<event>
 6   3  0.3091097E+03  0.9118800E+02  0.7818608E-02  0.1180000E+00
       11   -1    0    0    0    0  0.00000000000E+00  0.00000000000E+00  0.54999999763E+01  0.55000000000E+01  0.51109989000E-03 0. -1.
     -623   -1    0    0    0    0  0.00000000000E+00  0.00000000000E+00  0.93234578044E-11  0.17124000000E+03  0.17124000000E+03 0. -1.
       11    1    1    2    0    0  0.68525823324E-02  0.28355328848E-02  0.80948624098E-03  0.74776080691E-02  0.51109989000E-03 0. -1.
     -623    1    1    2    0    0 -0.32308467118E-02 -0.40554972633E-02  0.14079558467E-01  0.17124000066E+03  0.17124000000E+03 0. -1.
     -611    1    1    2    0    0  0.59488334103E-01 -0.11431511567E+00  0.16001427355E+01  0.16053235944E+01  0.51109989000E-03 0.  1.
      611    1    1    2    0    0 -0.63110069724E-01  0.11553508005E+00  0.38849681960E+01  0.38871981402E+01  0.51109989000E-03 0. -1.
</event>
<event>
 6   3  0.2312675E+03  0.9118800E+02  0.7818608E-02  0.1180000E+00
       11   -1    0    0    0    0  0.00000000000E+00  0.00000000000E+00  0.54999999763E+01  0.55000000000E+01  0.51109989000E-03 0.  1.
     -623   -1    0    0    0    0  0.00000000000E+00  0.00000000000E+00  0.93234578044E-11  0.17124000000E+03  0.17124000000E+03 0.  1.
       11    1    1    2    0    0 -0.10460236653E-01 -0.10110226044E-01  0.14937200273E-01  0.20856998744E-01  0.51109989000E-03 0.  1.
     -623    1    1    2    0    0  0.18202598259E-01  0.11996364891E-01  0.71738088340E-02  0.17124000154E+03  0.17124000000E+03 0.  1.
     -611    1    1    2    0    0  0.31720072095E-01 -0.46851073283E-01  0.29705455067E+01  0.29710843230E+01  0.51109989000E-03 0. -1.
      611    1    1    2    0    0 -0.39462433701E-01  0.44964934436E-01  0.25073434605E+01  0.25080571403E+01  0.51109989000E-03 0.  1.
</event>
<event>
 6   3  0.2312675E+03  0.9118800E+02  0.7818608E-02  0.1180000E+00
       11   -1    0    0    0    0  0.00000000000E+00  0.00000000000E+00  0.54999999763E+01  0.55000000000E+01  0.51109989000E-03 0.  1.
     -623   -1    0    0    0    0  0.00000000000E+00  0.00000000000E+00  0.93234578044E-11  0.17124000000E+03  0.17124000000E+03 0. -1.
       11    1    1    2    0    0  0.14236203940E-01 -0.26085418564E-01  0.16301310641E+00  0.16570049079E+00  0.51109989000E-03 0.  1.
     -623    1    1    2    0    0 -0.13474026435E-01  0.28607865297E-01  0.34062688081E-02  0.17124000295E+03  0.17124000000E+03 0. -1.
     -611    1    1    2    0    0  0.39522424191E-01 -0.19014113468E-01  0.26802600881E+01  0.26806189508E+01  0.51109989000E-03 0. -1.
      611    1    1    2    0    0 -0.40284601695E-01  0.16491666734E-01  0.26533205130E+01  0.26536776048E+01  0.51109989000E-03 0.  1.
</event>
<event>
 6   3  0.2312675E+03  0.9118800E+02  0.7818608E-02  0.1180000E+00
       11   -1    0    0    0    0  0.00000000000E+00  0.00000000000E+00  0.54999999763E+01  0.55000000000E+01  0.51109989000E-03 0.  1.
     -623   -1    0    0    0    0  0.00000000000E+00  0.00000000000E+00  0.93234578044E-11  0.17124000000E+03  0.17124000000E+03 0.  1.
       11    1    1    2    0    0  0.40395561133E-01  0.14710954754E-01  0.60583114208E+00  0.60735479539E+00  0.51109989000E-03 0.  1.
     -623    1    1    2    0    0  0.16477569704E-01  0.26144760740E-01  0.21219838333E-02  0.17124000280E+03  0.17124000000E+03 0.  1.
     -611    1    1    2    0    0 -0.13267541815E-01 -0.16067254841E-01  0.74287964270E+00  0.74317199161E+00  0.51109989000E-03 0. -1.
      611    1    1    2    0    0 -0.43605589022E-01 -0.24788460652E-01  0.41491672076E+01  0.41494704112E+01  0.51109989000E-03 0.  1.
</event>
<event>
 6   3  0.2312675E+03  0.9118800E+02  0.7818608E-02  0.1180000E+00
       11   -1    0    0    0    0  0.00000000000E+00  0.00000000000E+00  0.54999999763E+01  0.55000000000E+01  0.51109989000E-03 0.  1.
     -623   -1    0    0    0    0  0.00000000000E+00  0.00000000000E+00  0.93234578044E-11  0.17124000000E+03  0.17124000000E+03 0. -1.
       11    1    1    2    0    0  0.30587474911E-02  0.97543552626E-02  0.95464626720E+00  0.95470113653E+00  0.51109989000E-03 0.  1.
     -623    1    1    2    0    0 -0.58657750225E-01  0.25730358202E-01  0.54571238661E-03  0.17124001198E+03  0.17124000000E+03 0. -1.
     -611    1    1    2    0    0  0.13893910851E-01 -0.83081005681E-02  0.11249330569E+01  0.11250496473E+01  0.51109989000E-03 0. -1.
      611    1    1    2    0    0  0.41705091901E-01 -0.27176612909E-01  0.34198749413E+01  0.34202372371E+01  0.51109989000E-03 0.  1.
</event>
<event>
 6   3  0.2312675E+03  0.9118800E+02  0.7818608E-02  0.1180000E+00
       11   -1    0    0    0    0  0.00000000000E+00  0.00000000000E+00  0.54999999763E+01  0.55000000000E+01  0.51109989000E-03 0.  1.
     -623   -1    0    0    0    0  0.00000000000E+00  0.00000000000E+00  0.93234578044E-11  0.17124000000E+03  0.17124000000E+03 0. -1.
       11    1    1    2    0    0  0.39193402834E-02  0.23912360393E-04  0.65961421959E+00  0.65962606203E+00  0.51109989000E-03 0.  1.
     -623    1    1    2    0    0 -0.73249475614E-01  0.28419210521E-01  0.61111066626E-03  0.17124001803E+03  0.17124000000E+03 0. -1.
     -611    1    1    2    0    0  0.11010472814E-01 -0.51368929689E-02  0.84866395619E+00  0.84875107655E+00  0.51109989000E-03 0.  1.
      611    1    1    2    0    0  0.58319662565E-01 -0.23306229930E-01  0.39911106935E+01  0.39916048392E+01  0.51109989000E-03 0.  1.
</event>
<event>
 6   3  0.2312675E+03  0.9118800E+02  0.7818608E-02  0.1180000E+00
       11   -1    0    0    0    0  0.00000000000E+00  0.00000000000E+00  0.54999999763E+01  0.55000000000E+01  0.51109989000E-03 0. -1.
     -623   -1    0    0    0    0  0.00000000000E+00  0.00000000000E+00  0.93234578044E-11  0.17124000000E+03  0.17124000000E+03 0.  1.
       11    1    1    2    0    0  0.18269548609E-01  0.31033430819E-02  0.94506559686E+00  0.94524740186E+00  0.51109989000E-03 0. -1.
     -623    1    1    2    0    0 -0.11790120829E-01  0.10001810369E-01  0.77859364429E-03  0.17124000070E+03  0.17124000000E+03 0.  1.
     -611    1    1    2    0    0 -0.34823643350E-01  0.18966598781E-02  0.33063762706E+01  0.33065602350E+01  0.51109989000E-03 0. -1.
      611    1    1    2    0    0  0.28344215570E-01 -0.15001813329E-01  0.12477795152E+01  0.12481916635E+01  0.51109989000E-03 0.  1.
</event>
<event>
 6   3  0.2312675E+03  0.9118800E+02  0.7818608E-02  0.1180000E+00
       11   -1    0    0    0    0  0.00000000000E+00  0.00000000000E+00  0.54999999763E+01  0.55000000000E+01  0.51109989000E-03 0. -1.
     -623   -1    0    0    0    0  0.00000000000E+00  0.00000000000E+00  0.93234578044E-11  0.17124000000E+03  0.17124000000E+03 0. -1.
       11    1    1    2    0    0 -0.23950302209E-02 -0.24118652787E-02  0.27816226288E-01  0.28027788566E-01  0.51109989000E-03 0. -1.
     -623    1    1    2    0    0  0.38580588940E-04  0.44000192888E-02  0.10313045833E-02  0.17124000006E+03  0.17124000000E+03 0. -1.
     -611    1    1    2    0    0 -0.40675390894E-01  0.19631782223E-01  0.21848877850E+01  0.21853546139E+01  0.51109989000E-03 0.  1.
      611    1    1    2    0    0  0.43031840526E-01 -0.21619936233E-01  0.32862646604E+01  0.32866175379E+01  0.51109989000E-03 0. -1.
</event>
<event>
 6   3  0.2312675E+03  0.9118800E+02  0.7818608E-02  0.1180000E+00
       11   -1    0    0    0    0  0.00000000000E+00  0.00000000000E+00  0.54999999763E+01  0.55000000000E+01  0.51109989000E-03 0.  1.
     -623   -1    0    0    0    0  0.00000000000E+00  0.00000000000E+00  0.93234578044E-11  0.17124000000E+03  0.17124000000E+03 0. -1.
       11    1    1    2    0    0  0.60698656478E-01  0.15558365337E-01  0.54210836016E+00  0.54571799036E+00  0.51109989000E-03 0.  1.
     -623    1    1    2    0    0  0.96287824618E-04 -0.91332171754E-02  0.39898218555E-02  0.17124000029E+03  0.17124000000E+03 0. -1.
     -611    1    1    2    0    0 -0.44913190297E-01 -0.24939667217E-02  0.36368107457E+01  0.36370889562E+01  0.51109989000E-03 0.  1.
      611    1    1    2    0    0 -0.15881754011E-01 -0.39311814401E-02  0.13170910490E+01  0.13171927637E+01  0.51109989000E-03 0. -1.
</event>
<event>
 6   3  0.2312675E+03  0.9118800E+02  0.7818608E-02  0.1180000E+00
       11   -1    0    0    0    0  0.00000000000E+00  0.00000000000E+00  0.54999999763E+01  0.55000000000E+01  0.51109989000E-03 0.  1.
     -623   -1    0    0    0    0  0.00000000000E+00  0.00000000000E+00  0.93234578044E-11  0.17124000000E+03  0.17124000000E+03 0.  1.
       11    1    1    2    0    0  0.61909622717E-01  0.12272216003E-01  0.60462939800E+00  0.60791477924E+00  0.51109989000E-03 0.  1.
     -623    1    1    2    0    0 -0.66019042172E-02 -0.19476491425E-02  0.36277783527E-02  0.17124000018E+03  0.17124000000E+03 0.  1.
     -611    1    1    2    0    0 -0.42359561398E-01 -0.12236138384E-01  0.40548693340E+01  0.40551090778E+01  0.51109989000E-03 0.  1.
      611    1    1    2    0    0 -0.12948157101E-01  0.19115715237E-02  0.83687346582E+00  0.83697596614E+00  0.51109989000E-03 0. -1.
</event>
<event>
 6   3  0.2312675E+03  0.9118800E+02  0.7818608E-02  0.1180000E+00
       11   -1    0    0    0    0  0.00000000000E+00  0.00000000000E+00  0.54999999763E+01  0.55000000000E+01  0.51109989000E-03 0.  1.
     -623   -1    0    0    0    0  0.00000000000E+00  0.00000000000E+00  0.93234578044E-11  0.17124000000E+03  0.17124000000E+03 0. -1.
       11    1    1    2    0    0  0.47266534786E-02 -0.42388696415E-02  0.30372195989E+00  0.30378874141E+00  0.51109989000E-03 0.  1.
     -623    1    1    2    0    0 -0.61205328730E-01 -0.51192721148E-02  0.39370051724E-03  0.17124001102E+03  0.17124000000E+03 0. -1.
     -611    1    1    2    0    0  0.30536326585E-01  0.59893365612E-02  0.27713914720E+01  0.27715662164E+01  0.51109989000E-03 0.  1.
      611    1    1    2    0    0  0.25942348706E-01  0.33688051969E-02  0.24244928473E+01  0.24246340306E+01  0.51109989000E-03 0.  1.
</event>
<event>
 6   3  0.2312675E+03  0.9118800E+02  0.7818608E-02  0.1180000E+00
       11   -1    0    0    0    0  0.00000000000E+00  0.00000000000E+00  0.54999999763E+01  0.55000000000E+01  0.51109989000E-03 0.  1.
     -623   -1    0    0    0    0  0.00000000000E+00  0.00000000000E+00  0.93234578044E-11  0.17124000000E+03  0.17124000000E+03 0. -1.
       11    1    1    2    0    0  0.65314088446E-01 -0.12766396285E-02  0.84351892950E+00  0.84604491937E+00  0.51109989000E-03 0.  1.
     -623    1    1    2    0    0  0.59944547747E-03 -0.33318241031E-02  0.30710321449E-02  0.17124000006E+03  0.17124000000E+03 0. -1.
     -611    1    1    2    0    0 -0.14541901325E-01 -0.36677452942E-02  0.51707396450E+00  0.51729166361E+00  0.51109989000E-03 0.  1.
      611    1    1    2    0    0 -0.51371632598E-01  0.82762090258E-02  0.41363360501E+01  0.41366633560E+01  0.51109989000E-03 0. -1.
</event>
<event>
 6   3  0.2312675E+03  0.9118800E+02  0.7818608E-02  0.1180000E+00
       11   -1    0    0    0    0  0.00000000000E+00  0.00000000000E+00  0.54999999763E+01  0.55000000000E+01  0.51109989000E-03 0.  1.
     -623   -1    0    0    0    0  0.00000000000E+00  0.00000000000E+00  0.93234578044E-11  0.17124000000E+03  0.17124000000E+03 0. -1.
       11    1    1    2    0    0 -0.74673936605E-02  0.71173912342E-02  0.14833734008E+00  0.14869649260E+00  0.51109989000E-03 0.  1.
     -623    1    1    2    0    0  0.56766019984E-02  0.14426550276E-02  0.12061061034E-02  0.17124000010E+03  0.17124000000E+03 0. -1.
     -611    1    1    2    0    0  0.41613562509E-01  0.16772177406E-01  0.19315657905E+01  0.19320868663E+01  0.51109989000E-03 0. -1.
      611    1    1    2    0    0 -0.39822770847E-01 -0.25332223668E-01  0.34188907395E+01  0.34192165366E+01  0.51109989000E-03 0.  1.
</event>
<event>
 6   3  0.2312675E+03  0.9118800E+02  0.7818608E-02  0.1180000E+00
       11   -1    0    0    0    0  0.00000000000E+00  0.00000000000E+00  0.54999999763E+01  0.55000000000E+01  0.51109989000E-03 0. -1.
     -623   -1    0    0    0    0  0.00000000000E+00  0.00000000000E+00  0.93234578044E-11  0.17124000000E+03  0.17124000000E+03 0. -1.
       11    1    1    2    0    0  0.35066348990E-01  0.27421048052E-01  0.30848811927E+00  0.31168372377E+00  0.51109989000E-03 0. -1.
     -623    1    1    2    0    0 -0.52699767296E-01 -0.25133057193E-01  0.10227868506E-01  0.17124001026E+03  0.17124000000E+03 0. -1.
     -611    1    1    2    0    0  0.10062206643E+00  0.36722092367E-01  0.44507861818E+01  0.44520749331E+01  0.51109989000E-03 0. -1.
      611    1    1    2    0    0 -0.82988648123E-01 -0.39010083226E-01  0.73049780665E+00  0.73623108400E+00  0.51109989000E-03 0.  1.
</event>
<event>
 6   3  0.2312675E+03  0.9118800E+02  0.7818608E-02  0.1180000E+00
       11   -1    0    0    0    0  0.00000000000E+00  0.00000000000E+00  0.54999999763E+01  0.55000000000E+01  0.51109989000E-03 0. -1.
     -623   -1    0    0    0    0  0.00000000000E+00  0.00000000000E+00  0.93234578044E-11  0.17124000000E+03  0.17124000000E+03 0. -1.
       11    1    1    2    0    0 -0.50337022030E-01 -0.15521548786E-02  0.35657937568E+00  0.36011850460E+00  0.51109989000E-03 0. -1.
     -623    1    1    2    0    0 -0.36413103219E-02 -0.95560299844E-02  0.38350764406E-02  0.17124000035E+03  0.17124000000E+03 0. -1.
     -611    1    1    2    0    0  0.11344735083E-01  0.22688501352E-02  0.10630808293E+01  0.10631439044E+01  0.51109989000E-03 0. -1.
      611    1    1    2    0    0  0.42633597362E-01  0.88393347470E-02  0.40765047037E+01  0.40767372515E+01  0.51109989000E-03 0. -1.
</event>
<event>
 6   3  0.2312675E+03  0.9118800E+02  0.7818608E-02  0.1180000E+00
       11   -1    0    0    0    0  0.00000000000E+00  0.00000000000E+00  0.54999999763E+01  0.55000000000E+01  0.51109989000E-03 0.  1.
     -623   -1    0    0    0    0  0.00000000000E+00  0.00000000000E+00  0.93234578044E-11  0.17124000000E+03  0.17124000000E+03 0.  1.
       11    1    1    2    0    0 -0.58955580223E-01  0.60508978017E-01  0.70744799897E+00  0.71247458153E+00  0.51109989000E-03 0.  1.
     -623    1    1    2    0    0 -0.10933944025E-02 -0.87204718343E-02  0.56958335196E-02  0.17124000032E+03  0.17124000000E+03 0.  1.
     -611    1    1    2    0    0  0.19982800234E-01 -0.22158992899E-01  0.15807472311E+01  0.15810289065E+01  0.51109989000E-03 0. -1.
      611    1    1    2    0    0  0.40066174392E-01 -0.29629513283E-01  0.32061089127E+01  0.32064961917E+01  0.51109989000E-03 0.  1.
</event>
<event>
 6   3  0.2312675E+03  0.9118800E+02  0.7818608E-02  0.1180000E+00
       11   -1    0    0    0    0  0.00000000000E+00  0.00000000000E+00  0.54999999763E+01  0.55000000000E+01  0.51109989000E-03 0. -1.
     -623   -1    0    0    0    0  0.00000000000E+00  0.00000000000E+00  0.93234578044E-11  0.17124000000E+03  0.17124000000E+03 0.  1.
       11    1    1    2    0    0  0.11172264910E-01 -0.26737206182E-01  0.94841796109E+00  0.94886067884E+00  0.51109989000E-03 0. -1.
     -623    1    1    2    0    0  0.34905139988E-01  0.17733857166E-01  0.68945851101E-03  0.17124000448E+03  0.17124000000E+03 0.  1.
     -611    1    1    2    0    0 -0.28074285608E-01  0.55253146934E-02  0.27675277203E+01  0.27676756744E+01  0.51109989000E-03 0. -1.
      611    1    1    2    0    0 -0.18003119225E-01  0.34780343105E-02  0.17833648299E+01  0.17834591632E+01  0.51109989000E-03 0. -1.
</event>
<event>
 6   3  0.2312675E+03  0.9118800E+02  0.7818608E-02  0.1180000E+00
       11   -1    0    0    0    0  0.00000000000E+00  0.00000000000E+00  0.54999999763E+01  0.55000000000E+01  0.51109989000E-03 0.  1.
     -623   -1    0    0    0    0  0.00000000000E+00  0.00000000000E+00  0.93234578044E-11  0.17124000000E+03  0.17124000000E+03 0.  1.
       11    1    1    2    0    0 -0.54000448149E-03  0.15886240862E-01  0.14916032578E-01  0.21803979098E-01  0.51109989000E-03 0.  1.
     -623    1    1    2    0    0 -0.45643452838E-02 -0.11884164455E-01  0.99481036925E-02  0.17124000076E+03  0.17124000000E+03 0.  1.
     -611    1    1    2    0    0  0.42469199449E-01  0.77091342278E-01  0.34004586006E+01  0.34015975164E+01  0.51109989000E-03 0.  1.
      611    1    1    2    0    0 -0.37364849684E-01 -0.81093418685E-01  0.20746772394E+01  0.20765977423E+01  0.51109989000E-03 0. -1.
</event>
<event>
 6   3  0.2312675E+03  0.9118800E+02  0.7818608E-02  0.1180000E+00
       11   -1    0    0    0    0  0.00000000000E+00  0.00000000000E+00  0.54999999763E+01  0.55000000000E+01  0.51109989000E-03 0. -1.
     -623   -1    0    0    0    0  0.00000000000E+00  0.00000000000E+00  0.93234578044E-11  0.17124000000E+03  0.17124000000E+03 0. -1.
       11    1    1    2    0    0 -0.21817902780E-02  0.33256695019E-02  0.55154441745E+00  0.55155899588E+00  0.51109989000E-03 0. -1.
     -623    1    1    2    0    0  0.62305734094E-01  0.27101946871E-01  0.48721491171E-03  0.17124001348E+03  0.17124000000E+03 0. -1.
     -611    1    1    2    0    0 -0.21191955962E-01 -0.10110539597E-01  0.16888468622E+01  0.16890101561E+01  0.51109989000E-03 0.  1.
      611    1    1    2    0    0 -0.38931987905E-01 -0.20317076799E-01  0.32591214861E+01  0.32594173721E+01  0.51109989000E-03 0. -1.
</event>
<event>
 6   3  0.2312675E+03  0.9118800E+02  0.7818608E-02  0.1180000E+00
       11   -1    0    0    0    0  0.00000000000E+00  0.00000000000E+00  0.54999999763E+01  0.55000000000E+01  0.51109989000E-03 0. -1.
     -623   -1    0    0    0    0  0.00000000000E+00  0.00000000000E+00  0.93234578044E-11  0.17124000000E+03  0.17124000000E+03 0. -1.
       11    1    1    2    0    0  0.19595057434E-01 -0.71957984494E-02  0.72227643705E+00  0.72257820237E+00  0.51109989000E-03 0. -1.
     -623    1    1    2    0    0 -0.34403338857E-02  0.38343942578E-02  0.75614394844E-03  0.17124000008E+03  0.17124000000E+03 0. -1.
     -611    1    1    2    0    0 -0.39675402282E-01 -0.30442768818E-03  0.35622519559E+01  0.35624729457E+01  0.51109989000E-03 0. -1.
      611    1    1    2    0    0  0.23520678734E-01  0.36658318798E-02  0.12147154394E+01  0.12149487728E+01  0.51109989000E-03 0.  1.
</event>
<event>
 6   3  0.2312675E+03  0.9118800E+02  0.7818608E-02  0.1180000E+00
       11   -1    0    0    0    0  0.00000000000E+00  0.00000000000E+00  0.54999999763E+01  0.55000000000E+01  0.51109989000E-03 0. -1.
     -623   -1    0    0    0    0  0.00000000000E+00  0.00000000000E+00  0.93234578044E-11  0.17124000000E+03  0.17124000000E+03 0.  1.
       11    1    1    2    0    0 -0.12170740340E-01 -0.96742643807E-02  0.69389003081E+00  0.69406437338E+00  0.51109989000E-03 0. -1.
     -623    1    1    2    0    0  0.35264549701E-02  0.93740186175E-02  0.80577278718E-03  0.17124000029E+03  0.17124000000E+03 0.  1.
     -611    1    1    2    0    0  0.41085049945E-01  0.41767398715E-02  0.19081279348E+01  0.19085748356E+01  0.51109989000E-03 0.  1.
      611    1    1    2    0    0 -0.32440764575E-01 -0.38764941086E-02  0.28971762381E+01  0.28973604964E+01  0.51109989000E-03 0. -1.
</event>
<event>
 6   3  0.2312675E+03  0.9118800E+02  0.7818608E-02  0.1180000E+00
       11   -1    0    0    0    0  0.00000000000E+00  0.00000000000E+00  0.54999999763E+01  0.55000000000E+01  0.51109989000E-03 0.  1.
     -623   -1    0    0    0    0  0.00000000000E+00  0.00000000000E+00  0.93234578044E-11  0.17124000000E+03  0.17124000000E+03 0. -1.
       11    1    1    2    0    0  0.10245095544E+00 -0.51726827313E-02  0.74267626102E+00  0.74972744702E+00  0.51109989000E-03 0.  1.
     -623    1    1    2    0    0 -0.18825535965E-01  0.51027955788E-01  0.80224890581E-02  0.17124000883E+03  0.17124000000E+03 0. -1.
     -611    1    1    2    0    0 -0.49244284489E-01 -0.24065904946E-01  0.28323316888E+01  0.28328620199E+01  0.51109989000E-03 0.  1.
      611    1    1    2    0    0 -0.34381134978E-01 -0.21789368109E-01  0.19169695372E+01  0.19174017072E+01  0.51109989000E-03 0.  1.
</event>
<event>
 6   3  0.2312675E+03  0.9118800E+02  0.7818608E-02  0.1180000E+00
       11   -1    0    0    0    0  0.00000000000E+00  0.00000000000E+00  0.54999999763E+01  0.55000000000E+01  0.51109989000E-03 0.  1.
     -623   -1    0    0    0    0  0.00000000000E+00  0.00000000000E+00  0.93234578044E-11  0.17124000000E+03  0.17124000000E+03 0.  1.
       11    1    1    2    0    0 -0.50352694588E-01  0.17636719886E-01  0.68061531096E+00  0.68270338396E+00  0.51109989000E-03 0.  1.
     -623    1    1    2    0    0 -0.26433812097E-02 -0.10450626894E-01  0.23920201835E-02  0.17124000036E+03  0.17124000000E+03 0.  1.
     -611    1    1    2    0    0  0.37359188469E-01 -0.39981127654E-02  0.36728653935E+01  0.36730576029E+01  0.51109989000E-03 0. -1.
      611    1    1    2    0    0  0.15636887329E-01 -0.31879802260E-02  0.11441272517E+01  0.11442386573E+01  0.51109989000E-03 0.  1.
</event>
<event>
 6   3  0.2312675E+03  0.9118800E+02  0.7818608E-02  0.1180000E+00
       11   -1    0    0    0    0  0.00000000000E+00  0.00000000000E+00  0.54999999763E+01  0.55000000000E+01  0.51109989000E-03 0.  1.
     -623   -1    0    0    0    0  0.00000000000E+00  0.00000000000E+00  0.93234578044E-11  0.17124000000E+03  0.17124000000E+03 0.  1.
       11    1    1    2    0    0 -0.36432396479E-01  0.17559202297E-01  0.57035873325E+00  0.57179103781E+00  0.51109989000E-03 0.  1.
     -623    1    1    2    0    0 -0.17291621839E-01 -0.11699587887E-01  0.17301588203E-02  0.17124000128E+03  0.17124000000E+03 0.  1.
     -611    1    1    2    0    0  0.35876652357E-01 -0.42816462364E-02  0.33344468308E+01  0.33346426189E+01  0.51109989000E-03 0.  1.
      611    1    1    2    0    0  0.17847365904E-01 -0.15779681666E-02  0.15934642480E+01  0.15935650565E+01  0.51109989000E-03 0.  1.
</event>
<event>
 6   3  0.2312675E+03  0.9118800E+02  0.7818608E-02  0.1180000E+00
       11   -1    0    0    0    0  0.00000000000E+00  0.00000000000E+00  0.54999999763E+01  0.55000000000E+01  0.51109989000E-03 0. -1.
     -623   -1    0    0    0    0  0.00000000000E+00  0.00000000000E+00  0.93234578044E-11  0.17124000000E+03  0.17124000000E+03 0.  1.
       11    1    1    2    0    0  0.27976014782E-01 -0.55317590247E-01  0.82782284820E+00  0.83014072447E+00  0.51109989000E-03 0. -1.
     -623    1    1    2    0    0 -0.79206234812E-02  0.13678486450E-01  0.44998719269E-02  0.17124000079E+03  0.17124000000E+03 0.  1.
     -611    1    1    2    0    0  0.20623027152E-01 -0.42882850990E-01  0.18853461825E+01  0.18859466422E+01  0.51109989000E-03 0. -1.
      611    1    1    2    0    0 -0.40678418453E-01  0.84521954787E-01  0.27823310736E+01  0.27839118447E+01  0.51109989000E-03 0.  1.
</event>
<event>
 6   3  0.2312675E+03  0.9118800E+02  0.7818608E-02  0.1180000E+00
       11   -1    0    0    0    0  0.00000000000E+00  0.00000000000E+00  0.54999999763E+01  0.55000000000E+01  0.51109989000E-03 0. -1.
     -623   -1    0    0    0    0  0.00000000000E+00  0.00000000000E+00  0.93234578044E-11  0.17124000000E+03  0.17124000000E+03 0.  1.
       11    1    1    2    0    0  0.58604081783E-01 -0.35743436227E-01  0.99901950350E+00  0.10013751850E+01  0.51109989000E-03 0. -1.
     -623    1    1    2    0    0  0.13534237659E-01  0.31849904476E-01  0.29626257285E-02  0.17124000352E+03  0.17124000000E+03 0.  1.
     -611    1    1    2    0    0 -0.15255455316E-01  0.27841754021E-02  0.66369228327E+00  0.66387362401E+00  0.51109989000E-03 0.  1.
      611    1    1    2    0    0 -0.56882864127E-01  0.11093563489E-02  0.38343255637E+01  0.38347476685E+01  0.51109989000E-03 0. -1.
</event>
<event>
 6   3  0.2312675E+03  0.9118800E+02  0.7818608E-02  0.1180000E+00
       11   -1    0    0    0    0  0.00000000000E+00  0.00000000000E+00  0.54999999763E+01  0.55000000000E+01  0.51109989000E-03 0.  1.
     -623   -1    0    0    0    0  0.00000000000E+00  0.00000000000E+00  0.93234578044E-11  0.17124000000E+03  0.17124000000E+03 0.  1.
       11    1    1    2    0    0  0.83766028159E-02 -0.15231640484E-01  0.19691078926E+00  0.19767723818E+00  0.51109989000E-03 0.  1.
     -623    1    1    2    0    0 -0.25316077891E-01  0.15841619783E-01  0.26178871582E-02  0.17124000262E+03  0.17124000000E+03 0.  1.
     -611    1    1    2    0    0  0.67060728477E-01  0.12453695984E-01  0.42726777402E+01  0.42732221530E+01  0.51109989000E-03 0.  1.
      611    1    1    2    0    0 -0.50121253401E-01 -0.13063675283E-01  0.10277935596E+01  0.10290979847E+01  0.51109989000E-03 0. -1.
</event>
<event>
 6   3  0.2312675E+03  0.9118800E+02  0.7818608E-02  0.1180000E+00
       11   -1    0    0    0    0  0.00000000000E+00  0.00000000000E+00  0.54999999763E+01  0.55000000000E+01  0.51109989000E-03 0. -1.
     -623   -1    0    0    0    0  0.00000000000E+00  0.00000000000E+00  0.93234578044E-11  0.17124000000E+03  0.17124000000E+03 0.  1.
       11    1    1    2    0    0 -0.85670494815E-01 -0.46551788445E-01  0.70799920325E+00  0.71468149249E+00  0.51109989000E-03 0. -1.
     -623    1    1    2    0    0 -0.58146910625E-01  0.34251289501E-01  0.88779297915E-02  0.17124001353E+03  0.17124000000E+03 0.  1.
     -611    1    1    2    0    0  0.51224756299E-01  0.24883379156E-02  0.17839514369E+01  0.17846885324E+01  0.51109989000E-03 0.  1.
      611    1    1    2    0    0  0.92592649139E-01  0.98121610277E-02  0.29991714063E+01  0.30006164472E+01  0.51109989000E-03 0. -1.
</event>
<event>
 6   3  0.2312675E+03  0.9118800E+02  0.7818608E-02  0.1180000E+00
       11   -1    0    0    0    0  0.00000000000E+00  0.00000000000E+00  0.54999999763E+01  0.55000000000E+01  0.51109989000E-03 0.  1.
     -623   -1    0    0    0    0  0.00000000000E+00  0.00000000000E+00  0.93234578044E-11  0.17124000000E+03  0.17124000000E+03 0. -1.
       11    1    1    2    0    0 -0.38524934792E-01  0.41457360787E-02  0.66074389184E-01  0.76599241886E-01  0.51109989000E-03 0.  1.
     -623    1    1    2    0    0 -0.61871079370E-01 -0.40698544193E-01  0.13390929544E-01  0.17124001654E+03  0.17124000000E+03 0. -1.
     -611    1    1    2    0    0  0.80796915208E-01  0.86728341104E-01  0.41802964577E+01  0.41819766478E+01  0.51109989000E-03 0.  1.
      611    1    1    2    0    0  0.19599098953E-01 -0.50175532990E-01  0.12402381998E+01  0.12414075730E+01  0.51109989000E-03 0. -1.
</event>
<event>
 6   3  0.2312675E+03  0.9118800E+02  0.7818608E-02  0.1180000E+00
       11   -1    0    0    0    0  0.00000000000E+00  0.00000000000E+00  0.54999999763E+01  0.55000000000E+01  0.51109989000E-03 0. -1.
     -623   -1    0    0    0    0  0.00000000000E+00  0.00000000000E+00  0.93234578044E-11  0.17124000000E+03  0.17124000000E+03 0. -1.
       11    1    1    2    0    0 -0.64430936001E-02 -0.18381323798E-01  0.29472287237E+00  0.29536624594E+00  0.51109989000E-03 0. -1.
     -623    1    1    2    0    0 -0.10980498245E-02  0.55763841884E-02  0.27420478572E-02  0.17124000012E+03  0.17124000000E+03 0. -1.
     -611    1    1    2    0    0 -0.47894343266E-01  0.46385854954E-01  0.38181233986E+01  0.38187055482E+01  0.51109989000E-03 0.  1.
      611    1    1    2    0    0  0.55435486691E-01 -0.33580915345E-01  0.13844116574E+01  0.13859280896E+01  0.51109989000E-03 0. -1.
</event>
<event>
 6   3  0.2523457E+03  0.9118800E+02  0.7818608E-02  0.1180000E+00
       11   -1    0    0    0    0  0.00000000000E+00  0.00000000000E+00  0.54999999763E+01  0.55000000000E+01  0.51109989000E-03 0.  1.
     -623   -1    0    0    0    0  0.00000000000E+00  0.00000000000E+00  0.93234578044E-11  0.17124000000E+03  0.17124000000E+03 0. -1.
       11    1    1    2    0    0 -0.59498649320E-02 -0.44535425796E-02  0.64637912855E-02  0.98628979057E-02  0.51109989000E-03 0.  1.
     -623    1    1    2    0    0  0.10170765398E-01  0.33147547686E-02  0.36813437734E-02  0.17124000037E+03  0.17124000000E+03 0. -1.
     -611    1    1    2    0    0  0.25645747020E-01  0.21890335179E-02  0.25484454791E+01  0.25485755075E+01  0.51109989000E-03 0. -1.
      611    1    1    2    0    0 -0.29866647486E-01 -0.10502457068E-02  0.29414093621E+01  0.29415612209E+01  0.51109989000E-03 0.  1.
</event>
<event>
 6   3  0.2312675E+03  0.9118800E+02  0.7818608E-02  0.1180000E+00
       11   -1    0    0    0    0  0.00000000000E+00  0.00000000000E+00  0.54999999763E+01  0.55000000000E+01  0.51109989000E-03 0.  1.
     -623   -1    0    0    0    0  0.00000000000E+00  0.00000000000E+00  0.93234578044E-11  0.17124000000E+03  0.17124000000E+03 0.  1.
       11    1    1    2    0    0 -0.78676769203E-01  0.68548835434E-01  0.10736195444E+01  0.10786788976E+01  0.51109989000E-03 0.  1.
     -623    1    1    2    0    0 -0.15561978917E-01  0.10862437925E-01  0.68948428402E-02  0.17124000119E+03  0.17124000000E+03 0.  1.
     -611    1    1    2    0    0  0.24803928113E-01 -0.21381527913E-01  0.74404030867E+00  0.74476079834E+00  0.51109989000E-03 0. -1.
      611    1    1    2    0    0  0.69434820006E-01 -0.58029745445E-01  0.36754452804E+01  0.36765591136E+01  0.51109989000E-03 0.  1.
</event>
<event>
 6   3  0.2312675E+03  0.9118800E+02  0.7818608E-02  0.1180000E+00
       11   -1    0    0    0    0  0.00000000000E+00  0.00000000000E+00  0.54999999763E+01  0.55000000000E+01  0.51109989000E-03 0. -1.
     -623   -1    0    0    0    0  0.00000000000E+00  0.00000000000E+00  0.93234578044E-11  0.17124000000E+03  0.17124000000E+03 0. -1.
       11    1    1    2    0    0 -0.88228984546E-03  0.72076867684E-05  0.22328156241E-02  0.24546233990E-02  0.51109989000E-03 0. -1.
     -623    1    1    2    0    0  0.37903773459E-03  0.11868387601E-02  0.72157364565E-03  0.17124000001E+03  0.17124000000E+03 0. -1.
     -611    1    1    2    0    0  0.36245868277E-01 -0.54387062715E-02  0.22268136911E+01  0.22271153581E+01  0.51109989000E-03 0. -1.
      611    1    1    2    0    0 -0.35742616166E-01  0.42446598246E-02  0.32702318959E+01  0.32704300124E+01  0.51109989000E-03 0.  1.
</event>
<event>
 6   3  0.2312675E+03  0.9118800E+02  0.7818608E-02  0.1180000E+00
       11   -1    0    0    0    0  0.00000000000E+00  0.00000000000E+00  0.54999999763E+01  0.55000000000E+01  0.51109989000E-03 0.  1.
     -623   -1    0    0    0    0  0.00000000000E+00  0.00000000000E+00  0.93234578044E-11  0.17124000000E+03  0.17124000000E+03 0. -1.
       11    1    1    2    0    0  0.61461803590E-02  0.10363284985E-01  0.35221192165E-01  0.37228575171E-01  0.51109989000E-03 0.  1.
     -623    1    1    2    0    0  0.59173320182E-02 -0.17644752575E-02  0.32585841642E-02  0.17124000014E+03  0.17124000000E+03 0. -1.
     -611    1    1    2    0    0 -0.63043135668E-01 -0.98393335376E-02  0.35370393974E+01  0.35376149041E+01  0.51109989000E-03 0.  1.
      611    1    1    2    0    0  0.50979623291E-01  0.12405238103E-02  0.19244808025E+01  0.19251563784E+01  0.51109989000E-03 0. -1.
</event>
<event>
 6   3  0.2312675E+03  0.9118800E+02  0.7818608E-02  0.1180000E+00
       11   -1    0    0    0    0  0.00000000000E+00  0.00000000000E+00  0.54999999763E+01  0.55000000000E+01  0.51109989000E-03 0.  1.
     -623   -1    0    0    0    0  0.00000000000E+00  0.00000000000E+00  0.93234578044E-11  0.17124000000E+03  0.17124000000E+03 0. -1.
       11    1    1    2    0    0  0.42438503893E-01  0.41464683936E-02  0.96673369104E+00  0.96767376240E+00  0.51109989000E-03 0.  1.
     -623    1    1    2    0    0  0.12238061200E-01 -0.21209960354E-01  0.13069575352E-02  0.17124000176E+03  0.17124000000E+03 0. -1.
     -611    1    1    2    0    0 -0.25639303481E-01  0.69760776347E-02  0.22959707908E+01  0.22961245988E+01  0.51109989000E-03 0. -1.
      611    1    1    2    0    0 -0.29037261611E-01  0.10087414326E-01  0.22359885368E+01  0.22361998830E+01  0.51109989000E-03 0.  1.
</event>
<event>
 6   3  0.2312675E+03  0.9118800E+02  0.7818608E-02  0.1180000E+00
       11   -1    0    0    0    0  0.00000000000E+00  0.00000000000E+00  0.54999999763E+01  0.55000000000E+01  0.51109989000E-03 0.  1.
     -623   -1    0    0    0    0  0.00000000000E+00  0.00000000000E+00  0.93234578044E-11  0.17124000000E+03  0.17124000000E+03 0. -1.
       11    1    1    2    0    0  0.93104476678E-01 -0.61709505432E-01  0.43158866093E+00  0.44580886050E+00  0.51109989000E-03 0.  1.
     -623    1    1    2    0    0  0.89635363551E-02  0.88482485645E-02  0.15529037252E-01  0.17124000117E+03  0.17124000000E+03 0. -1.
     -611    1    1    2    0    0 -0.44241334442E-01  0.21950979330E-01  0.21893823789E+01  0.21899394063E+01  0.51109989000E-03 0. -1.
      611    1    1    2    0    0 -0.57826678632E-01  0.30910277559E-01  0.28634999013E+01  0.28642505679E+01  0.51109989000E-03 0.  1.
</event>
<event>
 6   3  0.2312675E+03  0.9118800E+02  0.7818608E-02  0.1180000E+00
       11   -1    0    0    0    0  0.00000000000E+00  0.00000000000E+00  0.54999999763E+01  0.55000000000E+01  0.51109989000E-03 0. -1.
     -623   -1    0    0    0    0  0.00000000000E+00  0.00000000000E+00  0.93234578044E-11  0.17124000000E+03  0.17124000000E+03 0.  1.
       11    1    1    2    0    0  0.10586673399E-01  0.51074498896E-02  0.10662027572E+01  0.10662676702E+01  0.51109989000E-03 0. -1.
     -623    1    1    2    0    0 -0.63452539684E-01 -0.23461034755E-01  0.43164272879E-03  0.17124001336E+03  0.17124000000E+03 0.  1.
     -611    1    1    2    0    0  0.13641051682E-01  0.47666633061E-02  0.11205200730E+01  0.11206133564E+01  0.51109989000E-03 0. -1.
      611    1    1    2    0    0  0.39224815129E-01  0.13586921754E-01  0.33128455489E+01  0.33131056552E+01  0.51109989000E-03 0. -1.
</event>
<event>
 6   3  0.2312675E+03  0.9118800E+02  0.7818608E-02  0.1180000E+00
       11   -1    0    0    0    0  0.00000000000E+00  0.00000000000E+00  0.54999999763E+01  0.55000000000E+01  0.51109989000E-03 0.  1.
     -623   -1    0    0    0    0  0.00000000000E+00  0.00000000000E+00  0.93234578044E-11  0.17124000000E+03  0.17124000000E+03 0. -1.
       11    1    1    2    0    0 -0.23744873579E-01  0.24411915283E-01  0.98434047360E+00  0.98492953546E+00  0.51109989000E-03 0.  1.
     -623    1    1    2    0    0 -0.58260351953E-01  0.13075520023E-01  0.15003979664E-02  0.17124001042E+03  0.17124000000E+03 0. -1.
     -611    1    1    2    0    0  0.15337528757E-01 -0.77411070293E-02  0.86642867763E+00  0.86659914561E+00  0.51109989000E-03 0.  1.
      611    1    1    2    0    0  0.66667696747E-01 -0.29746328264E-01  0.36477304256E+01  0.36484609008E+01  0.51109989000E-03 0.  1.
</event>
<event>
 6   3  0.2312675E+03  0.9118800E+02  0.7818608E-02  0.1180000E+00
       11   -1    0    0    0    0  0.00000000000E+00  0.00000000000E+00  0.54999999763E+01  0.55000000000E+01  0.51109989000E-03 0. -1.
     -623   -1    0    0    0    0  0.00000000000E+00  0.00000000000E+00  0.93234578044E-11  0.17124000000E+03  0.17124000000E+03 0. -1.
       11    1    1    2    0    0 -0.15972324982E-01  0.21627843425E-02  0.82282778161E+00  0.82298579101E+00  0.51109989000E-03 0. -1.
     -623    1    1    2    0    0 -0.38551730680E-01 -0.16575201048E-04  0.48432719090E-03  0.17124000434E+03  0.17124000000E+03 0. -1.
     -611    1    1    2    0    0  0.42795717883E-01  0.18099992522E-03  0.35247872217E+01  0.35250470530E+01  0.51109989000E-03 0. -1.
      611    1    1    2    0    0  0.11728337786E-01 -0.23272090667E-02  0.11519006465E+01  0.11519628165E+01  0.51109989000E-03 0.  1.
</event>
<event>
 6   3  0.2312675E+03  0.9118800E+02  0.7818608E-02  0.1180000E+00
       11   -1    0    0    0    0  0.00000000000E+00  0.00000000000E+00  0.54999999763E+01  0.55000000000E+01  0.51109989000E-03 0. -1.
     -623   -1    0    0    0    0  0.00000000000E+00  0.00000000000E+00  0.93234578044E-11  0.17124000000E+03  0.17124000000E+03 0.  1.
       11    1    1    2    0    0 -0.51051224979E-03 -0.11315511208E-02  0.63715385325E-03  0.14860076805E-02  0.51109989000E-03 0. -1.
     -623    1    1    2    0    0 -0.13701178807E-02  0.12226215568E-02  0.14725413339E-02  0.17124000002E+03  0.17124000000E+03 0.  1.
     -611    1    1    2    0    0  0.38840428191E-01  0.16165068741E-01  0.25480838824E+01  0.25484312079E+01  0.51109989000E-03 0.  1.
      611    1    1    2    0    0 -0.36959798060E-01 -0.16256139177E-01  0.29498063987E+01  0.29500827682E+01  0.51109989000E-03 0. -1.
</event>
<event>
 6   3  0.2312675E+03  0.9118800E+02  0.7818608E-02  0.1180000E+00
       11   -1    0    0    0    0  0.00000000000E+00  0.00000000000E+00  0.54999999763E+01  0.55000000000E+01  0.51109989000E-03 0. -1.
     -623   -1    0    0    0    0  0.00000000000E+00  0.00000000000E+00  0.93234578044E-11  0.17124000000E+03  0.17124000000E+03 0.  1.
       11    1    1    2    0    0 -0.15396688889E-01  0.28898369468E-01  0.10953724948E+01  0.10958619153E+01  0.51109989000E-03 0. -1.
     -623    1    1    2    0    0  0.67919525073E-01  0.45895678090E-01  0.14579426041E-02  0.17124001963E+03  0.17124000000E+03 0.  1.
     -611    1    1    2    0    0 -0.35840407922E-01 -0.52458456664E-01  0.30708706600E+01  0.30715278440E+01  0.51109989000E-03 0. -1.
      611    1    1    2    0    0 -0.16682428256E-01 -0.22335590885E-01  0.13322988784E+01  0.13325906140E+01  0.51109989000E-03 0.  1.
</event>
<event>
 6   3  0.2312675E+03  0.9118800E+02  0.7818608E-02  0.1180000E+00
       11   -1    0    0    0    0  0.00000000000E+00  0.00000000000E+00  0.54999999763E+01  0.55000000000E+01  0.51109989000E-03 0.  1.
     -623   -1    0    0    0    0  0.00000000000E+00  0.00000000000E+00  0.93234578044E-11  0.17124000000E+03  0.17124000000E+03 0. -1.
       11    1    1    2    0    0 -0.34588780120E-01 -0.98863305876E-02  0.69058140086E+00  0.69151793591E+00  0.51109989000E-03 0.  1.
     -623    1    1    2    0    0 -0.69984853703E-02  0.51546543675E-03  0.14423447916E-02  0.17124000015E+03  0.17124000000E+03 0. -1.
     -611    1    1    2    0    0 -0.68095666635E-02  0.15517756571E-01  0.65598421846E+00  0.65620326658E+00  0.51109989000E-03 0. -1.
      611    1    1    2    0    0  0.48396832153E-01 -0.61468914198E-02  0.41519920122E+01  0.41522786477E+01  0.51109989000E-03 0.  1.
</event>
<event>
 6   3  0.2312675E+03  0.9118800E+02  0.7818608E-02  0.1180000E+00
       11   -1    0    0    0    0  0.00000000000E+00  0.00000000000E+00  0.54999999763E+01  0.55000000000E+01  0.51109989000E-03 0. -1.
     -623   -1    0    0    0    0  0.00000000000E+00  0.00000000000E+00  0.93234578044E-11  0.17124000000E+03  0.17124000000E+03 0. -1.
       11    1    1    2    0    0 -0.12750133619E-02  0.82259958000E-02  0.47837157066E+00  0.47844426374E+00  0.51109989000E-03 0. -1.
     -623    1    1    2    0    0  0.12591274341E-02  0.15500850457E-02  0.81322207303E-03  0.17124000001E+03  0.17124000000E+03 0. -1.
     -611    1    1    2    0    0 -0.35156571107E-01  0.14890678358E-01  0.15309403550E+01  0.15314164517E+01  0.51109989000E-03 0.  1.
      611    1    1    2    0    0  0.35172457035E-01 -0.24666759204E-01  0.34898748287E+01  0.34901392712E+01  0.51109989000E-03 0. -1.
</event>
<event>
 6   3  0.2312675E+03  0.9118800E+02  0.7818608E-02  0.1180000E+00
       11   -1    0    0    0    0  0.00000000000E+00  0.00000000000E+00  0.54999999763E+01  0.55000000000E+01  0.51109989000E-03 0. -1.
     -623   -1    0    0    0    0  0.00000000000E+00  0.00000000000E+00  0.93234578044E-11  0.17124000000E+03  0.17124000000E+03 0.  1.
       11    1    1    2    0    0  0.73699484571E-01  0.38544191315E-01  0.65044787622E+00  0.65574382926E+00  0.51109989000E-03 0. -1.
     -623    1    1    2    0    0  0.17107929483E-01  0.16214947455E-01  0.65129037821E-02  0.17124000175E+03  0.17124000000E+03 0.  1.
     -611    1    1    2    0    0 -0.37868804246E-01 -0.35827721077E-01  0.24542056836E+01  0.24547593509E+01  0.51109989000E-03 0. -1.
      611    1    1    2    0    0 -0.52938609808E-01 -0.18931417692E-01  0.23888335126E+01  0.23894950737E+01  0.51109989000E-03 0.  1.
</event>
<event>
 6   3  0.2312675E+03  0.9118800E+02  0.7818608E-02  0.1180000E+00
       11   -1    0    0    0    0  0.00000000000E+00  0.00000000000E+00  0.54999999763E+01  0.55000000000E+01  0.51109989000E-03 0. -1.
     -623   -1    0    0    0    0  0.00000000000E+00  0.00000000000E+00  0.93234578044E-11  0.17124000000E+03  0.17124000000E+03 0.  1.
       11    1    1    2    0    0  0.48193282896E-01  0.22175857463E-01  0.10773077793E+01  0.10786133106E+01  0.51109989000E-03 0. -1.
     -623    1    1    2    0    0  0.92399736755E-02 -0.18730375977E-01  0.17192136305E-02  0.17124000128E+03  0.17124000000E+03 0.  1.
     -611    1    1    2    0    0 -0.22578780795E-01 -0.45018064097E-02  0.11792128080E+01  0.11794376522E+01  0.51109989000E-03 0.  1.
      611    1    1    2    0    0 -0.34854475776E-01  0.10563249228E-02  0.32417601752E+01  0.32419477548E+01  0.51109989000E-03 0. -1.
</event>
<event>
 6   3  0.2312675E+03  0.9118800E+02  0.7818608E-02  0.1180000E+00
       11   -1    0    0    0    0  0.00000000000E+00  0.00000000000E+00  0.54999999763E+01  0.55000000000E+01  0.51109989000E-03 0. -1.
     -623   -1    0    0    0    0  0.00000000000E+00  0.00000000000E+00  0.93234578044E-11  0.17124000000E+03  0.17124000000E+03 0.  1.
       11    1    1    2    0    0  0.87902182085E-02 -0.25297571802E-02  0.32705145337E+00  0.32717973956E+00  0.51109989000E-03 0. -1.
     -623    1    1    2    0    0 -0.10933846288E+00  0.24929663533E-01  0.11909898875E-02  0.17124003673E+03  0.17124000000E+03 0.  1.
     -611    1    1    2    0    0  0.64856607816E-01 -0.14602907326E-01  0.33193312730E+01  0.33199969858E+01  0.51109989000E-03 0. -1.
      611    1    1    2    0    0  0.35691637112E-01 -0.77969990853E-02  0.18524262733E+01  0.18527865622E+01  0.51109989000E-03 0.  1.
</event>
<event>
 6   3  0.2312675E+03  0.9118800E+02  0.7818608E-02  0.1180000E+00
       11   -1    0    0    0    0  0.00000000000E+00  0.00000000000E+00  0.54999999763E+01  0.55000000000E+01  0.51109989000E-03 0.  1.
     -623   -1    0    0    0    0  0.00000000000E+00  0.00000000000E+00  0.93234578044E-11  0.17124000000E+03  0.17124000000E+03 0.  1.
       11    1    1    2    0    0  0.95353376910E-01  0.43438205743E-01  0.10005318870E+01  0.10060037089E+01  0.51109989000E-03 0.  1.
     -623    1    1    2    0    0 -0.49594366004E-02 -0.13817057659E-01  0.65261110728E-02  0.17124000075E+03  0.17124000000E+03 0.  1.
     -611    1    1    2    0    0 -0.17157055295E-01  0.90363042635E-03  0.60558599963E+00  0.60582988145E+00  0.51109989000E-03 0. -1.
      611    1    1    2    0    0 -0.73236885015E-01 -0.30524778510E-01  0.38873559786E+01  0.38881656560E+01  0.51109989000E-03 0.  1.
</event>
<event>
 6   3  0.2312675E+03  0.9118800E+02  0.7818608E-02  0.1180000E+00
       11   -1    0    0    0    0  0.00000000000E+00  0.00000000000E+00  0.54999999763E+01  0.55000000000E+01  0.51109989000E-03 0. -1.
     -623   -1    0    0    0    0  0.00000000000E+00  0.00000000000E+00  0.93234578044E-11  0.17124000000E+03  0.17124000000E+03 0. -1.
       11    1    1    2    0    0 -0.12124600594E-01  0.19390401564E-01  0.82868960012E+00  0.82900525220E+00  0.51109989000E-03 0. -1.
     -623    1    1    2    0    0 -0.46012005613E-01 -0.19676811699E-01  0.76191809141E-03  0.17124000731E+03  0.17124000000E+03 0. -1.
     -611    1    1    2    0    0  0.16398457013E-01  0.91158427421E-02  0.88775853426E+00  0.88795691582E+00  0.51109989000E-03 0.  1.
      611    1    1    2    0    0  0.41738149194E-01 -0.88294326069E-02  0.37827899238E+01  0.37830305181E+01  0.51109989000E-03 0. -1.
</event>
<event>
 6   3  0.2312675E+03  0.9118800E+02  0.7818608E-02  0.1180000E+00
       11   -1    0    0    0    0  0.00000000000E+00  0.00000000000E+00  0.54999999763E+01  0.55000000000E+01  0.51109989000E-03 0.  1.
     -623   -1    0    0    0    0  0.00000000000E+00  0.00000000000E+00  0.93234578044E-11  0.17124000000E+03  0.17124000000E+03 0.  1.
       11    1    1    2    0    0  0.18513569890E-02 -0.80718357740E-02  0.63393152501E+00  0.63398582136E+00  0.51109989000E-03 0.  1.
     -623    1    1    2    0    0  0.41997226401E-02 -0.50513540640E-03  0.62805302626E-03  0.17124000005E+03  0.17124000000E+03 0.  1.
     -611    1    1    2    0    0  0.32093607891E-01  0.79926761752E-02  0.15419914843E+01  0.15423462262E+01  0.51109989000E-03 0. -1.
      611    1    1    2    0    0 -0.38144687520E-01  0.58429500521E-03  0.33234489138E+01  0.33236678990E+01  0.51109989000E-03 0.  1.
</event>
<event>
 6   3  0.2312675E+03  0.9118800E+02  0.7818608E-02  0.1180000E+00
       11   -1    0    0    0    0  0.00000000000E+00  0.00000000000E+00  0.54999999763E+01  0.55000000000E+01  0.51109989000E-03 0.  1.
     -623   -1    0    0    0    0  0.00000000000E+00  0.00000000000E+00  0.93234578044E-11  0.17124000000E+03  0.17124000000E+03 0. -1.
       11    1    1    2    0    0 -0.26623029397E-02 -0.21035405476E-02  0.80008999653E-01  0.80082544842E-01  0.51109989000E-03 0.  1.
     -623    1    1    2    0    0 -0.46356982244E-02  0.15140689345E-01  0.73463074484E-03  0.17124000073E+03  0.17124000000E+03 0. -1.
     -611    1    1    2    0    0 -0.34785650764E-01 -0.15084156830E-01  0.17062395926E+01  0.17066608866E+01  0.51109989000E-03 0. -1.
      611    1    1    2    0    0  0.42083651928E-01  0.20470080325E-02  0.37130167531E+01  0.37132558348E+01  0.51109989000E-03 0.  1.
</event>
<event>
 6   3  0.2312675E+03  0.9118800E+02  0.7818608E-02  0.1180000E+00
       11   -1    0    0    0    0  0.00000000000E+00  0.00000000000E+00  0.54999999763E+01  0.55000000000E+01  0.51109989000E-03 0. -1.
     -623   -1    0    0    0    0  0.00000000000E+00  0.00000000000E+00  0.93234578044E-11  0.17124000000E+03  0.17124000000E+03 0. -1.
       11    1    1    2    0    0 -0.75322987935E-02  0.68112477983E-02  0.89275109179E-01  0.89852295261E-01  0.51109989000E-03 0. -1.
     -623    1    1    2    0    0  0.97929217136E-01 -0.22037664209E-01  0.13956919016E-02  0.17124002943E+03  0.17124000000E+03 0. -1.
     -611    1    1    2    0    0 -0.71206390231E-01  0.85661698947E-02  0.40057477331E+01  0.40063897578E+01  0.51109989000E-03 0.  1.
      611    1    1    2    0    0 -0.19190528113E-01  0.66602465166E-02  0.14035814422E+01  0.14037285213E+01  0.51109989000E-03 0. -1.
</event>
<event>
 6   3  0.2312675E+03  0.9118800E+02  0.7818608E-02  0.1180000E+00
       11   -1    0    0    0    0  0.00000000000E+00  0.00000000000E+00  0.54999999763E+01  0.55000000000E+01  0.51109989000E-03 0.  1.
     -623   -1    0    0    0    0  0.00000000000E+00  0.00000000000E+00  0.93234578044E-11  0.17124000000E+03  0.17124000000E+03 0.  1.
       11    1    1    2    0    0 -0.11311764111E+00  0.29952495624E-01  0.49077789231E+00  0.50453538382E+00  0.51109989000E-03 0.  1.
     -623    1    1    2    0    0 -0.21221354376E-01 -0.32728037426E-01  0.15570831385E-01  0.17124000515E+03  0.17124000000E+03 0.  1.
     -611    1    1    2    0    0  0.30796954713E-01  0.88100076881E-03  0.11074192882E+01  0.11078479001E+01  0.51109989000E-03 0. -1.
      611    1    1    2    0    0  0.10354204076E+00  0.18945410323E-02  0.38862319639E+01  0.38876115652E+01  0.51109989000E-03 0.  1.
</event>
<event>
 6   3  0.2586115E+03  0.9118800E+02  0.7818608E-02  0.1180000E+00
       11   -1    0    0    0    0  0.00000000000E+00  0.00000000000E+00  0.54999999763E+01  0.55000000000E+01  0.51109989000E-03 0.  1.
     -623   -1    0    0    0    0  0.00000000000E+00  0.00000000000E+00  0.93234578044E-11  0.17124000000E+03  0.17124000000E+03 0.  1.
       11    1    1    2    0    0  0.71448024420E-02 -0.12303739887E-01  0.23373777894E-01  0.27368319884E-01  0.51109989000E-03 0.  1.
     -623    1    1    2    0    0 -0.86492232676E-02  0.13312390859E-01  0.48975926627E-02  0.17124000081E+03  0.17124000000E+03 0.  1.
     -611    1    1    2    0    0  0.46766353194E-01 -0.34437698965E-02  0.17571140362E+01  0.17577397273E+01  0.51109989000E-03 0. -1.
      611    1    1    2    0    0 -0.45261932368E-01  0.24351189239E-02  0.37146145695E+01  0.37148911469E+01  0.51109989000E-03 0.  1.
</event>
<event>
 6   3  0.2312675E+03  0.9118800E+02  0.7818608E-02  0.1180000E+00
       11   -1    0    0    0    0  0.00000000000E+00  0.00000000000E+00  0.54999999763E+01  0.55000000000E+01  0.51109989000E-03 0. -1.
     -623   -1    0    0    0    0  0.00000000000E+00  0.00000000000E+00  0.93234578044E-11  0.17124000000E+03  0.17124000000E+03 0. -1.
       11    1    1    2    0    0  0.71826858601E-02 -0.12115009100E-01  0.54829102233E+00  0.54847212401E+00  0.51109989000E-03 0. -1.
     -623    1    1    2    0    0 -0.12877960869E-01  0.74741054159E-02  0.90989833781E-03  0.17124000065E+03  0.17124000000E+03 0. -1.
     -611    1    1    2    0    0  0.39626933645E-01 -0.10228850666E-01  0.16002580618E+01  0.16007813869E+01  0.51109989000E-03 0.  1.
      611    1    1    2    0    0 -0.33931658636E-01  0.14869754350E-01  0.33505409938E+01  0.33507458393E+01  0.51109989000E-03 0. -1.
</event>
<event>
 6   3  0.2312675E+03  0.9118800E+02  0.7818608E-02  0.1180000E+00
       11   -1    0    0    0    0  0.00000000000E+00  0.00000000000E+00  0.54999999763E+01  0.55000000000E+01  0.51109989000E-03 0.  1.
     -623   -1    0    0    0    0  0.00000000000E+00  0.00000000000E+00  0.93234578044E-11  0.17124000000E+03  0.17124000000E+03 0. -1.
       11    1    1    2    0    0 -0.12242084041E-01 -0.19596281252E-01  0.57727312410E+00  0.57773558302E+00  0.51109989000E-03 0.  1.
     -623    1    1    2    0    0  0.32324930792E-02  0.53886908061E-02  0.18054731229E-02  0.17124000012E+03  0.17124000000E+03 0. -1.
     -611    1    1    2    0    0  0.51296642586E-01  0.39887015537E-01  0.25603719764E+01  0.25611964467E+01  0.51109989000E-03 0. -1.
      611    1    1    2    0    0 -0.42287051624E-01 -0.25679425091E-01  0.23605494025E+01  0.23610678454E+01  0.51109989000E-03 0.  1.
</event>
<event>
 6   3  0.2312675E+03  0.9118800E+02  0.7818608E-02  0.1180000E+00
       11   -1    0    0    0    0  0.00000000000E+00  0.00000000000E+00  0.54999999763E+01  0.55000000000E+01  0.51109989000E-03 0. -1.
     -623   -1    0    0    0    0  0.00000000000E+00  0.00000000000E+00  0.93234578044E-11  0.17124000000E+03  0.17124000000E+03 0.  1.
       11    1    1    2    0    0 -0.43329103618E-01 -0.28424168810E-01  0.92369741440E+00  0.92514999820E+00  0.51109989000E-03 0. -1.
     -623    1    1    2    0    0 -0.31127001945E-01 -0.33170406671E-01  0.26261549492E-02  0.17124000606E+03  0.17124000000E+03 0.  1.
     -611    1    1    2    0    0  0.27068800584E-01  0.70475748690E-02  0.18402530457E+01  0.18404656807E+01  0.51109989000E-03 0.  1.
      611    1    1    2    0    0  0.47387304978E-01  0.54547000612E-01  0.27334233612E+01  0.27343782592E+01  0.51109989000E-03 0. -1.
</event>
<event>
 6   3  0.2312675E+03  0.9118800E+02  0.7818608E-02  0.1180000E+00
       11   -1    0    0    0    0  0.00000000000E+00  0.00000000000E+00  0.54999999763E+01  0.55000000000E+01  0.51109989000E-03 0.  1.
     -623   -1    0    0    0    0  0.00000000000E+00  0.00000000000E+00  0.93234578044E-11  0.17124000000E+03  0.17124000000E+03 0. -1.
       11    1    1    2    0    0 -0.37091201473E-01 -0.23236313340E-01  0.81744303787E+00  0.81861411231E+00  0.51109989000E-03 0.  1.
     -623    1    1    2    0    0  0.11382290737E-01 -0.35137886061E-03  0.16184178055E-02  0.17124000039E+03  0.17124000000E+03 0. -1.
     -611    1    1    2    0    0  0.42776212768E-01  0.15839969367E-01  0.35197760307E+01  0.35200716294E+01  0.51109989000E-03 0. -1.
      611    1    1    2    0    0 -0.17067302033E-01  0.77477228333E-02  0.11611624900E+01  0.11613138720E+01  0.51109989000E-03 0.  1.
</event>
<event>
 6   3  0.2312675E+03  0.9118800E+02  0.7818608E-02  0.1180000E+00
       11   -1    0    0    0    0  0.00000000000E+00  0.00000000000E+00  0.54999999763E+01  0.55000000000E+01  0.51109989000E-03 0.  1.
     -623   -1    0    0    0    0  0.00000000000E+00  0.00000000000E+00  0.93234578044E-11  0.17124000000E+03  0.17124000000E+03 0. -1.
       11    1    1    2    0    0  0.26813518417E-01 -0.11238506185E-01  0.39569006839E+00  0.39675705443E+00  0.51109989000E-03 0.  1.
     -623    1    1    2    0    0  0.79251947020E-02  0.39478129183E-01  0.51605445270E-02  0.17124000481E+03  0.17124000000E+03 0. -1.
     -611    1    1    2    0    0  0.53240048196E-01  0.33245148206E-01  0.70797451590E+00  0.71075165776E+00  0.51109989000E-03 0. -1.
      611    1    1    2    0    0 -0.87978761315E-01 -0.61484771203E-01  0.43911748474E+01  0.43924864760E+01  0.51109989000E-03 0.  1.
</event>
<event>
 6   3  0.2312675E+03  0.9118800E+02  0.7818608E-02  0.1180000E+00
       11   -1    0    0    0    0  0.00000000000E+00  0.00000000000E+00  0.54999999763E+01  0.55000000000E+01  0.51109989000E-03 0. -1.
     -623   -1    0    0    0    0  0.00000000000E+00  0.00000000000E+00  0.93234578044E-11  0.17124000000E+03  0.17124000000E+03 0. -1.
       11    1    1    2    0    0 -0.37080455209E-01 -0.43435811712E-01  0.18207935082E+00  0.19082657340E+00  0.51109989000E-03 0. -1.
     -623    1    1    2    0    0 -0.45529749186E-01  0.23236436453E-01  0.94387835524E-02  0.17124000789E+03  0.17124000000E+03 0. -1.
     -611    1    1    2    0    0  0.25066475075E-01  0.64803278866E-02  0.17631887265E+01  0.17633788785E+01  0.51109989000E-03 0.  1.
      611    1    1    2    0    0  0.57543729314E-01  0.13719047371E-01  0.35452931151E+01  0.35457866583E+01  0.51109989000E-03 0. -1.
</event>
<event>
 6   3  0.2312675E+03  0.9118800E+02  0.7818608E-02  0.1180000E+00
       11   -1    0    0    0    0  0.00000000000E+00  0.00000000000E+00  0.54999999763E+01  0.55000000000E+01  0.51109989000E-03 0.  1.
     -623   -1    0    0    0    0  0.00000000000E+00  0.00000000000E+00  0.93234578044E-11  0.17124000000E+03  0.17124000000E+03 0. -1.
       11    1    1    2    0    0 -0.33534578608E-02 -0.74327019768E-02  0.41067440535E+00  0.41075566846E+00  0.51109989000E-03 0.  1.
     -623    1    1    2    0    0  0.84089138473E-01  0.42594367031E-01  0.86923802743E-03  0.17124002595E+03  0.17124000000E+03 0. -1.
     -611    1    1    2    0    0 -0.22316388223E-01 -0.97008927312E-02  0.14101787100E+01  0.14103887351E+01  0.51109989000E-03 0.  1.
      611    1    1    2    0    0 -0.58419292327E-01 -0.25460772299E-01  0.36782776190E+01  0.36788296466E+01  0.51109989000E-03 0.  1.
</event>
<event>
 6   3  0.2312675E+03  0.9118800E+02  0.7818608E-02  0.1180000E+00
       11   -1    0    0    0    0  0.00000000000E+00  0.00000000000E+00  0.54999999763E+01  0.55000000000E+01  0.51109989000E-03 0.  1.
     -623   -1    0    0    0    0  0.00000000000E+00  0.00000000000E+00  0.93234578044E-11  0.17124000000E+03  0.17124000000E+03 0. -1.
       11    1    1    2    0    0  0.57983311884E-01  0.30484060615E-01  0.52071301218E+00  0.52481772520E+00  0.51109989000E-03 0.  1.
     -623    1    1    2    0    0 -0.11973847129E-02  0.71218761844E-02  0.45725310773E-02  0.17124000021E+03  0.17124000000E+03 0. -1.
     -611    1    1    2    0    0 -0.33339980620E-01 -0.23725337747E-01  0.30660422306E+01  0.30663153242E+01  0.51109989000E-03 0.  1.
      611    1    1    2    0    0 -0.23445946556E-01 -0.13880599055E-01  0.19086722028E+01  0.19088667377E+01  0.51109989000E-03 0. -1.
</event>
<event>
 6   3  0.2312675E+03  0.9118800E+02  0.7818608E-02  0.1180000E+00
       11   -1    0    0    0    0  0.00000000000E+00  0.00000000000E+00  0.54999999763E+01  0.55000000000E+01  0.51109989000E-03 0.  1.
     -623   -1    0    0    0    0  0.00000000000E+00  0.00000000000E+00  0.93234578044E-11  0.17124000000E+03  0.17124000000E+03 0. -1.
       11    1    1    2    0    0 -0.71752010669E-01 -0.32988675621E-01  0.36069452229E+00  0.36923895161E+00  0.51109989000E-03 0.  1.
     -623    1    1    2    0    0  0.13406895087E-01  0.36250705429E-02  0.89612321311E-02  0.17124000080E+03  0.17124000000E+03 0. -1.
     -611    1    1    2    0    0  0.27913768259E-01  0.13403010633E-01  0.24160179855E+01  0.24162164610E+01  0.51109989000E-03 0.  1.
      611    1    1    2    0    0  0.30431347356E-01  0.15960594462E-01  0.27143262393E+01  0.27145437927E+01  0.51109989000E-03 0.  1.
</event>
<event>
 6   3  0.2312675E+03  0.9118800E+02  0.7818608E-02  0.1180000E+00
       11   -1    0    0    0    0  0.00000000000E+00  0.00000000000E+00  0.54999999763E+01  0.55000000000E+01  0.51109989000E-03 0.  1.
     -623   -1    0    0    0    0  0.00000000000E+00  0.00000000000E+00  0.93234578044E-11  0.17124000000E+03  0.17124000000E+03 0.  1.
       11    1    1    2    0    0 -0.78448463635E-02  0.65592203527E-02  0.24441695901E-02  0.10526166167E-01  0.51109989000E-03 0.  1.
     -623    1    1    2    0    0  0.48864830287E-02 -0.14965119717E-01  0.96755301896E-02  0.17124000100E+03  0.17124000000E+03 0.  1.
     -611    1    1    2    0    0 -0.43264282531E-01  0.48205732937E-01  0.19722960992E+01  0.19733595098E+01  0.51109989000E-03 0. -1.
      611    1    1    2    0    0  0.46222645866E-01 -0.39799833573E-01  0.35155841773E+01  0.35161133270E+01  0.51109989000E-03 0.  1.
</event>
<event>
 6   3  0.2312675E+03  0.9118800E+02  0.7818608E-02  0.1180000E+00
       11   -1    0    0    0    0  0.00000000000E+00  0.00000000000E+00  0.54999999763E+01  0.55000000000E+01  0.51109989000E-03 0.  1.
     -623   -1    0    0    0    0  0.00000000000E+00  0.00000000000E+00  0.93234578044E-11  0.17124000000E+03  0.17124000000E+03 0.  1.
       11    1    1    2    0    0 -0.74752885980E-02 -0.62544278863E-02  0.12120557763E+00  0.12159790738E+00  0.51109989000E-03 0.  1.
     -623    1    1    2    0    0  0.20357904426E-01  0.15982853972E-01  0.20534866116E-02  0.17124000197E+03  0.17124000000E+03 0.  1.
     -611    1    1    2    0    0  0.51919434659E-01  0.10421309602E-01  0.12770658742E+01  0.12781634244E+01  0.51109989000E-03 0. -1.
      611    1    1    2    0    0 -0.64802050487E-01 -0.20149735687E-01  0.40996750378E+01  0.41002366998E+01  0.51109989000E-03 0.  1.
</event>
<event>
 6   3  0.2312675E+03  0.9118800E+02  0.7818608E-02  0.1180000E+00
       11   -1    0    0    0    0  0.00000000000E+00  0.00000000000E+00  0.54999999763E+01  0.55000000000E+01  0.51109989000E-03 0.  1.
     -623   -1    0    0    0    0  0.00000000000E+00  0.00000000000E+00  0.93234578044E-11  0.17124000000E+03  0.17124000000E+03 0.  1.
       11    1    1    2    0    0 -0.53276979544E-01  0.82423331149E-01  0.44555429084E+00  0.45623560731E+00  0.51109989000E-03 0.  1.
     -623    1    1    2    0    0  0.50253144298E-02 -0.17338700759E-01  0.12736214489E-01  0.17124000143E+03  0.17124000000E+03 0.  1.
     -611    1    1    2    0    0  0.66926898034E-01 -0.26943145519E-01  0.44270761414E+01  0.44276640078E+01  0.51109989000E-03 0.  1.
      611    1    1    2    0    0 -0.18675232919E-01 -0.38141484871E-01  0.61463332948E+00  0.61609895969E+00  0.51109989000E-03 0. -1.
</event>
<event>
 6   3  0.2312675E+03  0.9118800E+02  0.7818608E-02  0.1180000E+00
       11   -1    0    0    0    0  0.00000000000E+00  0.00000000000E+00  0.54999999763E+01  0.55000000000E+01  0.51109989000E-03 0.  1.
     -623   -1    0    0    0    0  0.00000000000E+00  0.00000000000E+00  0.93234578044E-11  0.17124000000E+03  0.17124000000E+03 0. -1.
       11    1    1    2    0    0 -0.16579337636E-01 -0.66228420616E-02  0.10524403665E+00  0.10674879365E+00  0.51109989000E-03 0.  1.
     -623    1    1    2    0    0  0.17333790767E-01 -0.47873621787E-02  0.23266836083E-02  0.17124000096E+03  0.17124000000E+03 0. -1.
     -611    1    1    2    0    0  0.44421069768E-01  0.15065539215E-01  0.32748894877E+01  0.32752254303E+01  0.51109989000E-03 0. -1.
      611    1    1    2    0    0 -0.45175522899E-01 -0.36553349746E-02  0.21175397684E+01  0.21180248160E+01  0.51109989000E-03 0.  1.
</event>
<event>
 6   3  0.2380837E+03  0.9118800E+02  0.7818608E-02  0.1180000E+00
       11   -1    0    0    0    0  0.00000000000E+00  0.00000000000E+00  0.54999999763E+01  0.55000000000E+01  0.51109989000E-03 0. -1.
     -623   -1    0    0    0    0  0.00000000000E+00  0.00000000000E+00  0.93234578044E-11  0.17124000000E+03  0.17124000000E+03 0. -1.
       11    1    1    2    0    0 -0.28744192025E-02 -0.26009483613E-02  0.88534779079E-03  0.40090250608E-02  0.51109989000E-03 0. -1.
     -623    1    1    2    0    0  0.49057356919E-02  0.29892099696E-02  0.46034061307E-02  0.17124000016E+03  0.17124000000E+03 0. -1.
     -611    1    1    2    0    0  0.40157459104E-01 -0.47203062231E-01  0.32690267625E+01  0.32696141952E+01  0.51109989000E-03 0. -1.
      611    1    1    2    0    0 -0.42188775593E-01  0.46814800622E-01  0.22254844599E+01  0.22263766215E+01  0.51109989000E-03 0.  1.
</event>
<event>
 6   3  0.2312675E+03  0.9118800E+02  0.7818608E-02  0.1180000E+00
       11   -1    0    0    0    0  0.00000000000E+00  0.00000000000E+00  0.54999999763E+01  0.55000000000E+01  0.51109989000E-03 0. -1.
     -623   -1    0    0    0    0  0.00000000000E+00  0.00000000000E+00  0.93234578044E-11  0.17124000000E+03  0.17124000000E+03 0.  1.
       11    1    1    2    0    0 -0.72726919336E-01 -0.20625736009E-01  0.22525455108E+00  0.23760155678E+00  0.51109989000E-03 0. -1.
     -623    1    1    2    0    0 -0.69443719963E-02  0.85727714804E-02  0.12967588654E-01  0.17124000085E+03  0.17124000000E+03 0.  1.
     -611    1    1    2    0    0  0.69198924306E-01  0.10950877363E-01  0.44550771896E+01  0.44556280634E+01  0.51109989000E-03 0. -1.
      611    1    1    2    0    0  0.10472367028E-01  0.11020871659E-02  0.80670064706E+00  0.80676953354E+00  0.51109989000E-03 0.  1.
</event>
<event>
 6   3  0.2312675E+03  0.9118800E+02  0.7818608E-02  0.1180000E+00
       11   -1    0    0    0    0  0.00000000000E+00  0.00000000000E+00  0.54999999763E+01  0.55000000000E+01  0.51109989000E-03 0. -1.
     -623   -1    0    0    0    0  0.00000000000E+00  0.00000000000E+00  0.93234578044E-11  0.17124000000E+03  0.17124000000E+03 0.  1.
       11    1    1    2    0    0 -0.16726523498E-01 -0.82618792778E-02  0.11044404979E+00  0.11200975223E+00  0.51109989000E-03 0. -1.
     -623    1    1    2    0    0  0.43979602171E-02  0.18054045218E-02  0.24342927586E-02  0.17124000008E+03  0.17124000000E+03 0.  1.
     -611    1    1    2    0    0  0.50605014436E-01 -0.13756390367E-01  0.33317453840E+01  0.33321581101E+01  0.51109989000E-03 0. -1.
      611    1    1    2    0    0 -0.38276451155E-01  0.20212865123E-01  0.20553762497E+01  0.20558320543E+01  0.51109989000E-03 0.  1.
</event>
<event>
 6   3  0.2312675E+03  0.9118800E+02  0.7818608E-02  0.1180000E+00
       11   -1    0    0    0    0  0.00000000000E+00  0.00000000000E+00  0.54999999763E+01  0.55000000000E+01  0.51109989000E-03 0.  1.
     -623   -1    0    0    0    0  0.00000000000E+00  0.00000000000E+00  0.93234578044E-11  0.17124000000E+03  0.17124000000E+03 0.  1.
       11    1    1    2    0    0 -0.75985449810E-01  0.30187124517E-01  0.31463092487E+00  0.32508142238E+00  0.51109989000E-03 0.  1.
     -623    1    1    2    0    0  0.19535804405E-01 -0.25594122196E-01  0.10798527889E-01  0.17124000337E+03  0.17124000000E+03 0.  1.
     -611    1    1    2    0    0  0.15435425121E-01  0.71135937555E-02  0.13655500757E+01  0.13656559325E+01  0.51109989000E-03 0. -1.
      611    1    1    2    0    0  0.41014220284E-01 -0.11706596076E-01  0.38090204478E+01  0.38092592775E+01  0.51109989000E-03 0.  1.
</event>
<event>
 6   3  0.2312675E+03  0.9118800E+02  0.7818608E-02  0.1180000E+00
       11   -1    0    0    0    0  0.00000000000E+00  0.00000000000E+00  0.54999999763E+01  0.55000000000E+01  0.51109989000E-03 0.  1.
     -623   -1    0    0    0    0  0.00000000000E+00  0.00000000000E+00  0.93234578044E-11  0.17124000000E+03  0.17124000000E+03 0. -1.
       11    1    1    2    0    0  0.41883497332E-02 -0.29487234703E-04  0.25773027949E+00  0.25776481787E+00  0.51109989000E-03 0.  1.
     -623    1    1    2    0    0 -0.62551433690E-01 -0.31265203471E-01  0.46726582539E-03  0.17124001428E+03  0.17124000000E+03 0. -1.
     -611    1    1    2    0    0  0.31795688903E-01  0.17037169062E-01  0.28244508257E+01  0.28246812136E+01  0.51109989000E-03 0.  1.
      611    1    1    2    0    0  0.26567394790E-01  0.14257521508E-01  0.24173515819E+01  0.24175396657E+01  0.51109989000E-03 0.  1.
</event>
<event>
 6   3  0.2312675E+03  0.9118800E+02  0.7818608E-02  0.1180000E+00
       11   -1    0    0    0    0  0.00000000000E+00  0.00000000000E+00  0.54999999763E+01  0.55000000000E+01  0.51109989000E-03 0.  1.
     -623   -1    0    0    0    0  0.00000000000E+00  0.00000000000E+00  0.93234578044E-11  0.17124000000E+03  0.17124000000E+03 0. -1.
       11    1    1    2    0    0 -0.12438470955E-01  0.11900750549E-01  0.75629776343E+00  0.75649382788E+00  0.51109989000E-03 0.  1.
     -623    1    1    2    0    0  0.11927065466E+00 -0.53932673512E-01  0.16371758622E-02  0.17124005004E+03  0.17124000000E+03 0. -1.
     -611    1    1    2    0    0 -0.94522918083E-01  0.36930303444E-01  0.42362072538E+01  0.42374226350E+01  0.51109989000E-03 0.  1.
      611    1    1    2    0    0 -0.12309265570E-01  0.51016194952E-02  0.50585778076E+00  0.50603349703E+00  0.51109989000E-03 0.  1.
</event>
<event>
 6   3  0.2312675E+03  0.9118800E+02  0.7818608E-02  0.1180000E+00
       11   -1    0    0    0    0  0.00000000000E+00  0.00000000000E+00  0.54999999763E+01  0.55000000000E+01  0.51109989000E-03 0.  1.
     -623   -1    0    0    0    0  0.00000000000E+00  0.00000000000E+00  0.93234578044E-11  0.17124000000E+03  0.17124000000E+03 0.  1.
       11    1    1    2    0    0  0.67204123482E-02 -0.79647532764E-02  0.87664345406E-02  0.13627649634E-01  0.51109989000E-03 0.  1.
     -623    1    1    2    0    0  0.52831906906E-01 -0.24653183308E-01  0.52953937136E-02  0.17124001001E+03  0.17124000000E+03 0.  1.
     -611    1    1    2    0    0 -0.51180154776E-01  0.30251033109E-01  0.48541358689E+01  0.48544999566E+01  0.51109989000E-03 0.  1.
      611    1    1    2    0    0 -0.83721644750E-02  0.23669034734E-02  0.63180227879E+00  0.63186238698E+00  0.51109989000E-03 0.  1.
</event>
<event>
 6   3  0.2312675E+03  0.9118800E+02  0.7818608E-02  0.1180000E+00
       11   -1    0    0    0    0  0.00000000000E+00  0.00000000000E+00  0.54999999763E+01  0.55000000000E+01  0.51109989000E-03 0. -1.
     -623   -1    0    0    0    0  0.00000000000E+00  0.00000000000E+00  0.93234578044E-11  0.17124000000E+03  0.17124000000E+03 0. -1.
       11    1    1    2    0    0 -0.37322557705E-01 -0.33057655970E-01  0.95488301593E+00  0.95618388256E+00  0.51109989000E-03 0. -1.
     -623    1    1    2    0    0 -0.93594516694E-02 -0.18671805517E-02  0.16752826038E-02  0.17124000027E+03  0.17124000000E+03 0. -1.
     -611    1    1    2    0    0  0.28050420480E-01  0.21069731891E-01  0.27233413326E+01  0.27235673361E+01  0.51109989000E-03 0. -1.
      611    1    1    2    0    0  0.18631588951E-01  0.13855104673E-01  0.18201003508E+01  0.18202485127E+01  0.51109989000E-03 0. -1.
</event>
<event>
 6   3  0.2312675E+03  0.9118800E+02  0.7818608E-02  0.1180000E+00
       11   -1    0    0    0    0  0.00000000000E+00  0.00000000000E+00  0.54999999763E+01  0.55000000000E+01  0.51109989000E-03 0.  1.
     -623   -1    0    0    0    0  0.00000000000E+00  0.00000000000E+00  0.93234578044E-11  0.17124000000E+03  0.17124000000E+03 0.  1.
       11    1    1    2    0    0 -0.45969666926E-02  0.12438625772E-02  0.16286390535E+00  0.16293431862E+00  0.51109989000E-03 0.  1.
     -623    1    1    2    0    0  0.76620127214E-03  0.71155503183E-02  0.43143775916E-03  0.17124000015E+03  0.17124000000E+03 0.  1.
     -611    1    1    2    0    0  0.32316030802E-01 -0.81304886818E-02  0.31129532652E+01  0.31131316585E+01  0.51109989000E-03 0.  1.
      611    1    1    2    0    0 -0.28485265382E-01 -0.22892421417E-03  0.22237513684E+01  0.22239338732E+01  0.51109989000E-03 0. -1.
</event>
<event>
 6   3  0.2312675E+03  0.9118800E+02  0.7818608E-02  0.1180000E+00
       11   -1    0    0    0    0  0.00000000000E+00  0.00000000000E+00  0.54999999763E+01  0.55000000000E+01  0.51109989000E-03 0. -1.
     -623   -1    0    0    0    0  0.00000000000E+00  0.00000000000E+00  0.93234578044E-11  0.17124000000E+03  0.17124000000E+03 0.  1.
       11    1    1    2    0    0  0.81978417298E-02 -0.57945700127E-02  0.15544700109E+00  0.15577166950E+00  0.51109989000E-03 0. -1.
     -623    1    1    2    0    0 -0.51695148409E-02 -0.56763511547E-02  0.15638385579E-02  0.17124000018E+03  0.17124000000E+03 0.  1.
     -611    1    1    2    0    0 -0.30119720644E-01 -0.43869505133E-01  0.26481090902E+01  0.26486437559E+01  0.51109989000E-03 0. -1.
      611    1    1    2    0    0  0.27091393755E-01  0.55340426301E-01  0.26948800465E+01  0.26955843954E+01  0.51109989000E-03 0.  1.
</event>
<event>
 6   3  0.2312675E+03  0.9118800E+02  0.7818608E-02  0.1180000E+00
       11   -1    0    0    0    0  0.00000000000E+00  0.00000000000E+00  0.54999999763E+01  0.55000000000E+01  0.51109989000E-03 0.  1.
     -623   -1    0    0    0    0  0.00000000000E+00  0.00000000000E+00  0.93234578044E-11  0.17124000000E+03  0.17124000000E+03 0. -1.
       11    1    1    2    0    0 -0.83245221525E-02 -0.58454782838E-03  0.67791276979E-02  0.10763696422E-01  0.51109989000E-03 0.  1.
     -623    1    1    2    0    0  0.39387255015E-02 -0.28278284876E-02  0.51248263553E-02  0.17124000015E+03  0.17124000000E+03 0. -1.
     -611    1    1    2    0    0 -0.42536245010E-01 -0.30221199048E-01  0.31209127878E+01  0.31213489941E+01  0.51109989000E-03 0.  1.
      611    1    1    2    0    0  0.46922041661E-01  0.33633575364E-01  0.23671832344E+01  0.23678871641E+01  0.51109989000E-03 0. -1.
</event>
<event>
 6   3  0.2312675E+03  0.9118800E+02  0.7818608E-02  0.1180000E+00
       11   -1    0    0    0    0  0.00000000000E+00  0.00000000000E+00  0.54999999763E+01  0.55000000000E+01  0.51109989000E-03 0. -1.
     -623   -1    0    0    0    0  0.00000000000E+00  0.00000000000E+00  0.93234578044E-11  0.17124000000E+03  0.17124000000E+03 0. -1.
       11    1    1    2    0    0 -0.66588493243E-01  0.32853254787E-03  0.38334316199E+00  0.38908402233E+00  0.51109989000E-03 0. -1.
     -623    1    1    2    0    0  0.45449309906E-02 -0.11956016221E-01  0.61314661374E-02  0.17124000059E+03  0.17124000000E+03 0. -1.
     -611    1    1    2    0    0  0.11608302207E-01  0.21881590128E-02  0.93554574270E+00  0.93562045651E+00  0.51109989000E-03 0. -1.
      611    1    1    2    0    0  0.50435259941E-01  0.94393246407E-02  0.41749795968E+01  0.41752949250E+01  0.51109989000E-03 0. -1.
</event>
<event>
 6   3  0.2312675E+03  0.9118800E+02  0.7818608E-02  0.1180000E+00
       11   -1    0    0    0    0  0.00000000000E+00  0.00000000000E+00  0.54999999763E+01  0.55000000000E+01  0.51109989000E-03 0.  1.
     -623   -1    0    0    0    0  0.00000000000E+00  0.00000000000E+00  0.93234578044E-11  0.17124000000E+03  0.17124000000E+03 0. -1.
       11    1    1    2    0    0 -0.63675756933E-02  0.23931034789E-02  0.93667163773E+00  0.93669647758E+00  0.51109989000E-03 0.  1.
     -623    1    1    2    0    0  0.21089523095E-01  0.49458107875E-02  0.91034011284E-03  0.17124000137E+03  0.17124000000E+03 0. -1.
     -611    1    1    2    0    0 -0.38689060066E-01 -0.27926696304E-01  0.36961256921E+01  0.36964337052E+01  0.51109989000E-03 0. -1.
      611    1    1    2    0    0  0.23967112664E-01  0.20587782038E-01  0.86629230640E+00  0.86686844481E+00  0.51109989000E-03 0.  1.
</event>
<event>
 6   3  0.2312675E+03  0.9118800E+02  0.7818608E-02  0.1180000E+00
       11   -1    0    0    0    0  0.00000000000E+00  0.00000000000E+00  0.54999999763E+01  0.55000000000E+01  0.51109989000E-03 0.  1.
     -623   -1    0    0    0    0  0.00000000000E+00  0.00000000000E+00  0.93234578044E-11  0.17124000000E+03  0.17124000000E+03 0.  1.
       11    1    1    2    0    0 -0.17803686567E-01  0.80610069340E-02  0.35308508714E+00  0.35362591968E+00  0.51109989000E-03 0.  1.
     -623    1    1    2    0    0  0.80384307997E-02  0.43844638928E-02  0.19772796566E-02  0.17124000026E+03  0.17124000000E+03 0.  1.
     -611    1    1    2    0    0 -0.43203291731E-01  0.16603347893E-01  0.10851303051E+01  0.10861170452E+01  0.51109989000E-03 0. -1.
      611    1    1    2    0    0  0.52968547498E-01 -0.29048818720E-01  0.40598073044E+01  0.40602567789E+01  0.51109989000E-03 0.  1.
</event>
<event>
 6   3  0.2312675E+03  0.9118800E+02  0.7818608E-02  0.1180000E+00
       11   -1    0    0    0    0  0.00000000000E+00  0.00000000000E+00  0.54999999763E+01  0.55000000000E+01  0.51109989000E-03 0. -1.
     -623   -1    0    0    0    0  0.00000000000E+00  0.00000000000E+00  0.93234578044E-11  0.17124000000E+03  0.17124000000E+03 0.  1.
       11    1    1    2    0    0  0.46923364206E-01 -0.21339660702E-01  0.71428948253E+00  0.71614726789E+00  0.51109989000E-03 0. -1.
     -623    1    1    2    0    0  0.12430837778E-01  0.59085917827E-02  0.22539298724E-02  0.17124000057E+03  0.17124000000E+03 0.  1.
     -611    1    1    2    0    0 -0.23161220806E-01  0.65620678278E-02  0.17041641865E+01  0.17043342802E+01  0.51109989000E-03 0.  1.
      611    1    1    2    0    0 -0.36192981183E-01  0.88690010920E-02  0.30792923776E+01  0.30795178842E+01  0.51109989000E-03 0. -1.
</event>
<event>
 6   3  0.2312675E+03  0.9118800E+02  0.7818608E-02  0.1180000E+00
       11   -1    0    0    0    0  0.00000000000E+00  0.00000000000E+00  0.54999999763E+01  0.55000000000E+01  0.51109989000E-03 0.  1.
     -623   -1    0    0    0    0  0.00000000000E+00  0.00000000000E+00  0.93234578044E-11  0.17124000000E+03  0.17124000000E+03 0. -1.
       11    1    1    2    0    0 -0.56787819958E-01  0.15069843796E-02  0.81275701671E+00  0.81474005482E+00  0.51109989000E-03 0.  1.
     -623    1    1    2    0    0 -0.79990098667E-02 -0.74785265909E-02  0.24384023228E-02  0.17124000037E+03  0.17124000000E+03 0. -1.
     -611    1    1    2    0    0  0.84483597695E-02  0.25881411600E-02  0.61967188835E+00  0.61973509154E+00  0.51109989000E-03 0. -1.
      611    1    1    2    0    0  0.56338470052E-01  0.33834010511E-02  0.40651326687E+01  0.40655244860E+01  0.51109989000E-03 0.  1.
</event>
<event>
 6   3  0.2312675E+03  0.9118800E+02  0.7818608E-02  0.1180000E+00
       11   -1    0    0    0    0  0.00000000000E+00  0.00000000000E+00  0.54999999763E+01  0.55000000000E+01  0.51109989000E-03 0. -1.
     -623   -1    0    0    0    0  0.00000000000E+00  0.00000000000E+00  0.93234578044E-11  0.17124000000E+03  0.17124000000E+03 0. -1.
       11    1    1    2    0    0  0.23071390118E-02  0.46319458359E-02  0.63932824785E-02  0.82409402736E-02  0.51109989000E-03 0. -1.
     -623    1    1    2    0    0  0.44592372006E-02  0.12223842961E-02  0.46365244006E-02  0.17124000013E+03  0.17124000000E+03 0. -1.
     -611    1    1    2    0    0  0.58658505422E-01 -0.21784908330E-01  0.45279906906E+01  0.45284230542E+01  0.51109989000E-03 0. -1.
      611    1    1    2    0    0 -0.65424881634E-01  0.15930578198E-01  0.96097947882E+00  0.96333588036E+00  0.51109989000E-03 0.  1.
</event>
<event>
 6   3  0.2312675E+03  0.9118800E+02  0.7818608E-02  0.1180000E+00
       11   -1    0    0    0    0  0.00000000000E+00  0.00000000000E+00  0.54999999763E+01  0.55000000000E+01  0.51109989000E-03 0. -1.
     -623   -1    0    0    0    0  0.00000000000E+00  0.00000000000E+00  0.93234578044E-11  0.17124000000E+03  0.17124000000E+03 0. -1.
       11    1    1    2    0    0  0.11638480625E-01 -0.25993051731E-01  0.78734689804E+00  0.78786197525E+00  0.51109989000E-03 0. -1.
     -623    1    1    2    0    0 -0.74710864911E-01 -0.76301599321E-02  0.11121090664E-02  0.17124001647E+03  0.17124000000E+03 0. -1.
     -611    1    1    2    0    0  0.40764841659E-01  0.28303953319E-01  0.36151115376E+01  0.36154521954E+01  0.51109989000E-03 0. -1.
      611    1    1    2    0    0  0.22307542625E-01  0.53192583436E-02  0.10964294314E+01  0.10966693577E+01  0.51109989000E-03 0.  1.
</event>
<event>
 6   3  0.2312675E+03  0.9118800E+02  0.7818608E-02  0.1180000E+00
       11   -1    0    0    0    0  0.00000000000E+00  0.00000000000E+00  0.54999999763E+01  0.55000000000E+01  0.51109989000E-03 0.  1.
     -623   -1    0    0    0    0  0.00000000000E+00  0.00000000000E+00  0.93234578044E-11  0.17124000000E+03  0.17124000000E+03 0.  1.
       11    1    1    2    0    0  0.21619172751E-02 -0.26545033720E-03  0.25595713835E+00  0.25596691631E+00  0.51109989000E-03 0. -1.
     -623    1    1    2    0    0 -0.56780115189E-01  0.10131468780E-01  0.31341050166E-03  0.17124000971E+03  0.17124000000E+03 0.  1.
     -611    1    1    2    0    0  0.36438112766E-01 -0.63960554950E-02  0.34503183926E+01  0.34505167609E+01  0.51109989000E-03 0.  1.
      611    1    1    2    0    0  0.18180084954E-01 -0.34699629131E-02  0.17934110159E+01  0.17935065903E+01  0.51109989000E-03 0. -1.
</event>
<event>
 6   3  0.2312675E+03  0.9118800E+02  0.7818608E-02  0.1180000E+00
       11   -1    0    0    0    0  0.00000000000E+00  0.00000000000E+00  0.54999999763E+01  0.55000000000E+01  0.51109989000E-03 0. -1.
     -623   -1    0    0    0    0  0.00000000000E+00  0.00000000000E+00  0.93234578044E-11  0.17124000000E+03  0.17124000000E+03 0.  1.
       11    1    1    2    0    0 -0.44347346134E-03  0.49594353906E-02  0.15700491496E+00  0.15708468166E+00  0.51109989000E-03 0. -1.
     -623    1    1    2    0    0 -0.59770927035E-01 -0.62332871222E-02  0.43482189582E-03  0.17124001055E+03  0.17124000000E+03 0.  1.
     -611    1    1    2    0    0  0.10835295832E-01  0.11153600522E-03  0.74052630952E+00  0.74060576044E+00  0.51109989000E-03 0.  1.
      611    1    1    2    0    0  0.49379104663E-01  0.11623157265E-02  0.46020339297E+01  0.46022990123E+01  0.51109989000E-03 0. -1.
</event>
<event>
 6   3  0.2312675E+03  0.9118800E+02  0.7818608E-02  0.1180000E+00
       11   -1    0    0    0    0  0.00000000000E+00  0.00000000000E+00  0.54999999763E+01  0.55000000000E+01  0.51109989000E-03 0.  1.
     -623   -1    0    0    0    0  0.00000000000E+00  0.00000000000E+00  0.93234578044E-11  0.17124000000E+03  0.17124000000E+03 0. -1.
       11    1    1    2    0    0  0.17975560368E-01 -0.84677953110E-02  0.48390035685E+00  0.48430841508E+00  0.51109989000E-03 0.  1.
     -623    1    1    2    0    0 -0.11802638869E-02 -0.31200630755E-02  0.17357997233E-02  0.17124000004E+03  0.17124000000E+03 0. -1.
     -611    1    1    2    0    0 -0.65159811741E-01 -0.20093419486E-04  0.30713009420E+01  0.30719921125E+01  0.51109989000E-03 0. -1.
      611    1    1    2    0    0  0.48364515260E-01  0.11607951806E-01  0.19430628776E+01  0.19436994311E+01  0.51109989000E-03 0.  1.
</event>
<event>
 6   3  0.2312675E+03  0.9118800E+02  0.7818608E-02  0.1180000E+00
       11   -1    0    0    0    0  0.00000000000E+00  0.00000000000E+00  0.54999999763E+01  0.55000000000E+01  0.51109989000E-03 0. -1.
     -623   -1    0    0    0    0  0.00000000000E+00  0.00000000000E+00  0.93234578044E-11  0.17124000000E+03  0.17124000000E+03 0.  1.
       11    1    1    2    0    0 -0.14095971004E+00 -0.13609473289E+00  0.64986970424E+00  0.67876528335E+00  0.51109989000E-03 0. -1.
     -623    1    1    2    0    0  0.17786298002E-01 -0.21382633430E-01  0.33261665967E-01  0.17124000549E+03  0.17124000000E+03 0.  1.
     -611    1    1    2    0    0  0.98538041426E-01  0.14949779391E+00  0.42443307078E+01  0.42481057843E+01  0.51109989000E-03 0. -1.
      611    1    1    2    0    0  0.24635370616E-01  0.79795724135E-02  0.57253789822E+00  0.57312344323E+00  0.51109989000E-03 0.  1.
</event>
<event>
 6   3  0.2312675E+03  0.9118800E+02  0.7818608E-02  0.1180000E+00
       11   -1    0    0    0    0  0.00000000000E+00  0.00000000000E+00  0.54999999763E+01  0.55000000000E+01  0.51109989000E-03 0. -1.
     -623   -1    0    0    0    0  0.00000000000E+00  0.00000000000E+00  0.93234578044E-11  0.17124000000E+03  0.17124000000E+03 0.  1.
       11    1    1    2    0    0  0.38429568389E-01 -0.44549157418E-01  0.49272542632E+00  0.49622582170E+00  0.51109989000E-03 0. -1.
     -623    1    1    2    0    0 -0.16473855689E-02  0.10145357833E-01  0.50349536908E-02  0.17124000038E+03  0.17124000000E+03 0.  1.
     -611    1    1    2    0    0 -0.69450032690E-01  0.51453569834E-01  0.37246560556E+01  0.37256588371E+01  0.51109989000E-03 0. -1.
      611    1    1    2    0    0  0.32667849870E-01 -0.17049770249E-01  0.12775835407E+01  0.12781149587E+01  0.51109989000E-03 0.  1.
</event>
<event>
 6   3  0.2312675E+03  0.9118800E+02  0.7818608E-02  0.1180000E+00
       11   -1    0    0    0    0  0.00000000000E+00  0.00000000000E+00  0.54999999763E+01  0.55000000000E+01  0.51109989000E-03 0. -1.
     -623   -1    0    0    0    0  0.00000000000E+00  0.00000000000E+00  0.93234578044E-11  0.17124000000E+03  0.17124000000E+03 0.  1.
       11    1    1    2    0    0 -0.14230389676E-02 -0.48875414272E-02  0.10348877282E-01  0.11544417924E-01  0.51109989000E-03 0. -1.
     -623    1    1    2    0    0 -0.74098603992E-03  0.27804664137E-02  0.17336909732E-02  0.17124000003E+03  0.17124000000E+03 0.  1.
     -611    1    1    2    0    0 -0.34169655524E-01 -0.14140987897E-01  0.25282007227E+01  0.25284712157E+01  0.51109989000E-03 0.  1.
      611    1    1    2    0    0  0.36333680532E-01  0.16248062910E-01  0.29597166854E+01  0.29599843335E+01  0.51109989000E-03 0. -1.
</event>
<event>
 6   3  0.2312675E+03  0.9118800E+02  0.7818608E-02  0.1180000E+00
       11   -1    0    0    0    0  0.00000000000E+00  0.00000000000E+00  0.54999999763E+01  0.55000000000E+01  0.51109989000E-03 0.  1.
     -623   -1    0    0    0    0  0.00000000000E+00  0.00000000000E+00  0.93234578044E-11  0.17124000000E+03  0.17124000000E+03 0.  1.
       11    1    1    2    0    0  0.11475866268E-01 -0.52445756864E-02  0.23133144930E+00  0.23167585489E+00  0.51109989000E-03 0.  1.
     -623    1    1    2    0    0 -0.87873482381E-01  0.21309330864E-01  0.94697470801E-03  0.17124002388E+03  0.17124000000E+03 0.  1.
     -611    1    1    2    0    0  0.43178571898E-01 -0.97124284457E-02  0.29955928191E+01  0.29959197786E+01  0.51109989000E-03 0. -1.
      611    1    1    2    0    0  0.33219044247E-01 -0.63523267382E-02  0.22721287354E+01  0.22723804937E+01  0.51109989000E-03 0.  1.
</event>
<event>
 6   3  0.2312675E+03  0.9118800E+02  0.7818608E-02  0.1180000E+00
       11   -1    0    0    0    0  0.00000000000E+00  0.00000000000E+00  0.54999999763E+01  0.55000000000E+01  0.51109989000E-03 0. -1.
     -623   -1    0    0    0    0  0.00000000000E+00  0.00000000000E+00  0.93234578044E-11  0.17124000000E+03  0.17124000000E+03 0.  1.
       11    1    1    2    0    0 -0.17749648908E-02 -0.58717738810E-03  0.15492016873E+00  0.15493229224E+00  0.51109989000E-03 0. -1.
     -623    1    1    2    0    0  0.57635405112E-01 -0.70562906514E-02  0.31994015933E-03  0.17124000985E+03  0.17124000000E+03 0.  1.
     -611    1    1    2    0    0 -0.48681045503E-01  0.61214402725E-02  0.46903576109E+01  0.46906142557E+01  0.51109989000E-03 0. -1.
      611    1    1    2    0    0 -0.71793946150E-02  0.15220277544E-02  0.65440224664E+00  0.65444359720E+00  0.51109989000E-03 0.  1.
</event>
<event>
 6   3  0.2312675E+03  0.9118800E+02  0.7818608E-02  0.1180000E+00
       11   -1    0    0    0    0  0.00000000000E+00  0.00000000000E+00  0.54999999763E+01  0.55000000000E+01  0.51109989000E-03 0.  1.
     -623   -1    0    0    0    0  0.00000000000E+00  0.00000000000E+00  0.93234578044E-11  0.17124000000E+03  0.17124000000E+03 0.  1.
       11    1    1    2    0    0 -0.29984178107E-02 -0.32602370153E-02  0.38904643948E-01  0.39159318158E-01  0.51109989000E-03 0.  1.
     -623    1    1    2    0    0 -0.12880364226E-03 -0.20728548897E-02  0.87642016743E-03  0.17124000001E+03  0.17124000000E+03 0.  1.
     -611    1    1    2    0    0 -0.38844403203E-01 -0.26519520975E-02  0.22416800448E+01  0.22420181991E+01  0.51109989000E-03 0. -1.
      611    1    1    2    0    0  0.41971624656E-01  0.79850440026E-02  0.32185388675E+01  0.32188224681E+01  0.51109989000E-03 0.  1.
</event>
<event>
 6   3  0.2312675E+03  0.9118800E+02  0.7818608E-02  0.1180000E+00
       11   -1    0    0    0    0  0.00000000000E+00  0.00000000000E+00  0.54999999763E+01  0.55000000000E+01  0.51109989000E-03 0. -1.
     -623   -1    0    0    0    0  0.00000000000E+00  0.00000000000E+00  0.93234578044E-11  0.17124000000E+03  0.17124000000E+03 0.  1.
       11    1    1    2    0    0  0.19750401971E-01  0.30372321355E-01  0.86141386259E+00  0.86217553907E+00  0.51109989000E-03 0. -1.
     -623    1    1    2    0    0  0.13957626216E-01 -0.30070622884E-01  0.14331482070E-02  0.17124000322E+03  0.17124000000E+03 0.  1.
     -611    1    1    2    0    0 -0.54082204359E-01 -0.11007327180E-01  0.35014313464E+01  0.35018663282E+01  0.51109989000E-03 0.  1.
      611    1    1    2    0    0  0.20374176172E-01  0.10705628709E-01  0.11357216191E+01  0.11359549176E+01  0.51109989000E-03 0. -1.
</event>
<event>
 6   3  0.2312675E+03  0.9118800E+02  0.7818608E-02  0.1180000E+00
       11   -1    0    0    0    0  0.00000000000E+00  0.00000000000E+00  0.54999999763E+01  0.55000000000E+01  0.51109989000E-03 0.  1.
     -623   -1    0    0    0    0  0.00000000000E+00  0.00000000000E+00  0.93234578044E-11  0.17124000000E+03  0.17124000000E+03 0. -1.
       11    1    1    2    0    0 -0.19415369821E-01 -0.26745223874E-02  0.98545820685E+00  0.98565320895E+00  0.51109989000E-03 0.  1.
     -623    1    1    2    0    0 -0.79823630639E-03  0.91124302828E-03  0.72172029017E-03  0.17124000001E+03  0.17124000000E+03 0. -1.
     -611    1    1    2    0    0 -0.21783698095E-01 -0.99615949142E-02  0.20598509692E+01  0.20599903008E+01  0.51109989000E-03 0.  1.
      611    1    1    2    0    0  0.41997304222E-01  0.11724874273E-01  0.24539690799E+01  0.24543564844E+01  0.51109989000E-03 0. -1.
</event>
<event>
 6   3  0.2312675E+03  0.9118800E+02  0.7818608E-02  0.1180000E+00
       11   -1    0    0    0    0  0.00000000000E+00  0.00000000000E+00  0.54999999763E+01  0.55000000000E+01  0.51109989000E-03 0. -1.
     -623   -1    0    0    0    0  0.00000000000E+00  0.00000000000E+00  0.93234578044E-11  0.17124000000E+03  0.17124000000E+03 0.  1.
       11    1    1    2    0    0 -0.43504554079E-01  0.12289488119E-02  0.92582201501E+00  0.92684455075E+00  0.51109989000E-03 0. -1.
     -623    1    1    2    0    0  0.35372768923E-02 -0.52993160900E-02  0.19614355321E-02  0.17124000013E+03  0.17124000000E+03 0.  1.
     -611    1    1    2    0    0  0.50899450449E-01 -0.18131876430E-01  0.40421490847E+01  0.40425102353E+01  0.51109989000E-03 0. -1.
      611    1    1    2    0    0 -0.10932173263E-01  0.22202243708E-01  0.53006744101E+00  0.53064508410E+00  0.51109989000E-03 0.  1.
</event>
<event>
 6   3  0.2312675E+03  0.9118800E+02  0.7818608E-02  0.1180000E+00
       11   -1    0    0    0    0  0.00000000000E+00  0.00000000000E+00  0.54999999763E+01  0.55000000000E+01  0.51109989000E-03 0. -1.
     -623   -1    0    0    0    0  0.00000000000E+00  0.00000000000E+00  0.93234578044E-11  0.17124000000E+03  0.17124000000E+03 0.  1.
       11    1    1    2    0    0  0.49877328514E-01 -0.14126288368E-01  0.49267503101E+00  0.49539504168E+00  0.51109989000E-03 0. -1.
     -623    1    1    2    0    0  0.64156563513E-02 -0.45918413707E-02  0.30739019644E-02  0.17124000021E+03  0.17124000000E+03 0.  1.
     -611    1    1    2    0    0 -0.16482746035E-01  0.49899548382E-02  0.12936491951E+01  0.12937639205E+01  0.51109989000E-03 0.  1.
      611    1    1    2    0    0 -0.39810238834E-01  0.13728174902E-01  0.37106018485E+01  0.37108408288E+01  0.51109989000E-03 0. -1.
</event>
<event>
 6   3  0.2312675E+03  0.9118800E+02  0.7818608E-02  0.1180000E+00
       11   -1    0    0    0    0  0.00000000000E+00  0.00000000000E+00  0.54999999763E+01  0.55000000000E+01  0.51109989000E-03 0. -1.
     -623   -1    0    0    0    0  0.00000000000E+00  0.00000000000E+00  0.93234578044E-11  0.17124000000E+03  0.17124000000E+03 0. -1.
       11    1    1    2    0    0 -0.25908502410E-01 -0.19160310056E-01  0.26838426795E+00  0.27031230916E+00  0.51109989000E-03 0. -1.
     -623    1    1    2    0    0 -0.26772238753E-01 -0.11324442956E-01  0.22848039235E-02  0.17124000248E+03  0.17124000000E+03 0. -1.
     -611    1    1    2    0    0  0.30510928563E-01  0.17624541611E-01  0.30219597553E+01  0.30221652114E+01  0.51109989000E-03 0. -1.
      611    1    1    2    0    0  0.22169812635E-01  0.12860211420E-01  0.22073711525E+01  0.22075200003E+01  0.51109989000E-03 0. -1.
</event>
<event>
 6   3  0.2312675E+03  0.9118800E+02  0.7818608E-02  0.1180000E+00
       11   -1    0    0    0    0  0.00000000000E+00  0.00000000000E+00  0.54999999763E+01  0.55000000000E+01  0.51109989000E-03 0. -1.
     -623   -1    0    0    0    0  0.00000000000E+00  0.00000000000E+00  0.93234578044E-11  0.17124000000E+03  0.17124000000E+03 0. -1.
       11    1    1    2    0    0 -0.41175734671E-01 -0.11541275022E-01  0.64902441883E+00  0.65043185625E+00  0.51109989000E-03 0. -1.
     -623    1    1    2    0    0  0.10018085037E-02  0.96139586050E-02  0.17360235588E-02  0.17124000028E+03  0.17124000000E+03 0. -1.
     -611    1    1    2    0    0  0.48207915582E-01  0.43235357536E-03  0.41991532793E+01  0.41994300464E+01  0.51109989000E-03 0. -1.
      611    1    1    2    0    0 -0.80339894142E-02  0.14949628417E-02  0.65008625450E+00  0.65013781571E+00  0.51109989000E-03 0.  1.
</event>
<event>
 6   3  0.2312675E+03  0.9118800E+02  0.7818608E-02  0.1180000E+00
       11   -1    0    0    0    0  0.00000000000E+00  0.00000000000E+00  0.54999999763E+01  0.55000000000E+01  0.51109989000E-03 0. -1.
     -623   -1    0    0    0    0  0.00000000000E+00  0.00000000000E+00  0.93234578044E-11  0.17124000000E+03  0.17124000000E+03 0.  1.
       11    1    1    2    0    0 -0.72778077345E-01  0.39283238716E-01  0.46894256539E+00  0.47617981083E+00  0.51109989000E-03 0. -1.
     -623    1    1    2    0    0 -0.19798947825E-01 -0.11023256677E-01  0.81938472104E-02  0.17124000170E+03  0.17124000000E+03 0.  1.
     -611    1    1    2    0    0  0.35342800673E-01 -0.18132103040E-01  0.21497731811E+01  0.21501401996E+01  0.51109989000E-03 0. -1.
      611    1    1    2    0    0  0.57234224498E-01 -0.10127879000E-01  0.28730903826E+01  0.28736782942E+01  0.51109989000E-03 0.  1.
</event>
<event>
 6   3  0.2312675E+03  0.9118800E+02  0.7818608E-02  0.1180000E+00
       11   -1    0    0    0    0  0.00000000000E+00  0.00000000000E+00  0.54999999763E+01  0.55000000000E+01  0.51109989000E-03 0. -1.
     -623   -1    0    0    0    0  0.00000000000E+00  0.00000000000E+00  0.93234578044E-11  0.17124000000E+03  0.17124000000E+03 0.  1.
       11    1    1    2    0    0 -0.59010519754E-01 -0.10502104393E+00  0.49364918538E+00  0.50813525813E+00  0.51109989000E-03 0. -1.
     -623    1    1    2    0    0 -0.71802940339E-02  0.27222038485E-01  0.15534807932E-01  0.17124000302E+03  0.17124000000E+03 0.  1.
     -611    1    1    2    0    0  0.28112714260E-01  0.31468568858E-01  0.20630915004E+01  0.20635230543E+01  0.51109989000E-03 0. -1.
      611    1    1    2    0    0  0.38078099547E-01  0.46330436611E-01  0.29277244839E+01  0.29283386700E+01  0.51109989000E-03 0. -1.
</event>
<event>
 6   3  0.2312675E+03  0.9118800E+02  0.7818608E-02  0.1180000E+00
       11   -1    0    0    0    0  0.00000000000E+00  0.00000000000E+00  0.54999999763E+01  0.55000000000E+01  0.51109989000E-03 0. -1.
     -623   -1    0    0    0    0  0.00000000000E+00  0.00000000000E+00  0.93234578044E-11  0.17124000000E+03  0.17124000000E+03 0. -1.
       11    1    1    2    0    0  0.99239667769E-02  0.48243337286E-02  0.10048726347E+01  0.10049333472E+01  0.51109989000E-03 0. -1.
     -623    1    1    2    0    0 -0.60635928656E-01 -0.24544008111E-01  0.40268930742E-03  0.17124001249E+03  0.17124000000E+03 0. -1.
     -611    1    1    2    0    0  0.38889137664E-01  0.15060622298E-01  0.34314972864E+01  0.34317507303E+01  0.51109989000E-03 0. -1.
      611    1    1    2    0    0  0.11822824879E-01  0.46590523528E-02  0.10632274261E+01  0.10633034876E+01  0.51109989000E-03 0. -1.
</event>
<event>
 6   3  0.2312675E+03  0.9118800E+02  0.7818608E-02  0.1180000E+00
       11   -1    0    0    0    0  0.00000000000E+00  0.00000000000E+00  0.54999999763E+01  0.55000000000E+01  0.51109989000E-03 0.  1.
     -623   -1    0    0    0    0  0.00000000000E+00  0.00000000000E+00  0.93234578044E-11  0.17124000000E+03  0.17124000000E+03 0. -1.
       11    1    1    2    0    0  0.70646236890E-03  0.27722555632E-01  0.34265683254E+00  0.34377755204E+00  0.51109989000E-03 0.  1.
     -623    1    1    2    0    0  0.22058334451E-01 -0.41912584891E-02  0.16724198199E-02  0.17124000148E+03  0.17124000000E+03 0. -1.
     -611    1    1    2    0    0  0.19218342481E-01 -0.21715990474E-01  0.13121747004E+01  0.13124951941E+01  0.51109989000E-03 0. -1.
      611    1    1    2    0    0 -0.41983139301E-01 -0.18153066687E-02  0.38434960236E+01  0.38437257738E+01  0.51109989000E-03 0.  1.
</event>
<event>
 6   3  0.2312675E+03  0.9118800E+02  0.7818608E-02  0.1180000E+00
       11   -1    0    0    0    0  0.00000000000E+00  0.00000000000E+00  0.54999999763E+01  0.55000000000E+01  0.51109989000E-03 0.  1.
     -623   -1    0    0    0    0  0.00000000000E+00  0.00000000000E+00  0.93234578044E-11  0.17124000000E+03  0.17124000000E+03 0. -1.
       11    1    1    2    0    0 -0.74348552331E-03  0.54494683455E-01  0.91678732675E+00  0.91840594892E+00  0.51109989000E-03 0.  1.
     -623    1    1    2    0    0 -0.85459767577E-02 -0.32113106777E-02  0.24485982162E-02  0.17124000026E+03  0.17124000000E+03 0. -1.
     -611    1    1    2    0    0 -0.27898099841E-01 -0.30746153226E-01  0.16523033346E+01  0.16528249153E+01  0.51109989000E-03 0. -1.
      611    1    1    2    0    0  0.37187562122E-01 -0.20537219552E-01  0.29284607167E+01  0.29287688749E+01  0.51109989000E-03 0.  1.
</event>
<event>
 6   3  0.2312675E+03  0.9118800E+02  0.7818608E-02  0.1180000E+00
       11   -1    0    0    0    0  0.00000000000E+00  0.00000000000E+00  0.54999999763E+01  0.55000000000E+01  0.51109989000E-03 0.  1.
     -623   -1    0    0    0    0  0.00000000000E+00  0.00000000000E+00  0.93234578044E-11  0.17124000000E+03  0.17124000000E+03 0. -1.
       11    1    1    2    0    0 -0.24941802783E-02 -0.15314827986E-01  0.56234958415E-01  0.58338637818E-01  0.51109989000E-03 0.  1.
     -623    1    1    2    0    0  0.77402240050E-02 -0.30987083582E-03  0.41462764701E-02  0.17124000023E+03  0.17124000000E+03 0. -1.
     -611    1    1    2    0    0  0.71237429940E-01  0.64746065756E-02  0.23944142038E+01  0.23954824843E+01  0.51109989000E-03 0. -1.
      611    1    1    2    0    0 -0.76483473667E-01  0.91500922459E-02  0.30452045376E+01  0.30461786525E+01  0.51109989000E-03 0.  1.
</event>
<event>
 6   3  0.2312675E+03  0.9118800E+02  0.7818608E-02  0.1180000E+00
       11   -1    0    0    0    0  0.00000000000E+00  0.00000000000E+00  0.54999999763E+01  0.55000000000E+01  0.51109989000E-03 0.  1.
     -623   -1    0    0    0    0  0.00000000000E+00  0.00000000000E+00  0.93234578044E-11  0.17124000000E+03  0.17124000000E+03 0.  1.
       11    1    1    2    0    0  0.17026591122E-01 -0.30388432905E-01  0.79492002633E+00  0.79568302178E+00  0.51109989000E-03 0.  1.
     -623    1    1    2    0    0  0.12265615921E-01  0.20306798389E-01  0.11269555762E-02  0.17124000165E+03  0.17124000000E+03 0.  1.
     -611    1    1    2    0    0  0.13960675338E-01  0.94304718662E-04  0.11820615033E+01  0.11821440555E+01  0.51109989000E-03 0.  1.
      611    1    1    2    0    0 -0.43252882380E-01  0.99873297976E-02  0.35218914910E+01  0.35221712755E+01  0.51109989000E-03 0. -1.
</event>
<event>
 6   3  0.2312675E+03  0.9118800E+02  0.7818608E-02  0.1180000E+00
       11   -1    0    0    0    0  0.00000000000E+00  0.00000000000E+00  0.54999999763E+01  0.55000000000E+01  0.51109989000E-03 0.  1.
     -623   -1    0    0    0    0  0.00000000000E+00  0.00000000000E+00  0.93234578044E-11  0.17124000000E+03  0.17124000000E+03 0. -1.
       11    1    1    2    0    0 -0.64720431703E-02  0.16882206324E-02  0.21899233365E-01  0.22903604013E-01  0.51109989000E-03 0.  1.
     -623    1    1    2    0    0  0.68220955615E-01  0.10576386945E-01  0.13833966749E-02  0.17124001392E+03  0.17124000000E+03 0. -1.
     -611    1    1    2    0    0 -0.26992569256E-01 -0.71830149268E-02  0.22250977723E+01  0.22252731410E+01  0.51109989000E-03 0.  1.
      611    1    1    2    0    0 -0.34756343189E-01 -0.50815926502E-02  0.32516195739E+01  0.32518093334E+01  0.51109989000E-03 0. -1.
</event>
<event>
 6   3  0.2312675E+03  0.9118800E+02  0.7818608E-02  0.1180000E+00
       11   -1    0    0    0    0  0.00000000000E+00  0.00000000000E+00  0.54999999763E+01  0.55000000000E+01  0.51109989000E-03 0.  1.
     -623   -1    0    0    0    0  0.00000000000E+00  0.00000000000E+00  0.93234578044E-11  0.17124000000E+03  0.17124000000E+03 0.  1.
       11    1    1    2    0    0 -0.50528957971E-01 -0.47255479220E-02  0.10022874627E+01  0.10035715846E+01  0.51109989000E-03 0.  1.
     -623    1    1    2    0    0 -0.76281958299E-02 -0.15763186096E-01  0.17120281438E-02  0.17124000090E+03  0.17124000000E+03 0.  1.
     -611    1    1    2    0    0  0.48037779726E-01  0.17409327067E-01  0.35492581110E+01  0.35496259117E+01  0.51109989000E-03 0.  1.
      611    1    1    2    0    0  0.10119374075E-01  0.30794069508E-02  0.94674237438E+00  0.94680159968E+00  0.51109989000E-03 0. -1.
</event>
<event>
 6   3  0.2312675E+03  0.9118800E+02  0.7818608E-02  0.1180000E+00
       11   -1    0    0    0    0  0.00000000000E+00  0.00000000000E+00  0.54999999763E+01  0.55000000000E+01  0.51109989000E-03 0.  1.
     -623   -1    0    0    0    0  0.00000000000E+00  0.00000000000E+00  0.93234578044E-11  0.17124000000E+03  0.17124000000E+03 0.  1.
       11    1    1    2    0    0  0.40507856924E-02 -0.48314464246E-03  0.28393797967E-01  0.28689915991E-01  0.51109989000E-03 0.  1.
     -623    1    1    2    0    0  0.13580733079E-04  0.18915821659E-02  0.13160371566E-02  0.17124000002E+03  0.17124000000E+03 0.  1.
     -611    1    1    2    0    0 -0.41178290016E-01  0.34202328471E-01  0.24816630077E+01  0.24822403179E+01  0.51109989000E-03 0. -1.
      611    1    1    2    0    0  0.37113923591E-01 -0.35610765995E-01  0.29886271337E+01  0.29890697508E+01  0.51109989000E-03 0.  1.
</event>
<event>
 6   3  0.2312675E+03  0.9118800E+02  0.7818608E-02  0.1180000E+00
       11   -1    0    0    0    0  0.00000000000E+00  0.00000000000E+00  0.54999999763E+01  0.55000000000E+01  0.51109989000E-03 0.  1.
     -623   -1    0    0    0    0  0.00000000000E+00  0.00000000000E+00  0.93234578044E-11  0.17124000000E+03  0.17124000000E+03 0. -1.
       11    1    1    2    0    0 -0.37700106154E-01 -0.46032729701E-01  0.10221855142E+01  0.10239159130E+01  0.51109989000E-03 0.  1.
     -623    1    1    2    0    0 -0.19280728466E-01  0.16408791169E-02  0.23197456088E-02  0.17124000111E+03  0.17124000000E+03 0. -1.
     -611    1    1    2    0    0  0.63489061023E-02  0.44402060476E-02  0.62315934739E+00  0.62320771617E+00  0.51109989000E-03 0. -1.
      611    1    1    2    0    0  0.50631928518E-01  0.39951644538E-01  0.38523353691E+01  0.38528752618E+01  0.51109989000E-03 0.  1.
</event>
<event>
 6   3  0.2312675E+03  0.9118800E+02  0.7818608E-02  0.1180000E+00
       11   -1    0    0    0    0  0.00000000000E+00  0.00000000000E+00  0.54999999763E+01  0.55000000000E+01  0.51109989000E-03 0.  1.
     -623   -1    0    0    0    0  0.00000000000E+00  0.00000000000E+00  0.93234578044E-11  0.17124000000E+03  0.17124000000E+03 0.  1.
       11    1    1    2    0    0  0.41891920533E-01 -0.64775420025E-02  0.84397003153E+00  0.84503406257E+00  0.51109989000E-03 0.  1.
     -623    1    1    2    0    0  0.24343481737E-01 -0.42128580835E-01  0.18009665030E-02  0.17124000692E+03  0.17124000000E+03 0.  1.
     -611    1    1    2    0    0 -0.22718997432E-01  0.15653074763E-01  0.13942468455E+01  0.13945198812E+01  0.51109989000E-03 0.  1.
      611    1    1    2    0    0 -0.43516404840E-01  0.32953048076E-01  0.32599821328E+01  0.32604391343E+01  0.51109989000E-03 0.  1.
</event>
<event>
 6   3  0.2312675E+03  0.9118800E+02  0.7818608E-02  0.1180000E+00
       11   -1    0    0    0    0  0.00000000000E+00  0.00000000000E+00  0.54999999763E+01  0.55000000000E+01  0.51109989000E-03 0. -1.
     -623   -1    0    0    0    0  0.00000000000E+00  0.00000000000E+00  0.93234578044E-11  0.17124000000E+03  0.17124000000E+03 0. -1.
       11    1    1    2    0    0  0.80049297578E-02  0.18841808622E-02  0.50511774272E+00  0.50518494066E+00  0.51109989000E-03 0. -1.
     -623    1    1    2    0    0 -0.62450559758E-01 -0.49714795614E-01  0.61695496463E-03  0.17124001861E+03  0.17124000000E+03 0. -1.
     -611    1    1    2    0    0  0.41934779683E-01  0.33455213007E-01  0.38121313439E+01  0.38125088093E+01  0.51109989000E-03 0. -1.
      611    1    1    2    0    0  0.12510850352E-01  0.14375401773E-01  0.11821339378E+01  0.11822876476E+01  0.51109989000E-03 0.  1.
</event>
<event>
 6   3  0.2312675E+03  0.9118800E+02  0.7818608E-02  0.1180000E+00
       11   -1    0    0    0    0  0.00000000000E+00  0.00000000000E+00  0.54999999763E+01  0.55000000000E+01  0.51109989000E-03 0. -1.
     -623   -1    0    0    0    0  0.00000000000E+00  0.00000000000E+00  0.93234578044E-11  0.17124000000E+03  0.17124000000E+03 0.  1.
       11    1    1    2    0    0 -0.62040369839E-01 -0.24675457077E-01  0.24928336453E+00  0.25807042202E+00  0.51109989000E-03 0. -1.
     -623    1    1    2    0    0  0.10767098032E-02  0.89834606067E-02  0.91656941540E-02  0.17124000048E+03  0.17124000000E+03 0.  1.
     -611    1    1    2    0    0  0.49311417067E-01  0.12612448402E-01  0.42458920222E+01  0.42461971239E+01  0.51109989000E-03 0. -1.
      611    1    1    2    0    0  0.11652242979E-01  0.30795480713E-02  0.99565889629E+00  0.99573197064E+00  0.51109989000E-03 0. -1.
</event>
<event>
 6   3  0.2312675E+03  0.9118800E+02  0.7818608E-02  0.1180000E+00
       11   -1    0    0    0    0  0.00000000000E+00  0.00000000000E+00  0.54999999763E+01  0.55000000000E+01  0.51109989000E-03 0.  1.
     -623   -1    0    0    0    0  0.00000000000E+00  0.00000000000E+00  0.93234578044E-11  0.17124000000E+03  0.17124000000E+03 0.  1.
       11    1    1    2    0    0  0.88685179547E-01 -0.14481633108E+00  0.73830980004E+00  0.75758725760E+00  0.51109989000E-03 0.  1.
     -623    1    1    2    0    0 -0.22830867719E-01  0.36395563825E-01  0.21047431346E-01  0.17124000668E+03  0.17124000000E+03 0.  1.
     -611    1    1    2    0    0 -0.45123920060E-01  0.64486501396E-01  0.33200807407E+01  0.33210135596E+01  0.51109989000E-03 0.  1.
      611    1    1    2    0    0 -0.20730391768E-01  0.43934265855E-01  0.14205620042E+01  0.14213924996E+01  0.51109989000E-03 0. -1.
</event>
<event>
 6   3  0.2312675E+03  0.9118800E+02  0.7818608E-02  0.1180000E+00
       11   -1    0    0    0    0  0.00000000000E+00  0.00000000000E+00  0.54999999763E+01  0.55000000000E+01  0.51109989000E-03 0. -1.
     -623   -1    0    0    0    0  0.00000000000E+00  0.00000000000E+00  0.93234578044E-11  0.17124000000E+03  0.17124000000E+03 0.  1.
       11    1    1    2    0    0 -0.32027389394E-02 -0.11516434344E-02  0.79219917187E+00  0.79220664788E+00  0.51109989000E-03 0. -1.
     -623    1    1    2    0    0  0.21247391784E-01 -0.49109582991E-02  0.63387146978E-03  0.17124000139E+03  0.17124000000E+03 0.  1.
     -611    1    1    2    0    0 -0.46911389910E-01  0.87203824499E-02  0.29226021642E+01  0.29229916858E+01  0.51109989000E-03 0.  1.
      611    1    1    2    0    0  0.28866737065E-01 -0.26577807163E-02  0.17845647687E+01  0.17848002766E+01  0.51109989000E-03 0. -1.
</event>
<event>
 6   3  0.2312675E+03  0.9118800E+02  0.7818608E-02  0.1180000E+00
       11   -1    0    0    0    0  0.00000000000E+00  0.00000000000E+00  0.54999999763E+01  0.55000000000E+01  0.51109989000E-03 0.  1.
     -623   -1    0    0    0    0  0.00000000000E+00  0.00000000000E+00  0.93234578044E-11  0.17124000000E+03  0.17124000000E+03 0. -1.
       11    1    1    2    0    0  0.34613134779E-01  0.42408067524E-02  0.49999870402E+00  0.50121354609E+00  0.51109989000E-03 0.  1.
     -623    1    1    2    0    0  0.19428579280E-01 -0.29321225755E-01  0.15737489228E-02  0.17124000362E+03  0.17124000000E+03 0. -1.
     -611    1    1    2    0    0 -0.83422790603E-02  0.36535477787E-02  0.78069738192E+00  0.78075066788E+00  0.51109989000E-03 0.  1.
      611    1    1    2    0    0 -0.45699434982E-01  0.21426871216E-01  0.42177301398E+01  0.42180321647E+01  0.51109989000E-03 0.  1.
</event>
<event>
 6   3  0.2312675E+03  0.9118800E+02  0.7818608E-02  0.1180000E+00
       11   -1    0    0    0    0  0.00000000000E+00  0.00000000000E+00  0.54999999763E+01  0.55000000000E+01  0.51109989000E-03 0. -1.
     -623   -1    0    0    0    0  0.00000000000E+00  0.00000000000E+00  0.93234578044E-11  0.17124000000E+03  0.17124000000E+03 0. -1.
       11    1    1    2    0    0  0.81320784038E-01 -0.18107094023E-02  0.92833367256E+00  0.93189056086E+00  0.51109989000E-03 0. -1.
     -623    1    1    2    0    0  0.21215019324E-01 -0.58969140938E-03  0.47100685088E-02  0.17124000138E+03  0.17124000000E+03 0. -1.
     -611    1    1    2    0    0 -0.69589633357E-01  0.14088161280E-02  0.31220032471E+01  0.31227790889E+01  0.51109989000E-03 0. -1.
      611    1    1    2    0    0 -0.32946170025E-01  0.99158468413E-03  0.14449529890E+01  0.14453289712E+01  0.51109989000E-03 0. -1.
</event>
<event>
 6   3  0.2312675E+03  0.9118800E+02  0.7818608E-02  0.1180000E+00
       11   -1    0    0    0    0  0.00000000000E+00  0.00000000000E+00  0.54999999763E+01  0.55000000000E+01  0.51109989000E-03 0. -1.
     -623   -1    0    0    0    0  0.00000000000E+00  0.00000000000E+00  0.93234578044E-11  0.17124000000E+03  0.17124000000E+03 0.  1.
       11    1    1    2    0    0 -0.81380707836E-02  0.41547601564E-02  0.10880940926E-01  0.14217817223E-01  0.51109989000E-03 0. -1.
     -623    1    1    2    0    0  0.39217543355E-02 -0.81906831534E-03  0.73989856147E-02  0.17124000021E+03  0.17124000000E+03 0.  1.
     -611    1    1    2    0    0 -0.10192228274E+00 -0.86335288266E-02  0.31111086992E+01  0.31127897920E+01  0.51109989000E-03 0. -1.
      611    1    1    2    0    0  0.10613859919E+00  0.52978369855E-02  0.23706113505E+01  0.23729921841E+01  0.51109989000E-03 0.  1.
</event>
<event>
 6   3  0.2312675E+03  0.9118800E+02  0.7818608E-02  0.1180000E+00
       11   -1    0    0    0    0  0.00000000000E+00  0.00000000000E+00  0.54999999763E+01  0.55000000000E+01  0.51109989000E-03 0. -1.
     -623   -1    0    0    0    0  0.00000000000E+00  0.00000000000E+00  0.93234578044E-11  0.17124000000E+03  0.17124000000E+03 0. -1.
       11    1    1    2    0    0  0.76672358328E-02  0.17949617907E-02  0.95479012981E-01  0.95804548619E-01  0.51109989000E-03 0. -1.
     -623    1    1    2    0    0 -0.20971736626E-02 -0.34035237765E-02  0.13914094516E-02  0.17124000005E+03  0.17124000000E+03 0. -1.
     -611    1    1    2    0    0 -0.55036480273E-01 -0.10444900515E-01  0.30591250482E+01  0.30596379576E+01  0.51109989000E-03 0. -1.
      611    1    1    2    0    0  0.49466418103E-01  0.12053462501E-01  0.23440045058E+01  0.23445574416E+01  0.51109989000E-03 0.  1.
</event>
<event>
 6   3  0.2312675E+03  0.9118800E+02  0.7818608E-02  0.1180000E+00
       11   -1    0    0    0    0  0.00000000000E+00  0.00000000000E+00  0.54999999763E+01  0.55000000000E+01  0.51109989000E-03 0.  1.
     -623   -1    0    0    0    0  0.00000000000E+00  0.00000000000E+00  0.93234578044E-11  0.17124000000E+03  0.17124000000E+03 0. -1.
       11    1    1    2    0    0 -0.68685574110E-03  0.27871259788E-02  0.14118165645E+00  0.14121176008E+00  0.51109989000E-03 0.  1.
     -623    1    1    2    0    0  0.39164338024E-03  0.25317009122E-02  0.57821227503E-03  0.17124000002E+03  0.17124000000E+03 0. -1.
     -611    1    1    2    0    0  0.38027674247E-01 -0.10356956034E-02  0.30214186173E+01  0.30216581374E+01  0.51109989000E-03 0. -1.
      611    1    1    2    0    0 -0.37732461886E-01 -0.42831312876E-02  0.23368214900E+01  0.23371300822E+01  0.51109989000E-03 0.  1.
</event>
<event>
 6   3  0.2312675E+03  0.9118800E+02  0.7818608E-02  0.1180000E+00
       11   -1    0    0    0    0  0.00000000000E+00  0.00000000000E+00  0.54999999763E+01  0.55000000000E+01  0.51109989000E-03 0. -1.
     -623   -1    0    0    0    0  0.00000000000E+00  0.00000000000E+00  0.93234578044E-11  0.17124000000E+03  0.17124000000E+03 0.  1.
       11    1    1    2    0    0 -0.64739569716E-02  0.94729125117E-02  0.54782848159E+00  0.54794886135E+00  0.51109989000E-03 0. -1.
     -623    1    1    2    0    0 -0.10413760278E-01 -0.54698999431E-02  0.45892058122E-03  0.17124000040E+03  0.17124000000E+03 0.  1.
     -611    1    1    2    0    0  0.37108141854E-01 -0.14323596493E-02  0.34455520704E+01  0.34457522251E+01  0.51109989000E-03 0. -1.
      611    1    1    2    0    0 -0.20220424605E-01 -0.25706529193E-02  0.15061605037E+01  0.15062985089E+01  0.51109989000E-03 0.  1.
</event>
<event>
 6   3  0.2312675E+03  0.9118800E+02  0.7818608E-02  0.1180000E+00
       11   -1    0    0    0    0  0.00000000000E+00  0.00000000000E+00  0.54999999763E+01  0.55000000000E+01  0.51109989000E-03 0.  1.
     -623   -1    0    0    0    0  0.00000000000E+00  0.00000000000E+00  0.93234578044E-11  0.17124000000E+03  0.17124000000E+03 0.  1.
       11    1    1    2    0    0 -0.21684235293E-02  0.38907227760E-03  0.10218219483E-01  0.10465499049E-01  0.51109989000E-03 0.  1.
     -623    1    1    2    0    0  0.16674774543E-02 -0.75694276186E-04  0.13796841678E-02  0.17124000001E+03  0.17124000000E+03 0.  1.
     -611    1    1    2    0    0 -0.36770499696E-01 -0.39779780514E-01  0.21052283295E+01  0.21059252317E+01  0.51109989000E-03 0. -1.
      611    1    1    2    0    0  0.37271445771E-01  0.39466402512E-01  0.33831737431E+01  0.33836092556E+01  0.51109989000E-03 0.  1.
</event>
<event>
 6   3  0.2312675E+03  0.9118800E+02  0.7818608E-02  0.1180000E+00
       11   -1    0    0    0    0  0.00000000000E+00  0.00000000000E+00  0.54999999763E+01  0.55000000000E+01  0.51109989000E-03 0.  1.
     -623   -1    0    0    0    0  0.00000000000E+00  0.00000000000E+00  0.93234578044E-11  0.17124000000E+03  0.17124000000E+03 0.  1.
       11    1    1    2    0    0 -0.99078741084E-02  0.20816351273E-01  0.78574999388E+00  0.78608829056E+00  0.51109989000E-03 0.  1.
     -623    1    1    2    0    0 -0.72384700696E-01  0.40066072325E-01  0.14704067929E-02  0.17124001999E+03  0.17124000000E+03 0.  1.
     -611    1    1    2    0    0  0.45487768206E-01 -0.34257977633E-01  0.26613238985E+01  0.26619331134E+01  0.51109989000E-03 0. -1.
      611    1    1    2    0    0  0.36804806552E-01 -0.26624445932E-01  0.20514556745E+01  0.20519586010E+01  0.51109989000E-03 0.  1.
</event>
<event>
 6   3  0.2312675E+03  0.9118800E+02  0.7818608E-02  0.1180000E+00
       11   -1    0    0    0    0  0.00000000000E+00  0.00000000000E+00  0.54999999763E+01  0.55000000000E+01  0.51109989000E-03 0.  1.
     -623   -1    0    0    0    0  0.00000000000E+00  0.00000000000E+00  0.93234578044E-11  0.17124000000E+03  0.17124000000E+03 0. -1.
       11    1    1    2    0    0 -0.28988288390E-02 -0.24944157937E-01  0.57667962002E+00  0.57722635040E+00  0.51109989000E-03 0.  1.
     -623    1    1    2    0    0  0.67601192887E-01  0.61949534364E-02  0.10213328438E-02  0.17124001346E+03  0.17124000000E+03 0. -1.
     -611    1    1    2    0    0 -0.21881732516E-01  0.60915368019E-02  0.16278441021E+01  0.16280026409E+01  0.51109989000E-03 0. -1.
      611    1    1    2    0    0 -0.42820631580E-01  0.12657667711E-01  0.32944549250E+01  0.32947575536E+01  0.51109989000E-03 0.  1.
</event>
<event>
 6   3  0.2312675E+03  0.9118800E+02  0.7818608E-02  0.1180000E+00
       11   -1    0    0    0    0  0.00000000000E+00  0.00000000000E+00  0.54999999763E+01  0.55000000000E+01  0.51109989000E-03 0. -1.
     -623   -1    0    0    0    0  0.00000000000E+00  0.00000000000E+00  0.93234578044E-11  0.17124000000E+03  0.17124000000E+03 0.  1.
       11    1    1    2    0    0  0.45303436519E-01  0.38681170127E-01  0.72278812310E+00  0.72523897193E+00  0.51109989000E-03 0. -1.
     -623    1    1    2    0    0  0.97348070008E-02  0.18164749974E-01  0.31085571562E-02  0.17124000127E+03  0.17124000000E+03 0.  1.
     -611    1    1    2    0    0 -0.78985837782E-02 -0.88999465506E-02  0.67797240884E+00  0.67807702000E+00  0.51109989000E-03 0. -1.
      611    1    1    2    0    0 -0.47139659733E-01 -0.47945973542E-01  0.40961308865E+01  0.40966827391E+01  0.51109989000E-03 0. -1.
</event>
<event>
 6   3  0.2312675E+03  0.9118800E+02  0.7818608E-02  0.1180000E+00
       11   -1    0    0    0    0  0.00000000000E+00  0.00000000000E+00  0.54999999763E+01  0.55000000000E+01  0.51109989000E-03 0.  1.
     -623   -1    0    0    0    0  0.00000000000E+00  0.00000000000E+00  0.93234578044E-11  0.17124000000E+03  0.17124000000E+03 0. -1.
       11    1    1    2    0    0 -0.87798848042E-03  0.66055731590E-02  0.10554815724E-01  0.12492790665E-01  0.51109989000E-03 0.  1.
     -623    1    1    2    0    0  0.10948186298E-01 -0.24128367091E-02  0.25664772587E-02  0.17124000039E+03  0.17124000000E+03 0. -1.
     -611    1    1    2    0    0  0.34298372389E-01 -0.13943313154E-01  0.27866728740E+01  0.27869188654E+01  0.51109989000E-03 0.  1.
      611    1    1    2    0    0 -0.44368570207E-01  0.97505767039E-02  0.27002058093E+01  0.27005879578E+01  0.51109989000E-03 0. -1.
</event>
<event>
 6   3  0.2312675E+03  0.9118800E+02  0.7818608E-02  0.1180000E+00
       11   -1    0    0    0    0  0.00000000000E+00  0.00000000000E+00  0.54999999763E+01  0.55000000000E+01  0.51109989000E-03 0. -1.
     -623   -1    0    0    0    0  0.00000000000E+00  0.00000000000E+00  0.93234578044E-11  0.17124000000E+03  0.17124000000E+03 0. -1.
       11    1    1    2    0    0  0.74593491458E-02 -0.99699370540E-02  0.16381761092E+00  0.16429093829E+00  0.51109989000E-03 0. -1.
     -623    1    1    2    0    0  0.94942967169E-02  0.46097013722E-02  0.20588802175E-02  0.17124000034E+03  0.17124000000E+03 0. -1.
     -611    1    1    2    0    0 -0.46004542274E-01  0.55476790149E-01  0.28813410686E+01  0.28822423054E+01  0.51109989000E-03 0. -1.
      611    1    1    2    0    0  0.29050896411E-01 -0.50116554468E-01  0.24527824165E+01  0.24534664187E+01  0.51109989000E-03 0.  1.
</event>
<event>
 6   3  0.2312675E+03  0.9118800E+02  0.7818608E-02  0.1180000E+00
       11   -1    0    0    0    0  0.00000000000E+00  0.00000000000E+00  0.54999999763E+01  0.55000000000E+01  0.51109989000E-03 0.  1.
     -623   -1    0    0    0    0  0.00000000000E+00  0.00000000000E+00  0.93234578044E-11  0.17124000000E+03  0.17124000000E+03 0.  1.
       11    1    1    2    0    0 -0.36096307938E-01 -0.25053733059E-01  0.10229366179E+01  0.10238799824E+01  0.51109989000E-03 0.  1.
     -623    1    1    2    0    0 -0.12925012988E-01  0.85132517086E-02  0.12432086969E-02  0.17124000070E+03  0.17124000000E+03 0.  1.
     -611    1    1    2    0    0  0.33964898060E-01  0.11569427607E-01  0.30886970806E+01  0.30889055316E+01  0.51109989000E-03 0.  1.
      611    1    1    2    0    0  0.15056422888E-01  0.49710537508E-02  0.13871230710E+01  0.13872137840E+01  0.51109989000E-03 0.  1.
</event>
<event>
 6   3  0.2312675E+03  0.9118800E+02  0.7818608E-02  0.1180000E+00
       11   -1    0    0    0    0  0.00000000000E+00  0.00000000000E+00  0.54999999763E+01  0.55000000000E+01  0.51109989000E-03 0. -1.
     -623   -1    0    0    0    0  0.00000000000E+00  0.00000000000E+00  0.93234578044E-11  0.17124000000E+03  0.17124000000E+03 0. -1.
       11    1    1    2    0    0  0.14212706508E-02  0.27506105176E-02  0.23006837121E-01  0.23219854563E-01  0.51109989000E-03 0. -1.
     -623    1    1    2    0    0  0.13590947531E-02 -0.19691419350E-02  0.78334715228E-03  0.17124000002E+03  0.17124000000E+03 0. -1.
     -611    1    1    2    0    0  0.29533888240E-01  0.24186319284E-01  0.27083803440E+01  0.27086494010E+01  0.51109989000E-03 0.  1.
      611    1    1    2    0    0 -0.32314253644E-01 -0.24967787866E-01  0.27678294480E+01  0.27681307259E+01  0.51109989000E-03 0. -1.
</event>
<event>
 6   3  0.2312675E+03  0.9118800E+02  0.7818608E-02  0.1180000E+00
       11   -1    0    0    0    0  0.00000000000E+00  0.00000000000E+00  0.54999999763E+01  0.55000000000E+01  0.51109989000E-03 0.  1.
     -623   -1    0    0    0    0  0.00000000000E+00  0.00000000000E+00  0.93234578044E-11  0.17124000000E+03  0.17124000000E+03 0.  1.
       11    1    1    2    0    0  0.11900155557E-01  0.36885703795E-01  0.82410633537E+00  0.82501738289E+00  0.51109989000E-03 0.  1.
     -623    1    1    2    0    0 -0.20013117809E-01 -0.33386815022E-02  0.30332131759E-02  0.17124000123E+03  0.17124000000E+03 0.  1.
     -611    1    1    2    0    0  0.36122612741E-01 -0.76471678176E-01  0.22714931552E+01  0.22730671297E+01  0.51109989000E-03 0. -1.
      611    1    1    2    0    0 -0.28009650489E-01  0.42924655884E-01  0.24013672725E+01  0.24019142586E+01  0.51109989000E-03 0.  1.
</event>
<event>
 6   3  0.2312675E+03  0.9118800E+02  0.7818608E-02  0.1180000E+00
       11   -1    0    0    0    0  0.00000000000E+00  0.00000000000E+00  0.54999999763E+01  0.55000000000E+01  0.51109989000E-03 0.  1.
     -623   -1    0    0    0    0  0.00000000000E+00  0.00000000000E+00  0.93234578044E-11  0.17124000000E+03  0.17124000000E+03 0.  1.
       11    1    1    2    0    0  0.60450746122E-01 -0.54903166293E-01  0.82284839687E+00  0.82689080043E+00  0.51109989000E-03 0.  1.
     -623    1    1    2    0    0 -0.82799267632E-02  0.10774845394E-01  0.45428413145E-02  0.17124000060E+03  0.17124000000E+03 0.  1.
     -611    1    1    2    0    0 -0.42105547209E-01  0.35483400417E-01  0.37414104590E+01  0.37418156600E+01  0.51109989000E-03 0.  1.
      611    1    1    2    0    0 -0.10065272189E-01  0.86449205155E-02  0.93119828253E+00  0.93129294369E+00  0.51109989000E-03 0.  1.
</event>
<event>
 6   3  0.2312675E+03  0.9118800E+02  0.7818608E-02  0.1180000E+00
       11   -1    0    0    0    0  0.00000000000E+00  0.00000000000E+00  0.54999999763E+01  0.55000000000E+01  0.51109989000E-03 0.  1.
     -623   -1    0    0    0    0  0.00000000000E+00  0.00000000000E+00  0.93234578044E-11  0.17124000000E+03  0.17124000000E+03 0. -1.
       11    1    1    2    0    0 -0.10494763307E-01 -0.37581318148E-01  0.89075552406E+00  0.89160987007E+00  0.51109989000E-03 0.  1.
     -623    1    1    2    0    0  0.97201361785E-02 -0.23806022863E-02  0.21201251890E-02  0.17124000031E+03  0.17124000000E+03 0. -1.
     -611    1    1    2    0    0  0.40247318832E-01 -0.10287615230E-01  0.13513056991E+01  0.13519441687E+01  0.51109989000E-03 0. -1.
      611    1    1    2    0    0 -0.39472691704E-01  0.50249535665E-01  0.32558186280E+01  0.32564456557E+01  0.51109989000E-03 0.  1.
</event>
<event>
 6   3  0.2312675E+03  0.9118800E+02  0.7818608E-02  0.1180000E+00
       11   -1    0    0    0    0  0.00000000000E+00  0.00000000000E+00  0.54999999763E+01  0.55000000000E+01  0.51109989000E-03 0.  1.
     -623   -1    0    0    0    0  0.00000000000E+00  0.00000000000E+00  0.93234578044E-11  0.17124000000E+03  0.17124000000E+03 0. -1.
       11    1    1    2    0    0  0.38980630253E-01  0.11435340813E-01  0.20501233384E+00  0.20899898278E+00  0.51109989000E-03 0.  1.
     -623    1    1    2    0    0  0.88733325320E-01 -0.38207572930E-02  0.55725399265E-02  0.17124002312E+03  0.17124000000E+03 0. -1.
     -611    1    1    2    0    0 -0.53759223142E-01 -0.89712666993E-03  0.19819910063E+01  0.19827202196E+01  0.51109989000E-03 0. -1.
      611    1    1    2    0    0 -0.73954732431E-01 -0.67174568500E-02  0.33074240962E+01  0.33082576744E+01  0.51109989000E-03 0.  1.
</event>
<event>
 6   3  0.2312675E+03  0.9118800E+02  0.7818608E-02  0.1180000E+00
       11   -1    0    0    0    0  0.00000000000E+00  0.00000000000E+00  0.54999999763E+01  0.55000000000E+01  0.51109989000E-03 0.  1.
     -623   -1    0    0    0    0  0.00000000000E+00  0.00000000000E+00  0.93234578044E-11  0.17124000000E+03  0.17124000000E+03 0.  1.
       11    1    1    2    0    0 -0.51923636027E-01  0.22918370097E-01  0.99930556059E+00  0.10009161705E+01  0.51109989000E-03 0.  1.
     -623    1    1    2    0    0  0.13955153793E-02 -0.11040595636E-01  0.19106936278E-02  0.17124000037E+03  0.17124000000E+03 0.  1.
     -611    1    1    2    0    0  0.42122072297E-01 -0.10118265177E-01  0.37778752999E+01  0.37781236998E+01  0.51109989000E-03 0.  1.
      611    1    1    2    0    0  0.84060483519E-02 -0.17595092839E-02  0.72090842221E+00  0.72095975752E+00  0.51109989000E-03 0. -1.
</event>
<event>
 6   3  0.2312675E+03  0.9118800E+02  0.7818608E-02  0.1180000E+00
       11   -1    0    0    0    0  0.00000000000E+00  0.00000000000E+00  0.54999999763E+01  0.55000000000E+01  0.51109989000E-03 0. -1.
     -623   -1    0    0    0    0  0.00000000000E+00  0.00000000000E+00  0.93234578044E-11  0.17124000000E+03  0.17124000000E+03 0.  1.
       11    1    1    2    0    0 -0.24303017876E-01 -0.65505577778E-02  0.14778257587E+00  0.14991163210E+00  0.51109989000E-03 0. -1.
     -623    1    1    2    0    0  0.14684754416E-01  0.64430353011E-01  0.79076842532E-02  0.17124001293E+03  0.17124000000E+03 0.  1.
     -611    1    1    2    0    0  0.10443043667E+00 -0.60375562062E-01  0.15905648709E+01  0.15951325319E+01  0.51109989000E-03 0.  1.
      611    1    1    2    0    0 -0.94812173209E-01  0.24957668294E-02  0.37537448452E+01  0.37549429025E+01  0.51109989000E-03 0. -1.
</event>
<event>
 6   3  0.2312675E+03  0.9118800E+02  0.7818608E-02  0.1180000E+00
       11   -1    0    0    0    0  0.00000000000E+00  0.00000000000E+00  0.54999999763E+01  0.55000000000E+01  0.51109989000E-03 0.  1.
     -623   -1    0    0    0    0  0.00000000000E+00  0.00000000000E+00  0.93234578044E-11  0.17124000000E+03  0.17124000000E+03 0. -1.
       11    1    1    2    0    0 -0.63427970926E-01  0.23557603869E-02  0.26868032203E+00  0.27607613763E+00  0.51109989000E-03 0.  1.
     -623    1    1    2    0    0  0.24270638798E-01  0.37532170882E-01  0.16627265318E-01  0.17124000664E+03  0.17124000000E+03 0. -1.
     -611    1    1    2    0    0 -0.71920721741E-01  0.54580322231E-01  0.39199211733E+01  0.39209608348E+01  0.51109989000E-03 0.  1.
      611    1    1    2    0    0  0.11107805387E+00 -0.94468253501E-01  0.12947712156E+01  0.13029563872E+01  0.51109989000E-03 0. -1.
</event>
<event>
 6   3  0.2312675E+03  0.9118800E+02  0.7818608E-02  0.1180000E+00
       11   -1    0    0    0    0  0.00000000000E+00  0.00000000000E+00  0.54999999763E+01  0.55000000000E+01  0.51109989000E-03 0.  1.
     -623   -1    0    0    0    0  0.00000000000E+00  0.00000000000E+00  0.93234578044E-11  0.17124000000E+03  0.17124000000E+03 0.  1.
       11    1    1    2    0    0 -0.52130687037E-01  0.24013682986E-01  0.57036853049E+00  0.57324932385E+00  0.51109989000E-03 0.  1.
     -623    1    1    2    0    0  0.20680413167E-01 -0.50920015943E-01  0.42150283369E-02  0.17124000887E+03  0.17124000000E+03 0.  1.
     -611    1    1    2    0    0 -0.19363417694E-01  0.28406050015E-01  0.57421363489E+00  0.57524204066E+00  0.51109989000E-03 0. -1.
      611    1    1    2    0    0  0.50813691564E-01 -0.14997170568E-02  0.43512027825E+01  0.43514997640E+01  0.51109989000E-03 0.  1.
</event>
<event>
 6   3  0.2312675E+03  0.9118800E+02  0.7818608E-02  0.1180000E+00
       11   -1    0    0    0    0  0.00000000000E+00  0.00000000000E+00  0.54999999763E+01  0.55000000000E+01  0.51109989000E-03 0.  1.
     -623   -1    0    0    0    0  0.00000000000E+00  0.00000000000E+00  0.93234578044E-11  0.17124000000E+03  0.17124000000E+03 0. -1.
       11    1    1    2    0    0  0.50296355319E-02  0.26835227421E-02  0.29821080668E+00  0.29826572879E+00  0.51109989000E-03 0.  1.
     -623    1    1    2    0    0 -0.68372659748E-01  0.15206393700E-03  0.45533553874E-03  0.17124001365E+03  0.17124000000E+03 0. -1.
     -611    1    1    2    0    0  0.12737494289E-01 -0.63043814918E-03  0.10041430826E+01  0.10042241944E+01  0.51109989000E-03 0.  1.
      611    1    1    2    0    0  0.50605529988E-01 -0.22051485297E-02  0.41971907564E+01  0.41974964311E+01  0.51109989000E-03 0.  1.
</event>
<event>
 6   3  0.2312675E+03  0.9118800E+02  0.7818608E-02  0.1180000E+00
       11   -1    0    0    0    0  0.00000000000E+00  0.00000000000E+00  0.54999999763E+01  0.55000000000E+01  0.51109989000E-03 0. -1.
     -623   -1    0    0    0    0  0.00000000000E+00  0.00000000000E+00  0.93234578044E-11  0.17124000000E+03  0.17124000000E+03 0. -1.
       11    1    1    2    0    0  0.73684600850E-02 -0.41769340957E-01  0.26926757866E-01  0.50242248759E-01  0.51109989000E-03 0. -1.
     -623    1    1    2    0    0  0.28104847809E-01  0.40911392786E-01  0.28119093287E-01  0.17124000950E+03  0.17124000000E+03 0. -1.
     -611    1    1    2    0    0  0.64005035824E-01 -0.77081991631E-01  0.20584474774E+01  0.20608844112E+01  0.51109989000E-03 0.  1.
      611    1    1    2    0    0 -0.99478343718E-01  0.77939939802E-01  0.33865066477E+01  0.33888638378E+01  0.51109989000E-03 0. -1.
</event>
<event>
 6   3  0.2312675E+03  0.9118800E+02  0.7818608E-02  0.1180000E+00
       11   -1    0    0    0    0  0.00000000000E+00  0.00000000000E+00  0.54999999763E+01  0.55000000000E+01  0.51109989000E-03 0.  1.
     -623   -1    0    0    0    0  0.00000000000E+00  0.00000000000E+00  0.93234578044E-11  0.17124000000E+03  0.17124000000E+03 0. -1.
       11    1    1    2    0    0  0.54951067057E-01  0.33681934082E-01  0.20230640412E+00  0.21232577523E+00  0.51109989000E-03 0.  1.
     -623    1    1    2    0    0  0.41224781994E-02 -0.19073681729E-01  0.10378193218E-01  0.17124000143E+03  0.17124000000E+03 0. -1.
     -611    1    1    2    0    0 -0.15403836729E-01 -0.18575102735E-02  0.10827730756E+01  0.10828843535E+01  0.51109989000E-03 0. -1.
      611    1    1    2    0    0 -0.43669708525E-01 -0.12750742079E-01  0.42045423030E+01  0.42047884446E+01  0.51109989000E-03 0.  1.
</event>
<event>
 6   3  0.2312675E+03  0.9118800E+02  0.7818608E-02  0.1180000E+00
       11   -1    0    0    0    0  0.00000000000E+00  0.00000000000E+00  0.54999999763E+01  0.55000000000E+01  0.51109989000E-03 0. -1.
     -623   -1    0    0    0    0  0.00000000000E+00  0.00000000000E+00  0.93234578044E-11  0.17124000000E+03  0.17124000000E+03 0. -1.
       11    1    1    2    0    0 -0.54045028978E-01  0.32761903275E-02  0.96631230837E+00  0.96782815475E+00  0.51109989000E-03 0. -1.
     -623    1    1    2    0    0  0.31094964290E-02  0.92555953659E-03  0.18043164119E-02  0.17124000004E+03  0.17124000000E+03 0. -1.
     -611    1    1    2    0    0  0.43442640913E-01 -0.33592129268E-02  0.38606116213E+01  0.38608575342E+01  0.51109989000E-03 0. -1.
      611    1    1    2    0    0  0.74928916755E-02 -0.84253694058E-03  0.67127173368E+00  0.67131427436E+00  0.51109989000E-03 0. -1.
</event>
<event>
 6   3  0.2312675E+03  0.9118800E+02  0.7818608E-02  0.1180000E+00
       11   -1    0    0    0    0  0.00000000000E+00  0.00000000000E+00  0.54999999763E+01  0.55000000000E+01  0.51109989000E-03 0. -1.
     -623   -1    0    0    0    0  0.00000000000E+00  0.00000000000E+00  0.93234578044E-11  0.17124000000E+03  0.17124000000E+03 0. -1.
       11    1    1    2    0    0 -0.10312880857E-02 -0.77585165542E-02  0.51639430035E-02  0.93907222660E-02  0.51109989000E-03 0. -1.
     -623    1    1    2    0    0 -0.88095975233E-02  0.62658266233E-02  0.73946862129E-02  0.17124000050E+03  0.17124000000E+03 0. -1.
     -611    1    1    2    0    0 -0.85060010333E-01  0.46770712520E-03  0.33215600427E+01  0.33226490641E+01  0.51109989000E-03 0.  1.
      611    1    1    2    0    0  0.94900895942E-01  0.10249828057E-02  0.21658813043E+01  0.21679597128E+01  0.51109989000E-03 0. -1.
</event>
<event>
 6   3  0.2312675E+03  0.9118800E+02  0.7818608E-02  0.1180000E+00
       11   -1    0    0    0    0  0.00000000000E+00  0.00000000000E+00  0.54999999763E+01  0.55000000000E+01  0.51109989000E-03 0.  1.
     -623   -1    0    0    0    0  0.00000000000E+00  0.00000000000E+00  0.93234578044E-11  0.17124000000E+03  0.17124000000E+03 0. -1.
       11    1    1    2    0    0  0.18860023729E-01  0.11604753409E-01  0.81216481363E-01  0.84182829988E-01  0.51109989000E-03 0.  1.
     -623    1    1    2    0    0 -0.49539659796E-02 -0.99101281927E-02  0.41743361685E-02  0.17124000041E+03  0.17124000000E+03 0. -1.
     -611    1    1    2    0    0 -0.58387274235E-01  0.22678671585E-01  0.26315483770E+01  0.26322937750E+01  0.51109989000E-03 0. -1.
      611    1    1    2    0    0  0.44481216486E-01 -0.24373296801E-01  0.27830607817E+01  0.27835229858E+01  0.51109989000E-03 0.  1.
</event>
<event>
 6   3  0.2312675E+03  0.9118800E+02  0.7818608E-02  0.1180000E+00
       11   -1    0    0    0    0  0.00000000000E+00  0.00000000000E+00  0.54999999763E+01  0.55000000000E+01  0.51109989000E-03 0.  1.
     -623   -1    0    0    0    0  0.00000000000E+00  0.00000000000E+00  0.93234578044E-11  0.17124000000E+03  0.17124000000E+03 0.  1.
       11    1    1    2    0    0 -0.14960167358E-01 -0.15253750384E+00  0.50192466907E+00  0.52480485071E+00  0.51109989000E-03 0.  1.
     -623    1    1    2    0    0 -0.56968527594E-01  0.64880593678E-01  0.24199011517E-01  0.17124002348E+03  0.17124000000E+03 0.  1.
     -611    1    1    2    0    0  0.39427233818E-01  0.51826705869E-01  0.29055482530E+01  0.29062779333E+01  0.51109989000E-03 0.  1.
      611    1    1    2    0    0  0.32501461136E-01  0.35830204294E-01  0.20683280429E+01  0.20688937389E+01  0.51109989000E-03 0. -1.
</event>
<event>
 6   3  0.2312675E+03  0.9118800E+02  0.7818608E-02  0.1180000E+00
       11   -1    0    0    0    0  0.00000000000E+00  0.00000000000E+00  0.54999999763E+01  0.55000000000E+01  0.51109989000E-03 0.  1.
     -623   -1    0    0    0    0  0.00000000000E+00  0.00000000000E+00  0.93234578044E-11  0.17124000000E+03  0.17124000000E+03 0.  1.
       11    1    1    2    0    0 -0.16722088562E-01 -0.70108036521E-02  0.99225012399E+00  0.99241591553E+00  0.51109989000E-03 0.  1.
     -623    1    1    2    0    0  0.94129299174E-01  0.17789363083E-01  0.87072157786E-03  0.17124002680E+03  0.17124000000E+03 0.  1.
     -611    1    1    2    0    0 -0.27121948663E-01 -0.36150855628E-02  0.16326048760E+01  0.16328342265E+01  0.51109989000E-03 0.  1.
      611    1    1    2    0    0 -0.50285261979E-01 -0.71634738741E-02  0.28742742564E+01  0.28747230624E+01  0.51109989000E-03 0. -1.
</event>
<event>
 6   3  0.2312675E+03  0.9118800E+02  0.7818608E-02  0.1180000E+00
       11   -1    0    0    0    0  0.00000000000E+00  0.00000000000E+00  0.54999999763E+01  0.55000000000E+01  0.51109989000E-03 0.  1.
     -623   -1    0    0    0    0  0.00000000000E+00  0.00000000000E+00  0.93234578044E-11  0.17124000000E+03  0.17124000000E+03 0. -1.
       11    1    1    2    0    0  0.87464151867E-01  0.56050645439E-01  0.86752893310E+00  0.87372670996E+00  0.51109989000E-03 0.  1.
     -623    1    1    2    0    0 -0.24362461902E-01 -0.45036488030E-01  0.92671162863E-02  0.17124000791E+03  0.17124000000E+03 0. -1.
     -611    1    1    2    0    0 -0.37007023186E-01  0.58821986085E-01  0.34472838623E+01  0.34479843147E+01  0.51109989000E-03 0.  1.
      611    1    1    2    0    0 -0.26094666780E-01 -0.69836143494E-01  0.11759200645E+01  0.11782810692E+01  0.51109989000E-03 0. -1.
</event>
<event>
 6   3  0.2312675E+03  0.9118800E+02  0.7818608E-02  0.1180000E+00
       11   -1    0    0    0    0  0.00000000000E+00  0.00000000000E+00  0.54999999763E+01  0.55000000000E+01  0.51109989000E-03 0.  1.
     -623   -1    0    0    0    0  0.00000000000E+00  0.00000000000E+00  0.93234578044E-11  0.17124000000E+03  0.17124000000E+03 0.  1.
       11    1    1    2    0    0  0.78565691275E-03  0.27753004182E-02  0.98377414257E-01  0.98421016090E-01  0.51109989000E-03 0.  1.
     -623    1    1    2    0    0 -0.19298389096E-02 -0.39535680391E-02  0.39068186943E-03  0.17124000006E+03  0.17124000000E+03 0.  1.
     -611    1    1    2    0    0 -0.29842217667E-01 -0.36996051073E-03  0.29378127449E+01  0.29379643770E+01  0.51109989000E-03 0. -1.
      611    1    1    2    0    0  0.30986399664E-01  0.15482281318E-02  0.24634191356E+01  0.24636145503E+01  0.51109989000E-03 0.  1.
</event>
<event>
 6   3  0.2312675E+03  0.9118800E+02  0.7818608E-02  0.1180000E+00
       11   -1    0    0    0    0  0.00000000000E+00  0.00000000000E+00  0.54999999763E+01  0.55000000000E+01  0.51109989000E-03 0. -1.
     -623   -1    0    0    0    0  0.00000000000E+00  0.00000000000E+00  0.93234578044E-11  0.17124000000E+03  0.17124000000E+03 0. -1.
       11    1    1    2    0    0 -0.16406285682E-01  0.64494954175E-01  0.21734783133E+00  0.22730839476E+00  0.51109989000E-03 0. -1.
     -623    1    1    2    0    0 -0.26813855580E-01 -0.39918600599E-01  0.15664061869E-01  0.17124000747E+03  0.17124000000E+03 0. -1.
     -611    1    1    2    0    0 -0.66892543431E-01  0.41669445304E-01  0.80562974894E+00  0.80947545277E+00  0.51109989000E-03 0.  1.
      611    1    1    2    0    0  0.11011268469E+00 -0.66245798879E-01  0.44613583341E+01  0.44632086839E+01  0.51109989000E-03 0. -1.
</event>
<event>
 6   3  0.2312675E+03  0.9118800E+02  0.7818608E-02  0.1180000E+00
       11   -1    0    0    0    0  0.00000000000E+00  0.00000000000E+00  0.54999999763E+01  0.55000000000E+01  0.51109989000E-03 0. -1.
     -623   -1    0    0    0    0  0.00000000000E+00  0.00000000000E+00  0.93234578044E-11  0.17124000000E+03  0.17124000000E+03 0. -1.
       11    1    1    2    0    0  0.11674650625E-02 -0.41123198883E-02  0.37116932452E-02  0.56843679842E-02  0.51109989000E-03 0. -1.
     -623    1    1    2    0    0 -0.61380250082E-02 -0.70589593922E-03  0.40089582218E-02  0.17124000016E+03  0.17124000000E+03 0. -1.
     -611    1    1    2    0    0 -0.59015308354E-01 -0.39326001553E-01  0.23195012868E+01  0.23205852326E+01  0.51109989000E-03 0. -1.
      611    1    1    2    0    0  0.63985868300E-01  0.44144217381E-01  0.31727780380E+01  0.31737302411E+01  0.51109989000E-03 0.  1.
</event>
<event>
 6   3  0.2312675E+03  0.9118800E+02  0.7818608E-02  0.1180000E+00
       11   -1    0    0    0    0  0.00000000000E+00  0.00000000000E+00  0.54999999763E+01  0.55000000000E+01  0.51109989000E-03 0.  1.
     -623   -1    0    0    0    0  0.00000000000E+00  0.00000000000E+00  0.93234578044E-11  0.17124000000E+03  0.17124000000E+03 0. -1.
       11    1    1    2    0    0 -0.28237811556E-01  0.93792734362E-01  0.67899785602E+00  0.68602682216E+00  0.51109989000E-03 0.  1.
     -623    1    1    2    0    0 -0.18793193491E-01 -0.59724749214E-02  0.86464809592E-02  0.17124000135E+03  0.17124000000E+03 0. -1.
     -611    1    1    2    0    0  0.54959746622E-01 -0.97623965074E-01  0.42706781777E+01  0.42721473957E+01  0.51109989000E-03 0.  1.
      611    1    1    2    0    0 -0.79287415756E-02  0.98037056331E-02  0.54167746160E+00  0.54182442840E+00  0.51109989000E-03 0. -1.
</event>
<event>
 6   3  0.2312675E+03  0.9118800E+02  0.7818608E-02  0.1180000E+00
       11   -1    0    0    0    0  0.00000000000E+00  0.00000000000E+00  0.54999999763E+01  0.55000000000E+01  0.51109989000E-03 0.  1.
     -623   -1    0    0    0    0  0.00000000000E+00  0.00000000000E+00  0.93234578044E-11  0.17124000000E+03  0.17124000000E+03 0.  1.
       11    1    1    2    0    0 -0.11102217950E+00  0.57488247363E-01  0.77362206366E+00  0.78365948059E+00  0.51109989000E-03 0.  1.
     -623    1    1    2    0    0  0.16201620280E-01 -0.15668851088E-01  0.11186291050E-01  0.17124000185E+03  0.17124000000E+03 0.  1.
     -611    1    1    2    0    0  0.31318815507E-01 -0.14967930270E-01  0.17664944146E+01  0.17668355003E+01  0.51109989000E-03 0.  1.
      611    1    1    2    0    0  0.63501743719E-01 -0.26851466006E-01  0.29486972070E+01  0.29495031705E+01  0.51109989000E-03 0. -1.
</event>
<event>
 6   3  0.2312675E+03  0.9118800E+02  0.7818608E-02  0.1180000E+00
       11   -1    0    0    0    0  0.00000000000E+00  0.00000000000E+00  0.54999999763E+01  0.55000000000E+01  0.51109989000E-03 0.  1.
     -623   -1    0    0    0    0  0.00000000000E+00  0.00000000000E+00  0.93234578044E-11  0.17124000000E+03  0.17124000000E+03 0. -1.
       11    1    1    2    0    0  0.10352968632E-01  0.15526878051E-02  0.44670114584E+00  0.44682409259E+00  0.51109989000E-03 0.  1.
     -623    1    1    2    0    0 -0.95628015606E-01  0.10235717862E-01  0.88358668641E-03  0.17124002701E+03  0.17124000000E+03 0. -1.
     -611    1    1    2    0    0  0.56755842899E-01 -0.80919289124E-02  0.33277320165E+01  0.33282258547E+01  0.51109989000E-03 0. -1.
      611    1    1    2    0    0  0.28519203951E-01 -0.36964767414E-02  0.17246832201E+01  0.17249230359E+01  0.51109989000E-03 0. -1.
</event>
<event>
 6   3  0.2312675E+03  0.9118800E+02  0.7818608E-02  0.1180000E+00
       11   -1    0    0    0    0  0.00000000000E+00  0.00000000000E+00  0.54999999763E+01  0.55000000000E+01  0.51109989000E-03 0.  1.
     -623   -1    0    0    0    0  0.00000000000E+00  0.00000000000E+00  0.93234578044E-11  0.17124000000E+03  0.17124000000E+03 0. -1.
       11    1    1    2    0    0 -0.42089362427E-01  0.83373603169E-02  0.23093082306E+00  0.23488365688E+00  0.51109989000E-03 0.  1.
     -623    1    1    2    0    0  0.45260957871E-01 -0.36940776053E-02  0.58722643818E-02  0.17124000612E+03  0.17124000000E+03 0. -1.
     -611    1    1    2    0    0  0.30820371347E-01  0.60673047057E-01  0.26818896691E+01  0.26827529838E+01  0.51109989000E-03 0.  1.
      611    1    1    2    0    0 -0.33991966790E-01 -0.65316329769E-01  0.25813072197E+01  0.25823572372E+01  0.51109989000E-03 0. -1.
</event>
<event>
 6   3  0.2312675E+03  0.9118800E+02  0.7818608E-02  0.1180000E+00
       11   -1    0    0    0    0  0.00000000000E+00  0.00000000000E+00  0.54999999763E+01  0.55000000000E+01  0.51109989000E-03 0.  1.
     -623   -1    0    0    0    0  0.00000000000E+00  0.00000000000E+00  0.93234578044E-11  0.17124000000E+03  0.17124000000E+03 0. -1.
       11    1    1    2    0    0 -0.43531683086E-01 -0.12231933943E-02  0.62794311629E+00  0.62945160430E+00  0.51109989000E-03 0.  1.
     -623    1    1    2    0    0 -0.19242355281E-01 -0.11931717874E-01  0.19327775867E-02  0.17124000151E+03  0.17124000000E+03 0. -1.
     -611    1    1    2    0    0  0.41790884884E-01  0.96473421905E-02  0.32702107034E+01  0.32704919898E+01  0.51109989000E-03 0.  1.
      611    1    1    2    0    0  0.20983153478E-01  0.35075690773E-02  0.15999133786E+01  0.16000548978E+01  0.51109989000E-03 0.  1.
</event>
<event>
 6   3  0.2312675E+03  0.9118800E+02  0.7818608E-02  0.1180000E+00
       11   -1    0    0    0    0  0.00000000000E+00  0.00000000000E+00  0.54999999763E+01  0.55000000000E+01  0.51109989000E-03 0. -1.
     -623   -1    0    0    0    0  0.00000000000E+00  0.00000000000E+00  0.93234578044E-11  0.17124000000E+03  0.17124000000E+03 0. -1.
       11    1    1    2    0    0  0.85459969294E-03  0.37308428986E-03  0.14984684611E-01  0.15022367607E-01  0.51109989000E-03 0. -1.
     -623    1    1    2    0    0  0.44114666179E-03 -0.17163171559E-02  0.45468313962E-03  0.17124000001E+03  0.17124000000E+03 0. -1.
     -611    1    1    2    0    0  0.33083207203E-01  0.26866722903E-02  0.26119338761E+01  0.26121448181E+01  0.51109989000E-03 0. -1.
      611    1    1    2    0    0 -0.34378953558E-01 -0.13434394243E-02  0.28726267323E+01  0.28728328044E+01  0.51109989000E-03 0.  1.
</event>
<event>
 6   3  0.2312675E+03  0.9118800E+02  0.7818608E-02  0.1180000E+00
       11   -1    0    0    0    0  0.00000000000E+00  0.00000000000E+00  0.54999999763E+01  0.55000000000E+01  0.51109989000E-03 0.  1.
     -623   -1    0    0    0    0  0.00000000000E+00  0.00000000000E+00  0.93234578044E-11  0.17124000000E+03  0.17124000000E+03 0. -1.
       11    1    1    2    0    0 -0.13007907674E-01  0.66256642636E-02  0.67575671920E-01  0.69136370656E-01  0.51109989000E-03 0.  1.
     -623    1    1    2    0    0 -0.49163055075E-02 -0.99753532907E-03  0.19058663776E-02  0.17124000008E+03  0.17124000000E+03 0. -1.
     -611    1    1    2    0    0  0.39417250944E-01 -0.35749623394E-02  0.36112091956E+01  0.36114261193E+01  0.51109989000E-03 0.  1.
      611    1    1    2    0    0 -0.21493037762E-01 -0.20531665951E-02  0.18193092424E+01  0.18194374259E+01  0.51109989000E-03 0. -1.
</event>
<event>
 6   3  0.2312675E+03  0.9118800E+02  0.7818608E-02  0.1180000E+00
       11   -1    0    0    0    0  0.00000000000E+00  0.00000000000E+00  0.54999999763E+01  0.55000000000E+01  0.51109989000E-03 0. -1.
     -623   -1    0    0    0    0  0.00000000000E+00  0.00000000000E+00  0.93234578044E-11  0.17124000000E+03  0.17124000000E+03 0.  1.
       11    1    1    2    0    0  0.54718705393E-01 -0.53714325893E-03  0.69893485612E+00  0.70107390449E+00  0.51109989000E-03 0. -1.
     -623    1    1    2    0    0  0.97132630578E-02 -0.14621663317E-02  0.25773698308E-02  0.17124000030E+03  0.17124000000E+03 0.  1.
     -611    1    1    2    0    0 -0.22446441374E-01  0.86776958757E-03  0.14376987144E+01  0.14378742818E+01  0.51109989000E-03 0.  1.
      611    1    1    2    0    0 -0.41985527077E-01  0.11315400030E-02  0.33607890360E+01  0.33610515126E+01  0.51109989000E-03 0. -1.
</event>
<event>
 6   3  0.2312675E+03  0.9118800E+02  0.7818608E-02  0.1180000E+00
       11   -1    0    0    0    0  0.00000000000E+00  0.00000000000E+00  0.54999999763E+01  0.55000000000E+01  0.51109989000E-03 0. -1.
     -623   -1    0    0    0    0  0.00000000000E+00  0.00000000000E+00  0.93234578044E-11  0.17124000000E+03  0.17124000000E+03 0.  1.
       11    1    1    2    0    0 -0.84586748158E-02 -0.34345103643E-02  0.15998096456E+00  0.16024205218E+00  0.51109989000E-03 0. -1.
     -623    1    1    2    0    0  0.51026836446E-02  0.15216396038E-01  0.14726069872E-02  0.17124000076E+03  0.17124000000E+03 0.  1.
     -611    1    1    2    0    0  0.44463013920E-01  0.28634341809E-01  0.19352866015E+01  0.19360091364E+01  0.51109989000E-03 0.  1.
      611    1    1    2    0    0 -0.41107022749E-01 -0.40416227483E-01  0.34032598033E+01  0.34037480531E+01  0.51109989000E-03 0. -1.
</event>
<event>
 6   3  0.2312675E+03  0.9118800E+02  0.7818608E-02  0.1180000E+00
       11   -1    0    0    0    0  0.00000000000E+00  0.00000000000E+00  0.54999999763E+01  0.55000000000E+01  0.51109989000E-03 0. -1.
     -623   -1    0    0    0    0  0.00000000000E+00  0.00000000000E+00  0.93234578044E-11  0.17124000000E+03  0.17124000000E+03 0.  1.
       11    1    1    2    0    0 -0.67585315918E-03  0.10011095111E-02  0.49406628689E-01  0.49424034429E-01  0.51109989000E-03 0. -1.
     -623    1    1    2    0    0  0.61064146865E-03 -0.76903170966E-03  0.10106786456E-02  0.17124000001E+03  0.17124000000E+03 0.  1.
     -611    1    1    2    0    0 -0.44247027088E-01  0.14163369906E-01  0.15022696841E+01  0.15029879792E+01  0.51109989000E-03 0.  1.
      611    1    1    2    0    0  0.44312238779E-01 -0.14395447708E-01  0.39473129848E+01  0.39475879806E+01  0.51109989000E-03 0. -1.
</event>
<event>
 6   3  0.2312675E+03  0.9118800E+02  0.7818608E-02  0.1180000E+00
       11   -1    0    0    0    0  0.00000000000E+00  0.00000000000E+00  0.54999999763E+01  0.55000000000E+01  0.51109989000E-03 0.  1.
     -623   -1    0    0    0    0  0.00000000000E+00  0.00000000000E+00  0.93234578044E-11  0.17124000000E+03  0.17124000000E+03 0. -1.
       11    1    1    2    0    0 -0.49999954580E-01  0.15985716588E-02  0.64173857405E+00  0.64368564497E+00  0.51109989000E-03 0.  1.
     -623    1    1    2    0    0 -0.74600515692E-04  0.19086754025E-01  0.22577396977E-02  0.17124000108E+03  0.17124000000E+03 0. -1.
     -611    1    1    2    0    0  0.27616440567E-01 -0.70740515938E-02  0.26391644079E+01  0.26393184239E+01  0.51109989000E-03 0. -1.
      611    1    1    2    0    0  0.22458114526E-01 -0.13611274089E-01  0.22168392544E+01  0.22169948522E+01  0.51109989000E-03 0.  1.
</event>
<event>
 6   3  0.3336408E+03  0.9118800E+02  0.7818608E-02  0.1180000E+00
       11   -1    0    0    0    0  0.00000000000E+00  0.00000000000E+00  0.54999999763E+01  0.55000000000E+01  0.51109989000E-03 0.  1.
     -623   -1    0    0    0    0  0.00000000000E+00  0.00000000000E+00  0.93234578044E-11  0.17124000000E+03  0.17124000000E+03 0. -1.
       11    1    1    2    0    0 -0.29750031475E-04 -0.65630252628E-02  0.10814850196E-01  0.12660821203E-01  0.51109989000E-03 0.  1.
     -623    1    1    2    0    0  0.20149538390E-03  0.61048446973E-02  0.52885141207E-02  0.17124000019E+03  0.17124000000E+03 0. -1.
     -611    1    1    2    0    0  0.68156684365E-01  0.50194955872E-01  0.40941389535E+01  0.40950139070E+01  0.51109989000E-03 0.  1.
      611    1    1    2    0    0 -0.68328429718E-01 -0.49736775306E-01  0.13897576585E+01  0.13923250811E+01  0.51109989000E-03 0. -1.
</event>
<event>
 6   3  0.2312675E+03  0.9118800E+02  0.7818608E-02  0.1180000E+00
       11   -1    0    0    0    0  0.00000000000E+00  0.00000000000E+00  0.54999999763E+01  0.55000000000E+01  0.51109989000E-03 0. -1.
     -623   -1    0    0    0    0  0.00000000000E+00  0.00000000000E+00  0.93234578044E-11  0.17124000000E+03  0.17124000000E+03 0. -1.
       11    1    1    2    0    0  0.17568071972E-01 -0.23244159762E-01  0.10046003906E+00  0.10460118922E+00  0.51109989000E-03 0. -1.
     -623    1    1    2    0    0  0.60398159004E-01  0.27975537650E-01  0.14736616965E-01  0.17124001357E+03  0.17124000000E+03 0. -1.
     -611    1    1    2    0    0  0.64017544241E-01 -0.41445554550E-02  0.43931752180E+01  0.43936436110E+01  0.51109989000E-03 0. -1.
      611    1    1    2    0    0 -0.14198377522E+00 -0.58682243355E-03  0.99162810227E+00  0.10017416290E+01  0.51109989000E-03 0.  1.
</event>
<event>
 6   3  0.2312675E+03  0.9118800E+02  0.7818608E-02  0.1180000E+00
       11   -1    0    0    0    0  0.00000000000E+00  0.00000000000E+00  0.54999999763E+01  0.55000000000E+01  0.51109989000E-03 0.  1.
     -623   -1    0    0    0    0  0.00000000000E+00  0.00000000000E+00  0.93234578044E-11  0.17124000000E+03  0.17124000000E+03 0. -1.
       11    1    1    2    0    0 -0.23136104181E-02 -0.57063502020E-03  0.27480882530E-02  0.36730953754E-02  0.51109989000E-03 0.  1.
     -623    1    1    2    0    0  0.30932597399E-02 -0.16000375398E-02  0.18352297549E-02  0.17124000005E+03  0.17124000000E+03 0. -1.
     -611    1    1    2    0    0  0.47485485995E-01  0.13368109684E-01  0.23281410571E+01  0.23286636985E+01  0.51109989000E-03 0.  1.
      611    1    1    2    0    0 -0.48265135317E-01 -0.11197437124E-01  0.31672756011E+01  0.31676631609E+01  0.51109989000E-03 0. -1.
</event>
<event>
 6   3  0.2312675E+03  0.9118800E+02  0.7818608E-02  0.1180000E+00
       11   -1    0    0    0    0  0.00000000000E+00  0.00000000000E+00  0.54999999763E+01  0.55000000000E+01  0.51109989000E-03 0.  1.
     -623   -1    0    0    0    0  0.00000000000E+00  0.00000000000E+00  0.93234578044E-11  0.17124000000E+03  0.17124000000E+03 0. -1.
       11    1    1    2    0    0 -0.32711883913E-02 -0.50225089276E-02  0.10648997488E-01  0.12230643483E-01  0.51109989000E-03 0.  1.
     -623    1    1    2    0    0 -0.11004164388E-02  0.52444561202E-02  0.25246064969E-02  0.17124000010E+03  0.17124000000E+03 0. -1.
     -611    1    1    2    0    0 -0.42553381448E-01 -0.52569186094E-02  0.13665713995E+01  0.13672439711E+01  0.51109989000E-03 0. -1.
      611    1    1    2    0    0  0.46924986278E-01  0.50349714167E-02  0.41202549728E+01  0.41205252830E+01  0.51109989000E-03 0.  1.
</event>
<event>
 6   3  0.2312675E+03  0.9118800E+02  0.7818608E-02  0.1180000E+00
       11   -1    0    0    0    0  0.00000000000E+00  0.00000000000E+00  0.54999999763E+01  0.55000000000E+01  0.51109989000E-03 0. -1.
     -623   -1    0    0    0    0  0.00000000000E+00  0.00000000000E+00  0.93234578044E-11  0.17124000000E+03  0.17124000000E+03 0.  1.
       11    1    1    2    0    0  0.47564669800E-01  0.27410564664E-02  0.10437105486E+01  0.10447975314E+01  0.51109989000E-03 0. -1.
     -623    1    1    2    0    0  0.10843978638E-02  0.89917096439E-02  0.13684027133E-02  0.17124000024E+03  0.17124000000E+03 0.  1.
     -611    1    1    2    0    0 -0.19467741545E-01 -0.46492897094E-02  0.17746225479E+01  0.17747354895E+01  0.51109989000E-03 0. -1.
      611    1    1    2    0    0 -0.29181326233E-01 -0.70834764281E-02  0.26802984873E+01  0.26804667444E+01  0.51109989000E-03 0. -1.
</event>
<event>
 6   3  0.2312675E+03  0.9118800E+02  0.7818608E-02  0.1180000E+00
       11   -1    0    0    0    0  0.00000000000E+00  0.00000000000E+00  0.54999999763E+01  0.55000000000E+01  0.51109989000E-03 0. -1.
     -623   -1    0    0    0    0  0.00000000000E+00  0.00000000000E+00  0.93234578044E-11  0.17124000000E+03  0.17124000000E+03 0. -1.
       11    1    1    2    0    0  0.63702382166E-01  0.10324809936E-01  0.74936186386E+00  0.75213566557E+00  0.51109989000E-03 0. -1.
     -623    1    1    2    0    0 -0.33692941817E-02 -0.12156976476E-01  0.31723106238E-02  0.17124000049E+03  0.17124000000E+03 0. -1.
     -611    1    1    2    0    0 -0.43397399153E-01  0.57893177402E-02  0.31783778564E+01  0.31786794286E+01  0.51109989000E-03 0. -1.
      611    1    1    2    0    0 -0.16935688830E-01 -0.39571512003E-02  0.15690879453E+01  0.15691844117E+01  0.51109989000E-03 0.  1.
</event>
<event>
 6   3  0.2312675E+03  0.9118800E+02  0.7818608E-02  0.1180000E+00
       11   -1    0    0    0    0  0.00000000000E+00  0.00000000000E+00  0.54999999763E+01  0.55000000000E+01  0.51109989000E-03 0. -1.
     -623   -1    0    0    0    0  0.00000000000E+00  0.00000000000E+00  0.93234578044E-11  0.17124000000E+03  0.17124000000E+03 0. -1.
       11    1    1    2    0    0  0.12366204776E-01  0.13769089624E-01  0.77692634644E+00  0.77714691010E+00  0.51109989000E-03 0. -1.
     -623    1    1    2    0    0  0.82478360534E-02 -0.19835161177E-02  0.69594086088E-03  0.17124000021E+03  0.17124000000E+03 0. -1.
     -611    1    1    2    0    0 -0.41478147029E-01 -0.89999773577E-02  0.37889245653E+01  0.37891623163E+01  0.51109989000E-03 0. -1.
      611    1    1    2    0    0  0.20864106200E-01 -0.27855961487E-02  0.93345312368E+00  0.93369056212E+00  0.51109989000E-03 0.  1.
</event>
<event>
 6   3  0.2312675E+03  0.9118800E+02  0.7818608E-02  0.1180000E+00
       11   -1    0    0    0    0  0.00000000000E+00  0.00000000000E+00  0.54999999763E+01  0.55000000000E+01  0.51109989000E-03 0. -1.
     -623   -1    0    0    0    0  0.00000000000E+00  0.00000000000E+00  0.93234578044E-11  0.17124000000E+03  0.17124000000E+03 0. -1.
       11    1    1    2    0    0 -0.78388580708E-02  0.35668679613E-01  0.28238553028E+00  0.28473768864E+00  0.51109989000E-03 0. -1.
     -623    1    1    2    0    0  0.23867908188E-01 -0.53958053268E-03  0.45386569417E-02  0.17124000172E+03  0.17124000000E+03 0. -1.
     -611    1    1    2    0    0  0.55168160693E-01 -0.33973307140E-01  0.36369016053E+01  0.36374786954E+01  0.51109989000E-03 0. -1.
      611    1    1    2    0    0 -0.71197210810E-01 -0.11557919400E-02  0.15761741837E+01  0.15777818916E+01  0.51109989000E-03 0.  1.
</event>
<event>
 6   3  0.2312675E+03  0.9118800E+02  0.7818608E-02  0.1180000E+00
       11   -1    0    0    0    0  0.00000000000E+00  0.00000000000E+00  0.54999999763E+01  0.55000000000E+01  0.51109989000E-03 0. -1.
     -623   -1    0    0    0    0  0.00000000000E+00  0.00000000000E+00  0.93234578044E-11  0.17124000000E+03  0.17124000000E+03 0. -1.
       11    1    1    2    0    0 -0.14712023783E-01 -0.60588852319E-01  0.90082890948E+00  0.90298418482E+00  0.51109989000E-03 0. -1.
     -623    1    1    2    0    0 -0.43191223489E-01  0.33504924240E-01  0.44257881862E-02  0.17124000878E+03  0.17124000000E+03 0. -1.
     -611    1    1    2    0    0 -0.29824197219E-01 -0.16181515711E-01  0.53019803950E+00  0.53128292510E+00  0.51109989000E-03 0.  1.
      611    1    1    2    0    0  0.87727444491E-01  0.43265443791E-01  0.40645472391E+01  0.40657241081E+01  0.51109989000E-03 0. -1.
</event>
<event>
 6   3  0.2312675E+03  0.9118800E+02  0.7818608E-02  0.1180000E+00
       11   -1    0    0    0    0  0.00000000000E+00  0.00000000000E+00  0.54999999763E+01  0.55000000000E+01  0.51109989000E-03 0.  1.
     -623   -1    0    0    0    0  0.00000000000E+00  0.00000000000E+00  0.93234578044E-11  0.17124000000E+03  0.17124000000E+03 0.  1.
       11    1    1    2    0    0  0.53175204411E-01 -0.18103781571E-01  0.10708254006E+01  0.10722978360E+01  0.51109989000E-03 0.  1.
     -623    1    1    2    0    0 -0.66596378923E-02  0.86688450766E-02  0.17276907480E-02  0.17124000036E+03  0.17124000000E+03 0.  1.
     -611    1    1    2    0    0 -0.28277928102E-01  0.65890063119E-02  0.26709171520E+01  0.26710750177E+01  0.51109989000E-03 0. -1.
      611    1    1    2    0    0 -0.18237638393E-01  0.28459301777E-02  0.17565297305E+01  0.17566267863E+01  0.51109989000E-03 0. -1.
</event>
<event>
 6   3  0.2312675E+03  0.9118800E+02  0.7818608E-02  0.1180000E+00
       11   -1    0    0    0    0  0.00000000000E+00  0.00000000000E+00  0.54999999763E+01  0.55000000000E+01  0.51109989000E-03 0.  1.
     -623   -1    0    0    0    0  0.00000000000E+00  0.00000000000E+00  0.93234578044E-11  0.17124000000E+03  0.17124000000E+03 0.  1.
       11    1    1    2    0    0  0.52633637497E-02  0.46395361189E-01  0.60793323401E+00  0.60972396277E+00  0.51109989000E-03 0.  1.
     -623    1    1    2    0    0  0.42905735320E-02  0.92827885951E-03  0.27585261067E-02  0.17124000008E+03  0.17124000000E+03 0.  1.
     -611    1    1    2    0    0  0.34798332742E-01 -0.61953892889E-02  0.14166253769E+01  0.14170663451E+01  0.51109989000E-03 0. -1.
      611    1    1    2    0    0 -0.44352270024E-01 -0.41128250759E-01  0.34726828392E+01  0.34732096136E+01  0.51109989000E-03 0.  1.
</event>
<event>
 6   3  0.2312675E+03  0.9118800E+02  0.7818608E-02  0.1180000E+00
       11   -1    0    0    0    0  0.00000000000E+00  0.00000000000E+00  0.54999999763E+01  0.55000000000E+01  0.51109989000E-03 0. -1.
     -623   -1    0    0    0    0  0.00000000000E+00  0.00000000000E+00  0.93234578044E-11  0.17124000000E+03  0.17124000000E+03 0.  1.
       11    1    1    2    0    0  0.18871636520E-01 -0.63319683424E-02  0.93766847090E+00  0.93787987239E+00  0.51109989000E-03 0. -1.
     -623    1    1    2    0    0  0.95656581548E-03  0.28295177198E-02  0.95632653011E-03  0.17124000003E+03  0.17124000000E+03 0.  1.
     -611    1    1    2    0    0 -0.42190521188E-01 -0.17215277866E-01  0.35306921369E+01  0.35309862124E+01  0.51109989000E-03 0. -1.
      611    1    1    2    0    0  0.22362318852E-01  0.20717728489E-01  0.10306830419E+01  0.10311338864E+01  0.51109989000E-03 0.  1.
</event>
<event>
 6   3  0.2577491E+03  0.9118800E+02  0.7818608E-02  0.1180000E+00
       11   -1    0    0    0    0  0.00000000000E+00  0.00000000000E+00  0.54999999763E+01  0.55000000000E+01  0.51109989000E-03 0.  1.
     -623   -1    0    0    0    0  0.00000000000E+00  0.00000000000E+00  0.93234578044E-11  0.17124000000E+03  0.17124000000E+03 0.  1.
       11    1    1    2    0    0 -0.43238143569E-02  0.24069611876E-02  0.43459561508E-02  0.66058603311E-02  0.51109989000E-03 0.  1.
     -623    1    1    2    0    0  0.51055300784E-02 -0.22310017456E-02  0.30021275533E-02  0.17124000012E+03  0.17124000000E+03 0.  1.
     -611    1    1    2    0    0 -0.37875568044E-01 -0.21880984788E-01  0.20040564260E+01  0.20045338001E+01  0.51109989000E-03 0. -1.
      611    1    1    2    0    0  0.37093852323E-01  0.21705025346E-01  0.34885954666E+01  0.34888602226E+01  0.51109989000E-03 0.  1.
</event>
<event>
 6   3  0.2312675E+03  0.9118800E+02  0.7818608E-02  0.1180000E+00
       11   -1    0    0    0    0  0.00000000000E+00  0.00000000000E+00  0.54999999763E+01  0.55000000000E+01  0.51109989000E-03 0. -1.
     -623   -1    0    0    0    0  0.00000000000E+00  0.00000000000E+00  0.93234578044E-11  0.17124000000E+03  0.17124000000E+03 0.  1.
       11    1    1    2    0    0  0.54182669385E-03 -0.50036619719E-02  0.14239263691E-01  0.15111189988E-01  0.51109989000E-03 0. -1.
     -623    1    1    2    0    0  0.14943765956E-02  0.11293861339E-02  0.17266362620E-02  0.17124000002E+03  0.17124000000E+03 0.  1.
     -611    1    1    2    0    0 -0.44860274482E-01  0.10517871111E-01  0.17621084938E+01  0.17627108881E+01  0.51109989000E-03 0.  1.
      611    1    1    2    0    0  0.42824071193E-01 -0.66435952732E-02  0.37219255826E+01  0.37221779031E+01  0.51109989000E-03 0. -1.
</event>
<event>
 6   3  0.2312675E+03  0.9118800E+02  0.7818608E-02  0.1180000E+00
       11   -1    0    0    0    0  0.00000000000E+00  0.00000000000E+00  0.54999999763E+01  0.55000000000E+01  0.51109989000E-03 0.  1.
     -623   -1    0    0    0    0  0.00000000000E+00  0.00000000000E+00  0.93234578044E-11  0.17124000000E+03  0.17124000000E+03 0. -1.
       11    1    1    2    0    0 -0.28316941961E-02  0.90241942159E-03  0.18713425483E-01  0.18954850811E-01  0.51109989000E-03 0.  1.
     -623    1    1    2    0    0 -0.13545033111E-02 -0.12407081572E-02  0.21402046516E-02  0.17124000002E+03  0.17124000000E+03 0. -1.
     -611    1    1    2    0    0  0.55709347078E-01  0.38423994375E-01  0.39179959516E+01  0.39185804155E+01  0.51109989000E-03 0.  1.
      611    1    1    2    0    0 -0.51523149570E-01 -0.38085705639E-01  0.15611503945E+01  0.15624647105E+01  0.51109989000E-03 0. -1.
</event>
<event>
 6   3  0.2312675E+03  0.9118800E+02  0.7818608E-02  0.1180000E+00
       11   -1    0    0    0    0  0.00000000000E+00  0.00000000000E+00  0.54999999763E+01  0.55000000000E+01  0.51109989000E-03 0. -1.
     -623   -1    0    0    0    0  0.00000000000E+00  0.00000000000E+00  0.93234578044E-11  0.17124000000E+03  0.17124000000E+03 0. -1.
       11    1    1    2    0    0  0.25092798314E-01  0.14922322595E-01  0.65175113908E-01  0.71416951313E-01  0.51109989000E-03 0. -1.
     -623    1    1    2    0    0  0.44791220692E-01 -0.21487516558E-02  0.67153243176E-02  0.17124000600E+03  0.17124000000E+03 0. -1.
     -611    1    1    2    0    0 -0.15417471829E-01 -0.20242130109E-02  0.10421883614E+01  0.10423044842E+01  0.51109989000E-03 0. -1.
      611    1    1    2    0    0 -0.54466547179E-01 -0.10749357929E-01  0.43859211768E+01  0.43862725615E+01  0.51109989000E-03 0.  1.
</event>
<event>
 6   3  0.2312675E+03  0.9118800E+02  0.7818608E-02  0.1180000E+00
       11   -1    0    0    0    0  0.00000000000E+00  0.00000000000E+00  0.54999999763E+01  0.55000000000E+01  0.51109989000E-03 0. -1.
     -623   -1    0    0    0    0  0.00000000000E+00  0.00000000000E+00  0.93234578044E-11  0.17124000000E+03  0.17124000000E+03 0.  1.
       11    1    1    2    0    0  0.60635671703E-01 -0.55932753503E-01  0.86381682426E+00  0.86774703958E+00  0.51109989000E-03 0. -1.
     -623    1    1    2    0    0 -0.58263857215E-02  0.74296739695E-02  0.45090304506E-02  0.17124000032E+03  0.17124000000E+03 0.  1.
     -611    1    1    2    0    0 -0.27929008394E-01  0.23865078002E-01  0.23152268040E+01  0.23155182977E+01  0.51109989000E-03 0.  1.
      611    1    1    2    0    0 -0.26880277583E-01  0.24638001528E-01  0.23164473171E+01  0.23167343427E+01  0.51109989000E-03 0. -1.
</event>
<event>
 6   3  0.2312675E+03  0.9118800E+02  0.7818608E-02  0.1180000E+00
       11   -1    0    0    0    0  0.00000000000E+00  0.00000000000E+00  0.54999999763E+01  0.55000000000E+01  0.51109989000E-03 0.  1.
     -623   -1    0    0    0    0  0.00000000000E+00  0.00000000000E+00  0.93234578044E-11  0.17124000000E+03  0.17124000000E+03 0. -1.
       11    1    1    2    0    0  0.50726630956E-01 -0.15256580987E-01  0.10037023139E+01  0.10050992740E+01  0.51109989000E-03 0.  1.
     -623    1    1    2    0    0 -0.18217561778E-02  0.15538073139E-02  0.16841338745E-02  0.17124000003E+03  0.17124000000E+03 0. -1.
     -611    1    1    2    0    0 -0.13770604806E-01  0.37145745618E-02  0.12962345873E+01  0.12963131543E+01  0.51109989000E-03 0.  1.
      611    1    1    2    0    0 -0.35134270022E-01  0.99881991256E-02  0.31983789456E+01  0.31985875511E+01  0.51109989000E-03 0.  1.
</event>
<event>
 6   3  0.2312675E+03  0.9118800E+02  0.7818608E-02  0.1180000E+00
       11   -1    0    0    0    0  0.00000000000E+00  0.00000000000E+00  0.54999999763E+01  0.55000000000E+01  0.51109989000E-03 0. -1.
     -623   -1    0    0    0    0  0.00000000000E+00  0.00000000000E+00  0.93234578044E-11  0.17124000000E+03  0.17124000000E+03 0.  1.
       11    1    1    2    0    0  0.51382444454E-02  0.11263082984E-02  0.25273648688E+00  0.25279173869E+00  0.51109989000E-03 0. -1.
     -623    1    1    2    0    0 -0.84742529717E-01  0.70064623900E-02  0.68672799484E-03  0.17124002111E+03  0.17124000000E+03 0.  1.
     -611    1    1    2    0    0  0.37656301678E-01 -0.33279936871E-02  0.24911855882E+01  0.24914724499E+01  0.51109989000E-03 0. -1.
      611    1    1    2    0    0  0.41947983777E-01 -0.48047770183E-02  0.27553911852E+01  0.27557147102E+01  0.51109989000E-03 0. -1.
</event>
<event>
 6   3  0.2312675E+03  0.9118800E+02  0.7818608E-02  0.1180000E+00
       11   -1    0    0    0    0  0.00000000000E+00  0.00000000000E+00  0.54999999763E+01  0.55000000000E+01  0.51109989000E-03 0.  1.
     -623   -1    0    0    0    0  0.00000000000E+00  0.00000000000E+00  0.93234578044E-11  0.17124000000E+03  0.17124000000E+03 0.  1.
       11    1    1    2    0    0  0.51618043085E-01 -0.41659024072E-01  0.61203968875E+00  0.61562386121E+00  0.51109989000E-03 0.  1.
     -623    1    1    2    0    0  0.62477689135E-02 -0.44391712530E-02  0.41497899033E-02  0.17124000022E+03  0.17124000000E+03 0.  1.
     -611    1    1    2    0    0 -0.26229759946E-01  0.16552813989E-01  0.20048800010E+01  0.20051199653E+01  0.51109989000E-03 0.  1.
      611    1    1    2    0    0 -0.31636052050E-01  0.29545381334E-01  0.28789304965E+01  0.28792559515E+01  0.51109989000E-03 0.  1.
</event>
<event>
 6   3  0.2312675E+03  0.9118800E+02  0.7818608E-02  0.1180000E+00
       11   -1    0    0    0    0  0.00000000000E+00  0.00000000000E+00  0.54999999763E+01  0.55000000000E+01  0.51109989000E-03 0. -1.
     -623   -1    0    0    0    0  0.00000000000E+00  0.00000000000E+00  0.93234578044E-11  0.17124000000E+03  0.17124000000E+03 0.  1.
       11    1    1    2    0    0 -0.44253734871E-01  0.65207456065E-02  0.63473618416E+00  0.63631061430E+00  0.51109989000E-03 0. -1.
     -623    1    1    2    0    0 -0.59797089281E-02  0.41043508580E-01  0.20719567150E-02  0.17124000504E+03  0.17124000000E+03 0.  1.
     -611    1    1    2    0    0  0.44332198352E-01 -0.42341363450E-01  0.43357856088E+01  0.43362190029E+01  0.51109989000E-03 0. -1.
      611    1    1    2    0    0  0.59012454507E-02 -0.52228907396E-02  0.52740622696E+00  0.52746534744E+00  0.51109989000E-03 0. -1.
</event>
<event>
 6   3  0.2312675E+03  0.9118800E+02  0.7818608E-02  0.1180000E+00
       11   -1    0    0    0    0  0.00000000000E+00  0.00000000000E+00  0.54999999763E+01  0.55000000000E+01  0.51109989000E-03 0. -1.
     -623   -1    0    0    0    0  0.00000000000E+00  0.00000000000E+00  0.93234578044E-11  0.17124000000E+03  0.17124000000E+03 0.  1.
       11    1    1    2    0    0  0.70442710283E-03  0.28011376256E-02  0.12170989547E-01  0.12519456825E-01  0.51109989000E-03 0. -1.
     -623    1    1    2    0    0 -0.67981361413E-01 -0.81759284764E-01  0.13635514237E-02  0.17124003302E+03  0.17124000000E+03 0.  1.
     -611    1    1    2    0    0  0.20626372995E-01  0.25149917272E-01  0.18128852375E+01  0.18131770766E+01  0.51109989000E-03 0.  1.
      611    1    1    2    0    0  0.46650561325E-01  0.53808229878E-01  0.36735801986E+01  0.36742704497E+01  0.51109989000E-03 0. -1.
</event>
<event>
 6   3  0.2312675E+03  0.9118800E+02  0.7818608E-02  0.1180000E+00
       11   -1    0    0    0    0  0.00000000000E+00  0.00000000000E+00  0.54999999763E+01  0.55000000000E+01  0.51109989000E-03 0. -1.
     -623   -1    0    0    0    0  0.00000000000E+00  0.00000000000E+00  0.93234578044E-11  0.17124000000E+03  0.17124000000E+03 0.  1.
       11    1    1    2    0    0  0.30256795838E-03 -0.36516602373E-03  0.65810705457E-03  0.95876044305E-03  0.51109989000E-03 0.  1.
     -623    1    1    2    0    0  0.31681662233E-03 -0.47547004467E-03  0.13564614130E-02  0.17124000001E+03  0.17124000000E+03 0.  1.
     -611    1    1    2    0    0  0.42360934640E-01 -0.31261332239E-01  0.31743908534E+01  0.31748274396E+01  0.51109989000E-03 0.  1.
      611    1    1    2    0    0 -0.42980319221E-01  0.32101968308E-01  0.23235945544E+01  0.23242137936E+01  0.51109989000E-03 0. -1.
</event>
<event>
 6   3  0.2312675E+03  0.9118800E+02  0.7818608E-02  0.1180000E+00
       11   -1    0    0    0    0  0.00000000000E+00  0.00000000000E+00  0.54999999763E+01  0.55000000000E+01  0.51109989000E-03 0. -1.
     -623   -1    0    0    0    0  0.00000000000E+00  0.00000000000E+00  0.93234578044E-11  0.17124000000E+03  0.17124000000E+03 0.  1.
       11    1    1    2    0    0 -0.40305206750E-01  0.28278691751E-01  0.75701102383E+00  0.75861066794E+00  0.51109989000E-03 0. -1.
     -623    1    1    2    0    0 -0.76842652060E-02 -0.14072318698E-01  0.24898496170E-02  0.17124000077E+03  0.17124000000E+03 0.  1.
     -611    1    1    2    0    0  0.67386960738E-01 -0.73985256626E-02  0.40973026278E+01  0.40978634464E+01  0.51109989000E-03 0. -1.
      611    1    1    2    0    0 -0.19397488782E-01 -0.68078473901E-02  0.64319647505E+00  0.64352511691E+00  0.51109989000E-03 0.  1.
</event>
<event>
 6   3  0.2312675E+03  0.9118800E+02  0.7818608E-02  0.1180000E+00
       11   -1    0    0    0    0  0.00000000000E+00  0.00000000000E+00  0.54999999763E+01  0.55000000000E+01  0.51109989000E-03 0.  1.
     -623   -1    0    0    0    0  0.00000000000E+00  0.00000000000E+00  0.93234578044E-11  0.17124000000E+03  0.17124000000E+03 0. -1.
       11    1    1    2    0    0  0.60672250428E-01  0.54277491221E-02  0.84681710013E+00  0.84900532668E+00  0.51109989000E-03 0.  1.
     -623    1    1    2    0    0 -0.11827132572E-02 -0.31998521243E-02  0.29374457034E-02  0.17124000006E+03  0.17124000000E+03 0. -1.
     -611    1    1    2    0    0 -0.27961081731E-01 -0.29774891474E-01  0.19844346687E+01  0.19848550531E+01  0.51109989000E-03 0. -1.
      611    1    1    2    0    0 -0.31528455440E-01  0.27546994476E-01  0.26658107617E+01  0.26661395610E+01  0.51109989000E-03 0.  1.
</event>
<event>
 6   3  0.2312675E+03  0.9118800E+02  0.7818608E-02  0.1180000E+00
       11   -1    0    0    0    0  0.00000000000E+00  0.00000000000E+00  0.54999999763E+01  0.55000000000E+01  0.51109989000E-03 0. -1.
     -623   -1    0    0    0    0  0.00000000000E+00  0.00000000000E+00  0.93234578044E-11  0.17124000000E+03  0.17124000000E+03 0.  1.
       11    1    1    2    0    0 -0.10708108481E+00 -0.14978797880E-01  0.55606638063E+00  0.56648107117E+00  0.51109989000E-03 0. -1.
     -623    1    1    2    0    0  0.24864337040E-01  0.47259282110E-03  0.11133119739E-01  0.17124000217E+03  0.17124000000E+03 0.  1.
     -611    1    1    2    0    0  0.56636445539E-01  0.54542135121E-02  0.33964254074E+01  0.33969020069E+01  0.51109989000E-03 0. -1.
      611    1    1    2    0    0  0.25580302224E-01  0.90519915457E-02  0.15363750683E+01  0.15366147540E+01  0.51109989000E-03 0.  1.
</event>
<event>
 6   3  0.2312675E+03  0.9118800E+02  0.7818608E-02  0.1180000E+00
       11   -1    0    0    0    0  0.00000000000E+00  0.00000000000E+00  0.54999999763E+01  0.55000000000E+01  0.51109989000E-03 0. -1.
     -623   -1    0    0    0    0  0.00000000000E+00  0.00000000000E+00  0.93234578044E-11  0.17124000000E+03  0.17124000000E+03 0. -1.
       11    1    1    2    0    0 -0.10324441471E-02  0.42307900533E-01  0.58267682283E-01  0.72016723129E-01  0.51109989000E-03 0. -1.
     -623    1    1    2    0    0  0.43692188504E-02 -0.30414008278E-01  0.14219695732E-01  0.17124000335E+03  0.17124000000E+03 0. -1.
     -611    1    1    2    0    0  0.30368167863E-01 -0.18801867874E-01  0.22889123617E+01  0.22891910791E+01  0.51109989000E-03 0.  1.
      611    1    1    2    0    0 -0.33704942566E-01  0.69079756190E-02  0.31386002365E+01  0.31387888507E+01  0.51109989000E-03 0. -1.
</event>
<event>
 6   3  0.2312675E+03  0.9118800E+02  0.7818608E-02  0.1180000E+00
       11   -1    0    0    0    0  0.00000000000E+00  0.00000000000E+00  0.54999999763E+01  0.55000000000E+01  0.51109989000E-03 0. -1.
     -623   -1    0    0    0    0  0.00000000000E+00  0.00000000000E+00  0.93234578044E-11  0.17124000000E+03  0.17124000000E+03 0. -1.
       11    1    1    2    0    0  0.55936126172E-02  0.41565173633E-02  0.95280913457E-01  0.95536793074E-01  0.51109989000E-03 0. -1.
     -623    1    1    2    0    0 -0.10266522732E-01 -0.15916868870E-01  0.13228369230E-02  0.17124000105E+03  0.17124000000E+03 0. -1.
     -611    1    1    2    0    0  0.41644106929E-01  0.39481504900E-01  0.22705175205E+01  0.22712426319E+01  0.51109989000E-03 0.  1.
      611    1    1    2    0    0 -0.36971196814E-01 -0.27721153393E-01  0.31328787054E+01  0.31332195225E+01  0.51109989000E-03 0. -1.
</event>
<event>
 6   3  0.2312675E+03  0.9118800E+02  0.7818608E-02  0.1180000E+00
       11   -1    0    0    0    0  0.00000000000E+00  0.00000000000E+00  0.54999999763E+01  0.55000000000E+01  0.51109989000E-03 0. -1.
     -623   -1    0    0    0    0  0.00000000000E+00  0.00000000000E+00  0.93234578044E-11  0.17124000000E+03  0.17124000000E+03 0.  1.
       11    1    1    2    0    0 -0.63701153200E-02  0.25934831673E-02  0.31006228264E-01  0.31764003815E-01  0.51109989000E-03 0. -1.
     -623    1    1    2    0    0 -0.27822514816E-01 -0.32978860556E-01  0.13677734873E-02  0.17124000544E+03  0.17124000000E+03 0.  1.
     -611    1    1    2    0    0 -0.15167536356E-01 -0.52129369323E-02  0.56801355094E+00  0.56824016414E+00  0.51109989000E-03 0.  1.
      611    1    1    2    0    0  0.49360166492E-01  0.35598314322E-01  0.48996124237E+01  0.48999903907E+01  0.51109989000E-03 0. -1.
</event>
<event>
 6   3  0.2312675E+03  0.9118800E+02  0.7818608E-02  0.1180000E+00
       11   -1    0    0    0    0  0.00000000000E+00  0.00000000000E+00  0.54999999763E+01  0.55000000000E+01  0.51109989000E-03 0.  1.
     -623   -1    0    0    0    0  0.00000000000E+00  0.00000000000E+00  0.93234578044E-11  0.17124000000E+03  0.17124000000E+03 0.  1.
       11    1    1    2    0    0  0.10810869113E-01 -0.26971453147E-01  0.44845619025E+00  0.44939687356E+00  0.51109989000E-03 0.  1.
     -623    1    1    2    0    0 -0.25550366101E-02 -0.58041085870E-02  0.19409699886E-02  0.17124000013E+03  0.17124000000E+03 0.  1.
     -611    1    1    2    0    0 -0.40423385467E-01  0.35964342950E-03  0.37131062905E+01  0.37133263748E+01  0.51109989000E-03 0.  1.
      611    1    1    2    0    0  0.32167552965E-01  0.32415918304E-01  0.13364965254E+01  0.13372766232E+01  0.51109989000E-03 0. -1.
</event>
<event>
 6   3  0.2312675E+03  0.9118800E+02  0.7818608E-02  0.1180000E+00
       11   -1    0    0    0    0  0.00000000000E+00  0.00000000000E+00  0.54999999763E+01  0.55000000000E+01  0.51109989000E-03 0.  1.
     -623   -1    0    0    0    0  0.00000000000E+00  0.00000000000E+00  0.93234578044E-11  0.17124000000E+03  0.17124000000E+03 0.  1.
       11    1    1    2    0    0  0.18620773486E-01  0.42959773786E-02  0.61276764785E+00  0.61306577143E+00  0.51109989000E-03 0.  1.
     -623    1    1    2    0    0 -0.66880743637E-03  0.71202423668E-03  0.73126436377E-03  0.17124000000E+03  0.17124000000E+03 0.  1.
     -611    1    1    2    0    0  0.19210148586E-01  0.13136695312E-01  0.14997747008E+01  0.14999553383E+01  0.51109989000E-03 0. -1.
      611    1    1    2    0    0 -0.37162114635E-01 -0.18144696927E-01  0.33867263633E+01  0.33869788859E+01  0.51109989000E-03 0.  1.
</event>
<event>
 6   3  0.2312675E+03  0.9118800E+02  0.7818608E-02  0.1180000E+00
       11   -1    0    0    0    0  0.00000000000E+00  0.00000000000E+00  0.54999999763E+01  0.55000000000E+01  0.51109989000E-03 0.  1.
     -623   -1    0    0    0    0  0.00000000000E+00  0.00000000000E+00  0.93234578044E-11  0.17124000000E+03  0.17124000000E+03 0. -1.
       11    1    1    2    0    0  0.20290309713E-02 -0.12316134135E-01  0.63062736013E-02  0.13994085770E-01  0.51109989000E-03 0.  1.
     -623    1    1    2    0    0 -0.27879111048E-02 -0.87448262183E-02  0.85975015744E-02  0.17124000046E+03  0.17124000000E+03 0. -1.
     -611    1    1    2    0    0 -0.40222851035E-01  0.37406751414E-01  0.26876656865E+01  0.26882269707E+01  0.51109989000E-03 0.  1.
      611    1    1    2    0    0  0.40981731169E-01 -0.16345791061E-01  0.27974305146E+01  0.27977784817E+01  0.51109989000E-03 0. -1.
</event>
<event>
 6   3  0.2312675E+03  0.9118800E+02  0.7818608E-02  0.1180000E+00
       11   -1    0    0    0    0  0.00000000000E+00  0.00000000000E+00  0.54999999763E+01  0.55000000000E+01  0.51109989000E-03 0.  1.
     -623   -1    0    0    0    0  0.00000000000E+00  0.00000000000E+00  0.93234578044E-11  0.17124000000E+03  0.17124000000E+03 0.  1.
       11    1    1    2    0    0  0.83078777184E-01  0.19082745548E+00  0.45017377080E+00  0.49595754468E+00  0.51109989000E-03 0.  1.
     -623    1    1    2    0    0  0.22125290362E-01 -0.20417820802E-01  0.49803082405E-01  0.17124000989E+03  0.17124000000E+03 0.  1.
     -611    1    1    2    0    0 -0.83196554784E-01 -0.13570758655E+00  0.39789823206E+01  0.39821650875E+01  0.51109989000E-03 0.  1.
      611    1    1    2    0    0 -0.22007512880E-01 -0.34702048315E-01  0.10210408081E+01  0.10218674845E+01  0.51109989000E-03 0.  1.
</event>
<event>
 6   3  0.2312675E+03  0.9118800E+02  0.7818608E-02  0.1180000E+00
       11   -1    0    0    0    0  0.00000000000E+00  0.00000000000E+00  0.54999999763E+01  0.55000000000E+01  0.51109989000E-03 0. -1.
     -623   -1    0    0    0    0  0.00000000000E+00  0.00000000000E+00  0.93234578044E-11  0.17124000000E+03  0.17124000000E+03 0. -1.
       11    1    1    2    0    0 -0.27123829480E-02  0.18169236524E-01  0.10808039187E+01  0.10809601519E+01  0.51109989000E-03 0. -1.
     -623    1    1    2    0    0 -0.83300946732E-02 -0.57058822922E-02  0.74439219630E-03  0.17124000030E+03  0.17124000000E+03 0. -1.
     -611    1    1    2    0    0 -0.28579164524E-01  0.11645147130E-02  0.22612059038E+01  0.22613868589E+01  0.51109989000E-03 0.  1.
      611    1    1    2    0    0  0.39621642145E-01 -0.13627868944E-01  0.21572457617E+01  0.21576526901E+01  0.51109989000E-03 0. -1.
</event>
<event>
 6   3  0.2312675E+03  0.9118800E+02  0.7818608E-02  0.1180000E+00
       11   -1    0    0    0    0  0.00000000000E+00  0.00000000000E+00  0.54999999763E+01  0.55000000000E+01  0.51109989000E-03 0.  1.
     -623   -1    0    0    0    0  0.00000000000E+00  0.00000000000E+00  0.93234578044E-11  0.17124000000E+03  0.17124000000E+03 0.  1.
       11    1    1    2    0    0 -0.13431365077E-01 -0.16335395776E-01  0.24927824438E+00  0.25017424141E+00  0.51109989000E-03 0.  1.
     -623    1    1    2    0    0  0.10714798010E-02 -0.18214565817E-02  0.14381094420E-02  0.17124000002E+03  0.17124000000E+03 0.  1.
     -611    1    1    2    0    0 -0.26281727064E-01 -0.92787157514E-02  0.21192699434E+01  0.21194532733E+01  0.51109989000E-03 0. -1.
      611    1    1    2    0    0  0.38641612340E-01  0.27435568109E-01  0.31300136790E+01  0.31303724661E+01  0.51109989000E-03 0.  1.
</event>
<event>
 6   3  0.2312675E+03  0.9118800E+02  0.7818608E-02  0.1180000E+00
       11   -1    0    0    0    0  0.00000000000E+00  0.00000000000E+00  0.54999999763E+01  0.55000000000E+01  0.51109989000E-03 0. -1.
     -623   -1    0    0    0    0  0.00000000000E+00  0.00000000000E+00  0.93234578044E-11  0.17124000000E+03  0.17124000000E+03 0. -1.
       11    1    1    2    0    0 -0.11446269176E-01 -0.17881623680E-02  0.67425563971E+00  0.67435535403E+00  0.51109989000E-03 0. -1.
     -623    1    1    2    0    0  0.61748439114E-01  0.30833942539E-02  0.37336065728E-03  0.17124001116E+03  0.17124000000E+03 0. -1.
     -611    1    1    2    0    0 -0.14773274178E-01 -0.17670593448E-03  0.14099007855E+01  0.14099782860E+01  0.51109989000E-03 0. -1.
      611    1    1    2    0    0 -0.35528895823E-01 -0.11185259531E-02  0.34154701964E+01  0.34156552047E+01  0.51109989000E-03 0. -1.
</event>
<event>
 6   3  0.2312675E+03  0.9118800E+02  0.7818608E-02  0.1180000E+00
       11   -1    0    0    0    0  0.00000000000E+00  0.00000000000E+00  0.54999999763E+01  0.55000000000E+01  0.51109989000E-03 0. -1.
     -623   -1    0    0    0    0  0.00000000000E+00  0.00000000000E+00  0.93234578044E-11  0.17124000000E+03  0.17124000000E+03 0.  1.
       11    1    1    2    0    0  0.93552337802E-02  0.24747092219E-02  0.15897975737E-02  0.98200440038E-02  0.51109989000E-03 0. -1.
     -623    1    1    2    0    0 -0.13456358666E-01  0.31262371105E-02  0.14948334757E-01  0.17124000121E+03  0.17124000000E+03 0.  1.
     -611    1    1    2    0    0  0.80363940475E-01 -0.11269006890E+00  0.31100591671E+01  0.31131375971E+01  0.51109989000E-03 0.  1.
      611    1    1    2    0    0 -0.76262815589E-01  0.10708912256E+00  0.23734026768E+01  0.23770411492E+01  0.51109989000E-03 0. -1.
</event>
<event>
 6   3  0.2312675E+03  0.9118800E+02  0.7818608E-02  0.1180000E+00
       11   -1    0    0    0    0  0.00000000000E+00  0.00000000000E+00  0.54999999763E+01  0.55000000000E+01  0.51109989000E-03 0. -1.
     -623   -1    0    0    0    0  0.00000000000E+00  0.00000000000E+00  0.93234578044E-11  0.17124000000E+03  0.17124000000E+03 0. -1.
       11    1    1    2    0    0  0.25613428963E-02 -0.35466071251E-02  0.11235532505E-01  0.12068028559E-01  0.51109989000E-03 0. -1.
     -623    1    1    2    0    0 -0.33554329957E-02  0.89846239054E-02  0.13662776755E-02  0.17124000027E+03  0.17124000000E+03 0. -1.
     -611    1    1    2    0    0  0.34887265547E-01  0.13051254278E-01  0.29967473219E+01  0.29969788503E+01  0.51109989000E-03 0.  1.
      611    1    1    2    0    0 -0.34093175447E-01 -0.18489271058E-01  0.24906508442E+01  0.24909528471E+01  0.51109989000E-03 0. -1.
</event>
<event>
 6   3  0.2312675E+03  0.9118800E+02  0.7818608E-02  0.1180000E+00
       11   -1    0    0    0    0  0.00000000000E+00  0.00000000000E+00  0.54999999763E+01  0.55000000000E+01  0.51109989000E-03 0. -1.
     -623   -1    0    0    0    0  0.00000000000E+00  0.00000000000E+00  0.93234578044E-11  0.17124000000E+03  0.17124000000E+03 0. -1.
       11    1    1    2    0    0 -0.48880452625E-01  0.37727617397E-01  0.52346832675E+00  0.52709773486E+00  0.51109989000E-03 0. -1.
     -623    1    1    2    0    0 -0.44920862559E-02  0.15768103726E-02  0.40716414356E-02  0.17124000011E+03  0.17124000000E+03 0. -1.
     -611    1    1    2    0    0  0.22621484752E-01 -0.17639869682E-01  0.21678586124E+01  0.21680484591E+01  0.51109989000E-03 0.  1.
      611    1    1    2    0    0  0.30751054137E-01 -0.21664558094E-01  0.28046013965E+01  0.28048536923E+01  0.51109989000E-03 0. -1.
</event>
<event>
 6   3  0.2312675E+03  0.9118800E+02  0.7818608E-02  0.1180000E+00
       11   -1    0    0    0    0  0.00000000000E+00  0.00000000000E+00  0.54999999763E+01  0.55000000000E+01  0.51109989000E-03 0. -1.
     -623   -1    0    0    0    0  0.00000000000E+00  0.00000000000E+00  0.93234578044E-11  0.17124000000E+03  0.17124000000E+03 0. -1.
       11    1    1    2    0    0  0.40405939083E-01  0.42361488699E-01  0.75190520206E+00  0.75418089988E+00  0.51109989000E-03 0. -1.
     -623    1    1    2    0    0  0.16945982397E-01  0.13679063244E-01  0.29548458503E-02  0.17124000141E+03  0.17124000000E+03 0. -1.
     -611    1    1    2    0    0 -0.27426387997E-01 -0.27190962754E-01  0.23211207652E+01  0.23214420998E+01  0.51109989000E-03 0. -1.
      611    1    1    2    0    0 -0.29925533473E-01 -0.28849589179E-01  0.24240191624E+01  0.24243755891E+01  0.51109989000E-03 0. -1.
</event>
<event>
 6   3  0.2312675E+03  0.9118800E+02  0.7818608E-02  0.1180000E+00
       11   -1    0    0    0    0  0.00000000000E+00  0.00000000000E+00  0.54999999763E+01  0.55000000000E+01  0.51109989000E-03 0. -1.
     -623   -1    0    0    0    0  0.00000000000E+00  0.00000000000E+00  0.93234578044E-11  0.17124000000E+03  0.17124000000E+03 0. -1.
       11    1    1    2    0    0  0.17254233791E-02  0.54525392139E-02  0.15928953100E-02  0.59586750442E-02  0.51109989000E-03 0. -1.
     -623    1    1    2    0    0  0.51607539474E-02 -0.47372318409E-02  0.71623392346E-02  0.17124000029E+03  0.17124000000E+03 0. -1.
     -611    1    1    2    0    0 -0.89456108929E-01  0.98484205574E-02  0.24343288270E+01  0.24359918895E+01  0.51109989000E-03 0. -1.
      611    1    1    2    0    0  0.82569931603E-01 -0.10563727930E-01  0.30569159147E+01  0.30580491423E+01  0.51109989000E-03 0.  1.
</event>
<event>
 6   3  0.2312675E+03  0.9118800E+02  0.7818608E-02  0.1180000E+00
       11   -1    0    0    0    0  0.00000000000E+00  0.00000000000E+00  0.54999999763E+01  0.55000000000E+01  0.51109989000E-03 0. -1.
     -623   -1    0    0    0    0  0.00000000000E+00  0.00000000000E+00  0.93234578044E-11  0.17124000000E+03  0.17124000000E+03 0. -1.
       11    1    1    2    0    0  0.18483304360E-01  0.56225196854E-02  0.20718906761E+00  0.20808848173E+00  0.51109989000E-03 0. -1.
     -623    1    1    2    0    0  0.47032656751E-01  0.19493156634E-01  0.13723330914E-02  0.17124000757E+03  0.17124000000E+03 0. -1.
     -611    1    1    2    0    0 -0.49175110599E-01 -0.18502126293E-01  0.39533900630E+01  0.39537392139E+01  0.51109989000E-03 0. -1.
      611    1    1    2    0    0 -0.16340850620E-01 -0.66135500677E-02  0.13380485213E+01  0.13381647391E+01  0.51109989000E-03 0. -1.
</event>
<event>
 6   3  0.2312675E+03  0.9118800E+02  0.7818608E-02  0.1180000E+00
       11   -1    0    0    0    0  0.00000000000E+00  0.00000000000E+00  0.54999999763E+01  0.55000000000E+01  0.51109989000E-03 0. -1.
     -623   -1    0    0    0    0  0.00000000000E+00  0.00000000000E+00  0.93234578044E-11  0.17124000000E+03  0.17124000000E+03 0. -1.
       11    1    1    2    0    0 -0.15552468197E-02  0.17952734149E-02  0.42128662956E+00  0.42129363545E+00  0.51109989000E-03 0. -1.
     -623    1    1    2    0    0  0.65686249270E-01 -0.13528334725E-01  0.44144836484E-03  0.17124001313E+03  0.17124000000E+03 0. -1.
     -611    1    1    2    0    0 -0.18044236708E-01  0.52772315630E-02  0.13567463408E+01  0.13568766850E+01  0.51109989000E-03 0.  1.
      611    1    1    2    0    0 -0.46086765658E-01  0.64558297298E-02  0.37215255505E+01  0.37218165392E+01  0.51109989000E-03 0. -1.
</event>
<event>
 6   3  0.4708108E+03  0.9118800E+02  0.7818608E-02  0.1180000E+00
       11   -1    0    0    0    0  0.00000000000E+00  0.00000000000E+00  0.54999999763E+01  0.55000000000E+01  0.51109989000E-03 0.  1.
     -623   -1    0    0    0    0  0.00000000000E+00  0.00000000000E+00  0.93234578044E-11  0.17124000000E+03  0.17124000000E+03 0. -1.
       11    1    1    2    0    0 -0.14393651253E-02 -0.28094275898E-02  0.43541889077E-02  0.54022994630E-02  0.51109989000E-03 0.  1.
     -623    1    1    2    0    0  0.23026220285E-02  0.30775454876E-02  0.21456204398E-02  0.17124000006E+03  0.17124000000E+03 0. -1.
     -611    1    1    2    0    0  0.42008655340E-01 -0.32655133262E-01  0.21098980234E+01  0.21105688842E+01  0.51109989000E-03 0. -1.
      611    1    1    2    0    0 -0.42871912243E-01  0.32387015364E-01  0.33836021435E+01  0.33840287597E+01  0.51109989000E-03 0.  1.
</event>
<event>
 6   3  0.2312675E+03  0.9118800E+02  0.7818608E-02  0.1180000E+00
       11   -1    0    0    0    0  0.00000000000E+00  0.00000000000E+00  0.54999999763E+01  0.55000000000E+01  0.51109989000E-03 0.  1.
     -623   -1    0    0    0    0  0.00000000000E+00  0.00000000000E+00  0.93234578044E-11  0.17124000000E+03  0.17124000000E+03 0. -1.
       11    1    1    2    0    0 -0.15555717983E-01 -0.28855016580E-01  0.10067912813E-01  0.34296011944E-01  0.51109989000E-03 0.  1.
     -623    1    1    2    0    0 -0.55069038430E-01 -0.22077879287E-01  0.24934009638E-01  0.17124001209E+03  0.17124000000E+03 0. -1.
     -611    1    1    2    0    0  0.43291961022E-01  0.30823053450E-01  0.33113392497E+01  0.33117657136E+01  0.51109989000E-03 0.  1.
      611    1    1    2    0    0  0.27332795467E-01  0.20109842472E-01  0.21536588101E+01  0.21539261869E+01  0.51109989000E-03 0.  1.
</event>
<event>
 6   3  0.2312675E+03  0.9118800E+02  0.7818608E-02  0.1180000E+00
       11   -1    0    0    0    0  0.00000000000E+00  0.00000000000E+00  0.54999999763E+01  0.55000000000E+01  0.51109989000E-03 0.  1.
     -623   -1    0    0    0    0  0.00000000000E+00  0.00000000000E+00  0.93234578044E-11  0.17124000000E+03  0.17124000000E+03 0. -1.
       11    1    1    2    0    0  0.12359087347E-01  0.50097769283E-01  0.21098300663E+00  0.21720180441E+00  0.51109989000E-03 0.  1.
     -623    1    1    2    0    0  0.44764225208E-01  0.29568735751E-02  0.68002494445E-02  0.17124000601E+03  0.17124000000E+03 0. -1.
     -611    1    1    2    0    0 -0.35054099906E-01 -0.33151882738E-01  0.32698340956E+01  0.32701900726E+01  0.51109989000E-03 0.  1.
      611    1    1    2    0    0 -0.22069212519E-01 -0.19902759999E-01  0.20123826126E+01  0.20126020994E+01  0.51109989000E-03 0.  1.
</event>
<event>
 6   3  0.2312675E+03  0.9118800E+02  0.7818608E-02  0.1180000E+00
       11   -1    0    0    0    0  0.00000000000E+00  0.00000000000E+00  0.54999999763E+01  0.55000000000E+01  0.51109989000E-03 0.  1.
     -623   -1    0    0    0    0  0.00000000000E+00  0.00000000000E+00  0.93234578044E-11  0.17124000000E+03  0.17124000000E+03 0. -1.
       11    1    1    2    0    0  0.77615290145E-02 -0.58379060995E-02  0.77312350972E-01  0.77921648572E-01  0.51109989000E-03 0.  1.
     -623    1    1    2    0    0 -0.47325269301E-02 -0.19051849034E-01  0.13489346904E-02  0.17124000113E+03  0.17124000000E+03 0. -1.
     -611    1    1    2    0    0  0.40535245118E-01  0.28178797457E-02  0.24162916920E+01  0.24166333708E+01  0.51109989000E-03 0. -1.
      611    1    1    2    0    0 -0.43564247202E-01  0.22071875388E-01  0.30050469986E+01  0.30054438502E+01  0.51109989000E-03 0.  1.
</event>
<event>
 6   3  0.2312675E+03  0.9118800E+02  0.7818608E-02  0.1180000E+00
       11   -1    0    0    0    0  0.00000000000E+00  0.00000000000E+00  0.54999999763E+01  0.55000000000E+01  0.51109989000E-03 0.  1.
     -623   -1    0    0    0    0  0.00000000000E+00  0.00000000000E+00  0.93234578044E-11  0.17124000000E+03  0.17124000000E+03 0.  1.
       11    1    1    2    0    0  0.19436393058E-02 -0.50099750817E-02  0.43465823466E+00  0.43469175258E+00  0.51109989000E-03 0.  1.
     -623    1    1    2    0    0  0.30236579100E-02 -0.35907187448E-02  0.15897119561E-02  0.17124000007E+03  0.17124000000E+03 0.  1.
     -611    1    1    2    0    0  0.54165334181E-01 -0.15476509874E-01  0.16557503481E+01  0.16567084482E+01  0.51109989000E-03 0. -1.
      611    1    1    2    0    0 -0.59132631397E-01  0.24077203701E-01  0.34080016815E+01  0.34085997275E+01  0.51109989000E-03 0.  1.
</event>
<event>
 6   3  0.2312675E+03  0.9118800E+02  0.7818608E-02  0.1180000E+00
       11   -1    0    0    0    0  0.00000000000E+00  0.00000000000E+00  0.54999999763E+01  0.55000000000E+01  0.51109989000E-03 0.  1.
     -623   -1    0    0    0    0  0.00000000000E+00  0.00000000000E+00  0.93234578044E-11  0.17124000000E+03  0.17124000000E+03 0.  1.
       11    1    1    2    0    0 -0.38022360673E-01  0.19607805435E-02  0.92207758787E+00  0.92286341559E+00  0.51109989000E-03 0.  1.
     -623    1    1    2    0    0  0.15089620909E-01 -0.30195988573E-01  0.17347546518E-02  0.17124000334E+03  0.17124000000E+03 0.  1.
     -611    1    1    2    0    0 -0.17695058350E-01 -0.20007037393E-01  0.87337325482E+00  0.87378172336E+00  0.51109989000E-03 0. -1.
      611    1    1    2    0    0  0.40627798114E-01  0.48242245422E-01  0.37028143789E+01  0.37033515250E+01  0.51109989000E-03 0.  1.
</event>
<event>
 6   3  0.2312675E+03  0.9118800E+02  0.7818608E-02  0.1180000E+00
       11   -1    0    0    0    0  0.00000000000E+00  0.00000000000E+00  0.54999999763E+01  0.55000000000E+01  0.51109989000E-03 0. -1.
     -623   -1    0    0    0    0  0.00000000000E+00  0.00000000000E+00  0.93234578044E-11  0.17124000000E+03  0.17124000000E+03 0. -1.
       11    1    1    2    0    0  0.24747195543E-01 -0.52874456402E-01  0.10283090715E+01  0.10299650186E+01  0.51109989000E-03 0. -1.
     -623    1    1    2    0    0  0.24055872401E-01 -0.27785417898E-02  0.22707434146E-02  0.17124000173E+03  0.17124000000E+03 0. -1.
     -611    1    1    2    0    0 -0.96251608910E-02  0.10840740550E-01  0.87342690672E+00  0.87354735875E+00  0.51109989000E-03 0. -1.
      611    1    1    2    0    0 -0.39177907106E-01  0.44812257703E-01  0.35959932595E+01  0.35964859002E+01  0.51109989000E-03 0. -1.
</event>
<event>
 6   3  0.2312675E+03  0.9118800E+02  0.7818608E-02  0.1180000E+00
       11   -1    0    0    0    0  0.00000000000E+00  0.00000000000E+00  0.54999999763E+01  0.55000000000E+01  0.51109989000E-03 0. -1.
     -623   -1    0    0    0    0  0.00000000000E+00  0.00000000000E+00  0.93234578044E-11  0.17124000000E+03  0.17124000000E+03 0.  1.
       11    1    1    2    0    0  0.15692730370E-01 -0.95965311175E-02  0.83729019358E+00  0.83749237888E+00  0.51109989000E-03 0. -1.
     -623    1    1    2    0    0  0.42025020250E-01 -0.10763282654E-01  0.61253153258E-03  0.17124000550E+03  0.17124000000E+03 0.  1.
     -611    1    1    2    0    0 -0.49103919789E-01  0.15519672560E-01  0.38398112820E+01  0.38401566372E+01  0.51109989000E-03 0. -1.
      611    1    1    2    0    0 -0.86138308302E-02  0.48401412113E-02  0.82228596909E+00  0.82234548776E+00  0.51109989000E-03 0.  1.
</event>
<event>
 6   3  0.2312675E+03  0.9118800E+02  0.7818608E-02  0.1180000E+00
       11   -1    0    0    0    0  0.00000000000E+00  0.00000000000E+00  0.54999999763E+01  0.55000000000E+01  0.51109989000E-03 0. -1.
     -623   -1    0    0    0    0  0.00000000000E+00  0.00000000000E+00  0.93234578044E-11  0.17124000000E+03  0.17124000000E+03 0. -1.
       11    1    1    2    0    0 -0.78480445139E-01  0.49430610900E-02  0.36837268693E+00  0.37667268526E+00  0.51109989000E-03 0. -1.
     -623    1    1    2    0    0 -0.18939797872E-01  0.72856539423E-02  0.92424729572E-02  0.17124000145E+03  0.17124000000E+03 0. -1.
     -611    1    1    2    0    0  0.27146028740E-01 -0.34332643351E-02  0.14188462839E+01  0.14191101904E+01  0.51109989000E-03 0.  1.
      611    1    1    2    0    0  0.70274214192E-01 -0.87954506872E-02  0.37035385283E+01  0.37042156683E+01  0.51109989000E-03 0. -1.
</event>
<event>
 6   3  0.2312675E+03  0.9118800E+02  0.7818608E-02  0.1180000E+00
       11   -1    0    0    0    0  0.00000000000E+00  0.00000000000E+00  0.54999999763E+01  0.55000000000E+01  0.51109989000E-03 0.  1.
     -623   -1    0    0    0    0  0.00000000000E+00  0.00000000000E+00  0.93234578044E-11  0.17124000000E+03  0.17124000000E+03 0.  1.
       11    1    1    2    0    0  0.30195726732E-01 -0.11312595010E-02  0.19372218183E+00  0.19606531212E+00  0.51109989000E-03 0.  1.
     -623    1    1    2    0    0  0.46671744870E-03  0.76408440541E-02  0.41696856804E-02  0.17124000022E+03  0.17124000000E+03 0.  1.
     -611    1    1    2    0    0 -0.77014470761E-01 -0.14490778891E-01  0.20680438917E+01  0.20695282097E+01  0.51109989000E-03 0. -1.
      611    1    1    2    0    0  0.46352026580E-01  0.79811943382E-02  0.32340642170E+01  0.32344062563E+01  0.51109989000E-03 0.  1.
</event>
<event>
 6   3  0.2312675E+03  0.9118800E+02  0.7818608E-02  0.1180000E+00
       11   -1    0    0    0    0  0.00000000000E+00  0.00000000000E+00  0.54999999763E+01  0.55000000000E+01  0.51109989000E-03 0. -1.
     -623   -1    0    0    0    0  0.00000000000E+00  0.00000000000E+00  0.93234578044E-11  0.17124000000E+03  0.17124000000E+03 0. -1.
       11    1    1    2    0    0  0.34105022989E-01  0.14881256539E-01  0.43472569290E+00  0.43631558954E+00  0.51109989000E-03 0. -1.
     -623    1    1    2    0    0  0.22109752035E-01  0.74771470236E-03  0.19286514150E-02  0.17124000144E+03  0.17124000000E+03 0. -1.
     -611    1    1    2    0    0 -0.26034606081E-01 -0.72752012465E-02  0.24885642457E+01  0.24887111113E+01  0.51109989000E-03 0. -1.
      611    1    1    2    0    0 -0.30180168924E-01 -0.83537699902E-02  0.25747813846E+01  0.25749718577E+01  0.51109989000E-03 0.  1.
</event>
<event>
 6   3  0.2312675E+03  0.9118800E+02  0.7818608E-02  0.1180000E+00
       11   -1    0    0    0    0  0.00000000000E+00  0.00000000000E+00  0.54999999763E+01  0.55000000000E+01  0.51109989000E-03 0. -1.
     -623   -1    0    0    0    0  0.00000000000E+00  0.00000000000E+00  0.93234578044E-11  0.17124000000E+03  0.17124000000E+03 0. -1.
       11    1    1    2    0    0 -0.40121369291E-03 -0.12881759228E-02  0.15641941004E+00  0.15642606378E+00  0.51109989000E-03 0. -1.
     -623    1    1    2    0    0 -0.53481790608E-01  0.51028968519E-02  0.28829252304E-03  0.17124000843E+03  0.17124000000E+03 0. -1.
     -611    1    1    2    0    0  0.39316405895E-01 -0.24529125816E-02  0.39159878055E+01  0.39161859699E+01  0.51109989000E-03 0. -1.
      611    1    1    2    0    0  0.14566598212E-01 -0.13618083313E-02  0.14273044486E+01  0.14273795187E+01  0.51109989000E-03 0. -1.
</event>
<event>
 6   3  0.2312675E+03  0.9118800E+02  0.7818608E-02  0.1180000E+00
       11   -1    0    0    0    0  0.00000000000E+00  0.00000000000E+00  0.54999999763E+01  0.55000000000E+01  0.51109989000E-03 0.  1.
     -623   -1    0    0    0    0  0.00000000000E+00  0.00000000000E+00  0.93234578044E-11  0.17124000000E+03  0.17124000000E+03 0.  1.
       11    1    1    2    0    0 -0.68395203358E-03 -0.14100595099E-02  0.55533569126E-02  0.57928450956E-02  0.51109989000E-03 0.  1.
     -623    1    1    2    0    0  0.18228694015E-02  0.20017585613E-02  0.13599271846E-02  0.17124000003E+03  0.17124000000E+03 0.  1.
     -611    1    1    2    0    0 -0.53756863157E-01  0.26495364668E-02  0.35394067478E+01  0.35398159850E+01  0.51109989000E-03 0.  1.
      611    1    1    2    0    0  0.52617945789E-01 -0.32412355182E-02  0.19536799443E+01  0.19543911430E+01  0.51109989000E-03 0. -1.
</event>
<event>
 6   3  0.2312675E+03  0.9118800E+02  0.7818608E-02  0.1180000E+00
       11   -1    0    0    0    0  0.00000000000E+00  0.00000000000E+00  0.54999999763E+01  0.55000000000E+01  0.51109989000E-03 0.  1.
     -623   -1    0    0    0    0  0.00000000000E+00  0.00000000000E+00  0.93234578044E-11  0.17124000000E+03  0.17124000000E+03 0.  1.
       11    1    1    2    0    0  0.21647809763E-01 -0.12810315157E-01  0.55551267774E+00  0.55608212360E+00  0.51109989000E-03 0.  1.
     -623    1    1    2    0    0  0.32122016271E-01  0.33974447602E-01  0.91380801378E-03  0.17124000639E+03  0.17124000000E+03 0.  1.
     -611    1    1    2    0    0 -0.33068485612E-01 -0.13624052813E-01  0.30327868328E+01  0.30329977537E+01  0.51109989000E-03 0.  1.
      611    1    1    2    0    0 -0.20701340421E-01 -0.75400796295E-02  0.19107866575E+01  0.19109137369E+01  0.51109989000E-03 0.  1.
</event>
<event>
 6   3  0.2312675E+03  0.9118800E+02  0.7818608E-02  0.1180000E+00
       11   -1    0    0    0    0  0.00000000000E+00  0.00000000000E+00  0.54999999763E+01  0.55000000000E+01  0.51109989000E-03 0.  1.
     -623   -1    0    0    0    0  0.00000000000E+00  0.00000000000E+00  0.93234578044E-11  0.17124000000E+03  0.17124000000E+03 0. -1.
       11    1    1    2    0    0  0.21276780426E-01  0.31748617220E-01  0.63741967461E+00  0.63856462389E+00  0.51109989000E-03 0.  1.
     -623    1    1    2    0    0  0.89489238219E-02 -0.18492901889E-01  0.17031583703E-02  0.17124000124E+03  0.17124000000E+03 0. -1.
     -611    1    1    2    0    0 -0.46456143524E-01  0.26888461335E-03  0.41010728037E+01  0.41013359589E+01  0.51109989000E-03 0.  1.
      611    1    1    2    0    0  0.16230439275E-01 -0.13524599944E-01  0.75980433967E+00  0.76009817640E+00  0.51109989000E-03 0. -1.
</event>
<event>
 6   3  0.2312675E+03  0.9118800E+02  0.7818608E-02  0.1180000E+00
       11   -1    0    0    0    0  0.00000000000E+00  0.00000000000E+00  0.54999999763E+01  0.55000000000E+01  0.51109989000E-03 0. -1.
     -623   -1    0    0    0    0  0.00000000000E+00  0.00000000000E+00  0.93234578044E-11  0.17124000000E+03  0.17124000000E+03 0. -1.
       11    1    1    2    0    0  0.72210854927E-01 -0.37149939943E-03  0.84720596528E+00  0.85027804535E+00  0.51109989000E-03 0. -1.
     -623    1    1    2    0    0 -0.18700596115E-01  0.48012433972E-02  0.33843347372E-02  0.17124000112E+03  0.17124000000E+03 0. -1.
     -611    1    1    2    0    0 -0.24291174867E-01 -0.17217257899E-02  0.22393352141E+01  0.22394676795E+01  0.51109989000E-03 0. -1.
      611    1    1    2    0    0 -0.29219083938E-01 -0.27080182073E-02  0.24100744615E+01  0.24102531526E+01  0.51109989000E-03 0.  1.
</event>
<event>
 6   3  0.2312675E+03  0.9118800E+02  0.7818608E-02  0.1180000E+00
       11   -1    0    0    0    0  0.00000000000E+00  0.00000000000E+00  0.54999999763E+01  0.55000000000E+01  0.51109989000E-03 0. -1.
     -623   -1    0    0    0    0  0.00000000000E+00  0.00000000000E+00  0.93234578044E-11  0.17124000000E+03  0.17124000000E+03 0.  1.
       11    1    1    2    0    0 -0.65416653211E-01  0.10254036091E-01  0.48979121261E+00  0.49424708087E+00  0.51109989000E-03 0. -1.
     -623    1    1    2    0    0  0.73424266597E-02 -0.27058823745E-02  0.47992687156E-02  0.17124000025E+03  0.17124000000E+03 0.  1.
     -611    1    1    2    0    0  0.41170694220E-01 -0.62779438233E-02  0.35258352591E+01  0.35260812490E+01  0.51109989000E-03 0.  1.
      611    1    1    2    0    0  0.16903532347E-01 -0.12702098949E-02  0.14795742372E+01  0.14796714255E+01  0.51109989000E-03 0. -1.
</event>
<event>
 6   3  0.2312675E+03  0.9118800E+02  0.7818608E-02  0.1180000E+00
       11   -1    0    0    0    0  0.00000000000E+00  0.00000000000E+00  0.54999999763E+01  0.55000000000E+01  0.51109989000E-03 0. -1.
     -623   -1    0    0    0    0  0.00000000000E+00  0.00000000000E+00  0.93234578044E-11  0.17124000000E+03  0.17124000000E+03 0.  1.
       11    1    1    2    0    0 -0.49301078708E-01  0.35748051369E-01  0.10330082239E+01  0.10348018030E+01  0.51109989000E-03 0. -1.
     -623    1    1    2    0    0  0.80696532434E-03 -0.12313575234E-02  0.21962974816E-02  0.17124000002E+03  0.17124000000E+03 0.  1.
     -611    1    1    2    0    0  0.39142350130E-01 -0.30740900147E-01  0.38024232219E+01  0.38027489723E+01  0.51109989000E-03 0. -1.
      611    1    1    2    0    0  0.93517632563E-02 -0.37757937001E-02  0.66237223314E+00  0.66244920451E+00  0.51109989000E-03 0.  1.
</event>
<event>
 6   3  0.2312675E+03  0.9118800E+02  0.7818608E-02  0.1180000E+00
       11   -1    0    0    0    0  0.00000000000E+00  0.00000000000E+00  0.54999999763E+01  0.55000000000E+01  0.51109989000E-03 0. -1.
     -623   -1    0    0    0    0  0.00000000000E+00  0.00000000000E+00  0.93234578044E-11  0.17124000000E+03  0.17124000000E+03 0.  1.
       11    1    1    2    0    0 -0.94475394019E-02 -0.69143220906E-03  0.14020745487E-01  0.16928573665E-01  0.51109989000E-03 0. -1.
     -623    1    1    2    0    0  0.10468754327E-01  0.10946139756E-02  0.62037624367E-02  0.17124000044E+03  0.17124000000E+03 0.  1.
     -611    1    1    2    0    0 -0.68147470684E-01  0.54017132149E-01  0.16234382482E+01  0.16257656458E+01  0.51109989000E-03 0.  1.
      611    1    1    2    0    0  0.67126255759E-01 -0.54420313915E-01  0.38563372202E+01  0.38573053446E+01  0.51109989000E-03 0. -1.
</event>
<event>
 6   3  0.2312675E+03  0.9118800E+02  0.7818608E-02  0.1180000E+00
       11   -1    0    0    0    0  0.00000000000E+00  0.00000000000E+00  0.54999999763E+01  0.55000000000E+01  0.51109989000E-03 0.  1.
     -623   -1    0    0    0    0  0.00000000000E+00  0.00000000000E+00  0.93234578044E-11  0.17124000000E+03  0.17124000000E+03 0. -1.
       11    1    1    2    0    0  0.84578068951E-02  0.55702284691E-02  0.35598693327E+00  0.35613132385E+00  0.51109989000E-03 0.  1.
     -623    1    1    2    0    0 -0.11987258093E+00 -0.53038115983E-01  0.16207014795E-02  0.17124005018E+03  0.17124000000E+03 0. -1.
     -611    1    1    2    0    0  0.17973169645E-01  0.80333331009E-02  0.82518903479E+00  0.82542399628E+00  0.51109989000E-03 0.  1.
      611    1    1    2    0    0  0.93441604629E-01  0.39434554515E-01  0.43172033175E+01  0.43183945122E+01  0.51109989000E-03 0.  1.
</event>
<event>
 6   3  0.2312675E+03  0.9118800E+02  0.7818608E-02  0.1180000E+00
       11   -1    0    0    0    0  0.00000000000E+00  0.00000000000E+00  0.54999999763E+01  0.55000000000E+01  0.51109989000E-03 0. -1.
     -623   -1    0    0    0    0  0.00000000000E+00  0.00000000000E+00  0.93234578044E-11  0.17124000000E+03  0.17124000000E+03 0. -1.
       11    1    1    2    0    0 -0.22899940920E-01  0.71536472680E-01  0.68245492207E+00  0.68657618376E+00  0.51109989000E-03 0. -1.
     -623    1    1    2    0    0 -0.44208800600E-01  0.73099684373E-02  0.86395449638E-02  0.17124000608E+03  0.17124000000E+03 0. -1.
     -611    1    1    2    0    0  0.12722334551E+00 -0.49776077785E-01  0.26983931998E+01  0.27018492851E+01  0.51109989000E-03 0. -1.
      611    1    1    2    0    0 -0.60114603991E-01 -0.29070363333E-01  0.21105123095E+01  0.21115684505E+01  0.51109989000E-03 0.  1.
</event>
<event>
 6   3  0.2312675E+03  0.9118800E+02  0.7818608E-02  0.1180000E+00
       11   -1    0    0    0    0  0.00000000000E+00  0.00000000000E+00  0.54999999763E+01  0.55000000000E+01  0.51109989000E-03 0. -1.
     -623   -1    0    0    0    0  0.00000000000E+00  0.00000000000E+00  0.93234578044E-11  0.17124000000E+03  0.17124000000E+03 0.  1.
       11    1    1    2    0    0 -0.47994213469E-01  0.13733786936E-01  0.82643600987E+00  0.82794251073E+00  0.51109989000E-03 0. -1.
     -623    1    1    2    0    0 -0.48706915119E-01 -0.14652113336E-01  0.25151990576E-02  0.17124000757E+03  0.17124000000E+03 0.  1.
     -611    1    1    2    0    0  0.60534832655E-01  0.16067933360E-03  0.29191106168E+01  0.29197382668E+01  0.51109989000E-03 0. -1.
      611    1    1    2    0    0  0.36166295938E-01  0.75764706575E-03  0.17519381508E+01  0.17523116505E+01  0.51109989000E-03 0. -1.
</event>
<event>
 6   3  0.2312675E+03  0.9118800E+02  0.7818608E-02  0.1180000E+00
       11   -1    0    0    0    0  0.00000000000E+00  0.00000000000E+00  0.54999999763E+01  0.55000000000E+01  0.51109989000E-03 0. -1.
     -623   -1    0    0    0    0  0.00000000000E+00  0.00000000000E+00  0.93234578044E-11  0.17124000000E+03  0.17124000000E+03 0. -1.
       11    1    1    2    0    0 -0.65003336304E-04 -0.54489905843E-03  0.30186221500E-02  0.31103766974E-02  0.51109989000E-03 0. -1.
     -623    1    1    2    0    0  0.66136858919E-03  0.17513884092E-02  0.68413412203E-03  0.17124000001E+03  0.17124000000E+03 0. -1.
     -611    1    1    2    0    0  0.37059552098E-01 -0.95537267076E-02  0.18995976108E+01  0.18999831653E+01  0.51109989000E-03 0.  1.
      611    1    1    2    0    0 -0.37655917351E-01  0.83472373569E-02  0.35966996092E+01  0.35969064464E+01  0.51109989000E-03 0. -1.
</event>
<event>
 6   3  0.2312675E+03  0.9118800E+02  0.7818608E-02  0.1180000E+00
       11   -1    0    0    0    0  0.00000000000E+00  0.00000000000E+00  0.54999999763E+01  0.55000000000E+01  0.51109989000E-03 0. -1.
     -623   -1    0    0    0    0  0.00000000000E+00  0.00000000000E+00  0.93234578044E-11  0.17124000000E+03  0.17124000000E+03 0.  1.
       11    1    1    2    0    0 -0.45702954204E-01  0.64255470640E-01  0.60908067959E+00  0.61416370863E+00  0.51109989000E-03 0. -1.
     -623    1    1    2    0    0  0.72324327836E-01 -0.49118711965E-01  0.11092333411E-01  0.17124002268E+03  0.17124000000E+03 0.  1.
     -611    1    1    2    0    0 -0.48396980068E-01  0.73666567968E-01  0.40509183204E+01  0.40518771614E+01  0.51109989000E-03 0. -1.
      611    1    1    2    0    0  0.21775606436E-01 -0.88803326643E-01  0.82890864288E+00  0.83393645281E+00  0.51109989000E-03 0.  1.
</event>
<event>
 6   3  0.2312675E+03  0.9118800E+02  0.7818608E-02  0.1180000E+00
       11   -1    0    0    0    0  0.00000000000E+00  0.00000000000E+00  0.54999999763E+01  0.55000000000E+01  0.51109989000E-03 0. -1.
     -623   -1    0    0    0    0  0.00000000000E+00  0.00000000000E+00  0.93234578044E-11  0.17124000000E+03  0.17124000000E+03 0. -1.
       11    1    1    2    0    0 -0.11441111341E-01 -0.10331443000E-01  0.21992355331E+00  0.22046375726E+00  0.51109989000E-03 0. -1.
     -623    1    1    2    0    0  0.13054064097E-01  0.24403582997E-02  0.12156694681E-02  0.17124000052E+03  0.17124000000E+03 0. -1.
     -611    1    1    2    0    0 -0.40523308600E-01 -0.45836099119E-03  0.18494014995E+01  0.18498455384E+01  0.51109989000E-03 0. -1.
      611    1    1    2    0    0  0.38910355844E-01  0.83494456920E-02  0.34294592539E+01  0.34296901849E+01  0.51109989000E-03 0.  1.
</event>
<event>
 6   3  0.2312675E+03  0.9118800E+02  0.7818608E-02  0.1180000E+00
       11   -1    0    0    0    0  0.00000000000E+00  0.00000000000E+00  0.54999999763E+01  0.55000000000E+01  0.51109989000E-03 0. -1.
     -623   -1    0    0    0    0  0.00000000000E+00  0.00000000000E+00  0.93234578044E-11  0.17124000000E+03  0.17124000000E+03 0. -1.
       11    1    1    2    0    0 -0.12345291102E-01 -0.37265910414E-01  0.49898951146E+00  0.50053166539E+00  0.51109989000E-03 0. -1.
     -623    1    1    2    0    0  0.13256314921E+00  0.86758673989E-01  0.33086567402E-02  0.17124007332E+03  0.17124000000E+03 0. -1.
     -611    1    1    2    0    0 -0.55393925458E-01 -0.25163769055E-01  0.23809676719E+01  0.23817449524E+01  0.51109989000E-03 0.  1.
      611    1    1    2    0    0 -0.64823932652E-01 -0.24328994520E-01  0.26167341361E+01  0.26176500611E+01  0.51109989000E-03 0. -1.
</event>
<event>
 6   3  0.2312675E+03  0.9118800E+02  0.7818608E-02  0.1180000E+00
       11   -1    0    0    0    0  0.00000000000E+00  0.00000000000E+00  0.54999999763E+01  0.55000000000E+01  0.51109989000E-03 0.  1.
     -623   -1    0    0    0    0  0.00000000000E+00  0.00000000000E+00  0.93234578044E-11  0.17124000000E+03  0.17124000000E+03 0.  1.
       11    1    1    2    0    0  0.23669570127E-01  0.52690510838E-01  0.28692432018E+00  0.29268133732E+00  0.51109989000E-03 0.  1.
     -623    1    1    2    0    0 -0.46367220525E-01 -0.11290044300E-01  0.76289512126E-02  0.17124000682E+03  0.17124000000E+03 0.  1.
     -611    1    1    2    0    0  0.67743781160E-01 -0.48060959929E-01  0.22833083698E+01  0.22848186905E+01  0.51109989000E-03 0.  1.
      611    1    1    2    0    0 -0.45046130762E-01  0.66604933918E-02  0.29221383351E+01  0.29224931525E+01  0.51109989000E-03 0. -1.
</event>
<event>
 6   3  0.2312675E+03  0.9118800E+02  0.7818608E-02  0.1180000E+00
       11   -1    0    0    0    0  0.00000000000E+00  0.00000000000E+00  0.54999999763E+01  0.55000000000E+01  0.51109989000E-03 0.  1.
     -623   -1    0    0    0    0  0.00000000000E+00  0.00000000000E+00  0.93234578044E-11  0.17124000000E+03  0.17124000000E+03 0. -1.
       11    1    1    2    0    0 -0.71889818306E-01 -0.51056503446E-03  0.56837542975E+00  0.57290426515E+00  0.51109989000E-03 0.  1.
     -623    1    1    2    0    0 -0.29763783488E-01  0.13562588928E-02  0.57141626754E-02  0.17124000269E+03  0.17124000000E+03 0. -1.
     -611    1    1    2    0    0  0.95261488101E-01  0.95186950922E-02  0.44011020566E+01  0.44021432201E+01  0.51109989000E-03 0.  1.
      611    1    1    2    0    0  0.63921136926E-02 -0.10364388951E-01  0.52480832724E+00  0.52494982735E+00  0.51109989000E-03 0. -1.
</event>
<event>
 6   3  0.2312675E+03  0.9118800E+02  0.7818608E-02  0.1180000E+00
       11   -1    0    0    0    0  0.00000000000E+00  0.00000000000E+00  0.54999999763E+01  0.55000000000E+01  0.51109989000E-03 0. -1.
     -623   -1    0    0    0    0  0.00000000000E+00  0.00000000000E+00  0.93234578044E-11  0.17124000000E+03  0.17124000000E+03 0.  1.
       11    1    1    2    0    0  0.70919263419E-02  0.10395887092E-01  0.55472073559E-01  0.56883934953E-01  0.51109989000E-03 0. -1.
     -623    1    1    2    0    0  0.13262923256E-01 -0.18103791554E-02  0.19173049171E-02  0.17124000053E+03  0.17124000000E+03 0.  1.
     -611    1    1    2    0    0  0.22115021496E-01  0.11995558538E-01  0.13662803175E+01  0.13665120324E+01  0.51109989000E-03 0.  1.
      611    1    1    2    0    0 -0.42469871094E-01 -0.20581066475E-01  0.40763302803E+01  0.40766034987E+01  0.51109989000E-03 0. -1.
</event>
<event>
 6   3  0.2312675E+03  0.9118800E+02  0.7818608E-02  0.1180000E+00
       11   -1    0    0    0    0  0.00000000000E+00  0.00000000000E+00  0.54999999763E+01  0.55000000000E+01  0.51109989000E-03 0. -1.
     -623   -1    0    0    0    0  0.00000000000E+00  0.00000000000E+00  0.93234578044E-11  0.17124000000E+03  0.17124000000E+03 0.  1.
       11    1    1    2    0    0 -0.22942443050E-01  0.11741580819E-01  0.84110440115E+00  0.84149931388E+00  0.51109989000E-03 0. -1.
     -623    1    1    2    0    0 -0.96350404456E-03 -0.27345241660E-02  0.97451809070E-03  0.17124000003E+03  0.17124000000E+03 0.  1.
     -611    1    1    2    0    0 -0.18650451131E-01  0.93365622009E-02  0.70689553939E+00  0.70720334809E+00  0.51109989000E-03 0.  1.
      611    1    1    2    0    0  0.42556398225E-01 -0.18343618854E-01  0.39510255175E+01  0.39512973106E+01  0.51109989000E-03 0. -1.
</event>
<event>
 6   3  0.2312675E+03  0.9118800E+02  0.7818608E-02  0.1180000E+00
       11   -1    0    0    0    0  0.00000000000E+00  0.00000000000E+00  0.54999999763E+01  0.55000000000E+01  0.51109989000E-03 0.  1.
     -623   -1    0    0    0    0  0.00000000000E+00  0.00000000000E+00  0.93234578044E-11  0.17124000000E+03  0.17124000000E+03 0. -1.
       11    1    1    2    0    0  0.24530037778E-02  0.90731294580E-02  0.26942701296E+00  0.26959138607E+00  0.51109989000E-03 0.  1.
     -623    1    1    2    0    0 -0.11005567707E-02 -0.18182357352E-03  0.55147817869E-03  0.17124000000E+03  0.17124000000E+03 0. -1.
     -611    1    1    2    0    0 -0.30453974285E-01 -0.13653872431E-01  0.23695338504E+01  0.23697689343E+01  0.51109989000E-03 0.  1.
      611    1    1    2    0    0  0.29101527278E-01  0.47625665468E-02  0.28604876348E+01  0.28606396751E+01  0.51109989000E-03 0. -1.
</event>
<event>
 6   3  0.2312675E+03  0.9118800E+02  0.7818608E-02  0.1180000E+00
       11   -1    0    0    0    0  0.00000000000E+00  0.00000000000E+00  0.54999999763E+01  0.55000000000E+01  0.51109989000E-03 0. -1.
     -623   -1    0    0    0    0  0.00000000000E+00  0.00000000000E+00  0.93234578044E-11  0.17124000000E+03  0.17124000000E+03 0.  1.
       11    1    1    2    0    0  0.61828448566E-01 -0.38498842789E-01  0.49983886876E+00  0.50511788119E+00  0.51109989000E-03 0. -1.
     -623    1    1    2    0    0 -0.61796297201E-02  0.36059035139E-02  0.57113504011E-02  0.17124000024E+03  0.17124000000E+03 0.  1.
     -611    1    1    2    0    0 -0.25185342684E-01  0.15902084756E-01  0.23057555894E+01  0.23059480213E+01  0.51109989000E-03 0. -1.
      611    1    1    2    0    0 -0.30463476100E-01  0.18990854480E-01  0.26886941622E+01  0.26889338473E+01  0.51109989000E-03 0. -1.
</event>
<event>
 6   3  0.2312675E+03  0.9118800E+02  0.7818608E-02  0.1180000E+00
       11   -1    0    0    0    0  0.00000000000E+00  0.00000000000E+00  0.54999999763E+01  0.55000000000E+01  0.51109989000E-03 0. -1.
     -623   -1    0    0    0    0  0.00000000000E+00  0.00000000000E+00  0.93234578044E-11  0.17124000000E+03  0.17124000000E+03 0.  1.
       11    1    1    2    0    0 -0.25643923356E-02 -0.85701216071E-02  0.25859774484E+00  0.25875292839E+00  0.51109989000E-03 0. -1.
     -623    1    1    2    0    0 -0.46354636900E-02  0.54230991270E-02  0.67827899635E-03  0.17124000015E+03  0.17124000000E+03 0.  1.
     -611    1    1    2    0    0  0.38629936046E-01 -0.38621962873E-02  0.21088559079E+01  0.21092132870E+01  0.51109989000E-03 0.  1.
      611    1    1    2    0    0 -0.31430080020E-01  0.70092187671E-02  0.31318680449E+01  0.31320336350E+01  0.51109989000E-03 0. -1.
</event>
<event>
 6   3  0.2312675E+03  0.9118800E+02  0.7818608E-02  0.1180000E+00
       11   -1    0    0    0    0  0.00000000000E+00  0.00000000000E+00  0.54999999763E+01  0.55000000000E+01  0.51109989000E-03 0. -1.
     -623   -1    0    0    0    0  0.00000000000E+00  0.00000000000E+00  0.93234578044E-11  0.17124000000E+03  0.17124000000E+03 0. -1.
       11    1    1    2    0    0  0.92462631975E-02  0.64790845626E-01  0.65310031845E+00  0.65637156721E+00  0.51109989000E-03 0. -1.
     -623    1    1    2    0    0 -0.14711499649E-01 -0.31744335282E-02  0.44983153077E-02  0.17124000072E+03  0.17124000000E+03 0. -1.
     -611    1    1    2    0    0  0.44559048001E-01 -0.31750653439E-01  0.18086681120E+01  0.18094955688E+01  0.51109989000E-03 0.  1.
      611    1    1    2    0    0 -0.39093811549E-01 -0.29865758659E-01  0.30337332305E+01  0.30341321436E+01  0.51109989000E-03 0. -1.
</event>
<event>
 6   3  0.2312675E+03  0.9118800E+02  0.7818608E-02  0.1180000E+00
       11   -1    0    0    0    0  0.00000000000E+00  0.00000000000E+00  0.54999999763E+01  0.55000000000E+01  0.51109989000E-03 0. -1.
     -623   -1    0    0    0    0  0.00000000000E+00  0.00000000000E+00  0.93234578044E-11  0.17124000000E+03  0.17124000000E+03 0. -1.
       11    1    1    2    0    0 -0.13237105766E-02 -0.11467837641E-04 -0.17139817826E-03  0.14293150929E-02  0.51109989000E-03 0. -1.
     -623    1    1    2    0    0  0.56336561493E-03 -0.97638454381E-03  0.24101834604E-02  0.17124000002E+03  0.17124000000E+03 0. -1.
     -611    1    1    2    0    0 -0.45552824380E-01  0.11212337690E-01  0.27360396940E+01  0.27364418950E+01  0.51109989000E-03 0.  1.
      611    1    1    2    0    0  0.46313169342E-01 -0.10224485309E-01  0.27617214971E+01  0.27621287693E+01  0.51109989000E-03 0. -1.
</event>
<event>
 6   3  0.2312675E+03  0.9118800E+02  0.7818608E-02  0.1180000E+00
       11   -1    0    0    0    0  0.00000000000E+00  0.00000000000E+00  0.54999999763E+01  0.55000000000E+01  0.51109989000E-03 0.  1.
     -623   -1    0    0    0    0  0.00000000000E+00  0.00000000000E+00  0.93234578044E-11  0.17124000000E+03  0.17124000000E+03 0.  1.
       11    1    1    2    0    0 -0.32363700517E-01  0.10561641046E+00  0.65218723354E+00  0.66147614022E+00  0.51109989000E-03 0.  1.
     -623    1    1    2    0    0  0.84416576810E-02  0.36470099745E-02  0.12447066608E-01  0.17124000070E+03  0.17124000000E+03 0.  1.
     -611    1    1    2    0    0  0.69015798797E-01 -0.99442413970E-01  0.40452422206E+01  0.40470528609E+01  0.51109989000E-03 0.  1.
      611    1    1    2    0    0 -0.45093755961E-01 -0.98210064630E-02  0.79012345552E+00  0.79147029962E+00  0.51109989000E-03 0. -1.
</event>
<event>
 6   3  0.2312675E+03  0.9118800E+02  0.7818608E-02  0.1180000E+00
       11   -1    0    0    0    0  0.00000000000E+00  0.00000000000E+00  0.54999999763E+01  0.55000000000E+01  0.51109989000E-03 0.  1.
     -623   -1    0    0    0    0  0.00000000000E+00  0.00000000000E+00  0.93234578044E-11  0.17124000000E+03  0.17124000000E+03 0.  1.
       11    1    1    2    0    0  0.13487378179E-02  0.39172035080E-01  0.15926455799E+00  0.16401746274E+00  0.51109989000E-03 0.  1.
     -623    1    1    2    0    0 -0.23706101035E-01  0.13344783267E-01  0.62833026171E-02  0.17124000228E+03  0.17124000000E+03 0.  1.
     -611    1    1    2    0    0  0.54286067788E-01 -0.70771696248E-01  0.33496955722E+01  0.33508829132E+01  0.51109989000E-03 0.  1.
      611    1    1    2    0    0 -0.31928704570E-01  0.18254877901E-01  0.19847565435E+01  0.19850973479E+01  0.51109989000E-03 0. -1.
</event>
<event>
 6   3  0.2312675E+03  0.9118800E+02  0.7818608E-02  0.1180000E+00
       11   -1    0    0    0    0  0.00000000000E+00  0.00000000000E+00  0.54999999763E+01  0.55000000000E+01  0.51109989000E-03 0. -1.
     -623   -1    0    0    0    0  0.00000000000E+00  0.00000000000E+00  0.93234578044E-11  0.17124000000E+03  0.17124000000E+03 0.  1.
       11    1    1    2    0    0 -0.19363285099E-03  0.61168016460E-02 -0.19621788254E-02  0.64470244995E-02  0.51109989000E-03 0. -1.
     -623    1    1    2    0    0  0.73985953771E-03  0.37010673160E-02  0.97660057064E-02  0.17124000032E+03  0.17124000000E+03 0.  1.
     -611    1    1    2    0    0 -0.46087604327E-01 -0.18599322157E-01  0.44985175784E+01  0.44987921342E+01  0.51109989000E-03 0. -1.
      611    1    1    2    0    0  0.45541377640E-01  0.87814531947E-02  0.99367857099E+00  0.99476052126E+00  0.51109989000E-03 0.  1.
</event>
<event>
 6   3  0.2312675E+03  0.9118800E+02  0.7818608E-02  0.1180000E+00
       11   -1    0    0    0    0  0.00000000000E+00  0.00000000000E+00  0.54999999763E+01  0.55000000000E+01  0.51109989000E-03 0.  1.
     -623   -1    0    0    0    0  0.00000000000E+00  0.00000000000E+00  0.93234578044E-11  0.17124000000E+03  0.17124000000E+03 0. -1.
       11    1    1    2    0    0 -0.57395285075E-02  0.87663688201E-03  0.70719096648E+00  0.70721498497E+00  0.51109989000E-03 0.  1.
     -623    1    1    2    0    0  0.71642012671E-01 -0.26753872593E-01  0.56436123617E-03  0.17124001708E+03  0.17124000000E+03 0. -1.
     -611    1    1    2    0    0 -0.37184043772E-01  0.14445482639E-01  0.26546596618E+01  0.26549594171E+01  0.51109989000E-03 0.  1.
      611    1    1    2    0    0 -0.28718440438E-01  0.11431753090E-01  0.21375849903E+01  0.21378085241E+01  0.51109989000E-03 0.  1.
</event>
<event>
 6   3  0.2312675E+03  0.9118800E+02  0.7818608E-02  0.1180000E+00
       11   -1    0    0    0    0  0.00000000000E+00  0.00000000000E+00  0.54999999763E+01  0.55000000000E+01  0.51109989000E-03 0. -1.
     -623   -1    0    0    0    0  0.00000000000E+00  0.00000000000E+00  0.93234578044E-11  0.17124000000E+03  0.17124000000E+03 0. -1.
       11    1    1    2    0    0 -0.72681933531E-01  0.53765860956E-01  0.86694124757E+00  0.87164259833E+00  0.51109989000E-03 0. -1.
     -623    1    1    2    0    0  0.11484041806E-01 -0.60971715919E-01  0.51231008608E-02  0.17124001132E+03  0.17124000000E+03 0. -1.
     -611    1    1    2    0    0  0.48063457278E-01  0.56852964013E-02  0.36093064592E+01  0.36096309779E+01  0.51109989000E-03 0. -1.
      611    1    1    2    0    0  0.13134434467E-01  0.15205585641E-02  0.10186291701E+01  0.10187151088E+01  0.51109989000E-03 0. -1.
</event>
<event>
 6   3  0.2312675E+03  0.9118800E+02  0.7818608E-02  0.1180000E+00
       11   -1    0    0    0    0  0.00000000000E+00  0.00000000000E+00  0.54999999763E+01  0.55000000000E+01  0.51109989000E-03 0. -1.
     -623   -1    0    0    0    0  0.00000000000E+00  0.00000000000E+00  0.93234578044E-11  0.17124000000E+03  0.17124000000E+03 0.  1.
       11    1    1    2    0    0 -0.13256012160E+00  0.46596484374E-01  0.98400856675E+00  0.99399021065E+00  0.51109989000E-03 0. -1.
     -623    1    1    2    0    0  0.72634832341E-02 -0.78822424505E-02  0.11902090873E-01  0.17124000075E+03  0.17124000000E+03 0.  1.
     -611    1    1    2    0    0  0.12985990831E-01 -0.21749090789E-02  0.53959463613E+00  0.53975549905E+00  0.51109989000E-03 0.  1.
      611    1    1    2    0    0  0.11231064754E+00 -0.36539332846E-01  0.39644946826E+01  0.39662535413E+01  0.51109989000E-03 0. -1.
</event>
<event>
 6   3  0.2312675E+03  0.9118800E+02  0.7818608E-02  0.1180000E+00
       11   -1    0    0    0    0  0.00000000000E+00  0.00000000000E+00  0.54999999763E+01  0.55000000000E+01  0.51109989000E-03 0.  1.
     -623   -1    0    0    0    0  0.00000000000E+00  0.00000000000E+00  0.93234578044E-11  0.17124000000E+03  0.17124000000E+03 0. -1.
       11    1    1    2    0    0  0.18058785527E-01  0.21877226230E-01  0.74365801967E+00  0.74419906221E+00  0.51109989000E-03 0.  1.
     -623    1    1    2    0    0  0.45729431953E-01 -0.51023576680E-01  0.10735173649E-02  0.17124001371E+03  0.17124000000E+03 0. -1.
     -611    1    1    2    0    0 -0.11836544106E-01  0.38411858291E-02  0.84004654071E+00  0.84013886368E+00  0.51109989000E-03 0. -1.
      611    1    1    2    0    0 -0.51951673374E-01  0.25305164620E-01  0.39152218985E+01  0.39156483631E+01  0.51109989000E-03 0.  1.
</event>
<event>
 6   3  0.2312675E+03  0.9118800E+02  0.7818608E-02  0.1180000E+00
       11   -1    0    0    0    0  0.00000000000E+00  0.00000000000E+00  0.54999999763E+01  0.55000000000E+01  0.51109989000E-03 0.  1.
     -623   -1    0    0    0    0  0.00000000000E+00  0.00000000000E+00  0.93234578044E-11  0.17124000000E+03  0.17124000000E+03 0.  1.
       11    1    1    2    0    0 -0.74412613955E-01  0.40716064855E-02  0.50210754895E+00  0.50760818259E+00  0.51109989000E-03 0.  1.
     -623    1    1    2    0    0 -0.17147258476E-01  0.17472692533E-01  0.64299571186E-02  0.17124000187E+03  0.17124000000E+03 0.  1.
     -611    1    1    2    0    0  0.26308121713E-01 -0.36953242999E-03  0.10453412736E+01  0.10456724598E+01  0.51109989000E-03 0. -1.
      611    1    1    2    0    0  0.65251750718E-01 -0.21174766589E-01  0.39461211966E+01  0.39467174869E+01  0.51109989000E-03 0.  1.
</event>
<event>
 6   3  0.2312675E+03  0.9118800E+02  0.7818608E-02  0.1180000E+00
       11   -1    0    0    0    0  0.00000000000E+00  0.00000000000E+00  0.54999999763E+01  0.55000000000E+01  0.51109989000E-03 0. -1.
     -623   -1    0    0    0    0  0.00000000000E+00  0.00000000000E+00  0.93234578044E-11  0.17124000000E+03  0.17124000000E+03 0.  1.
       11    1    1    2    0    0 -0.50020988868E-01  0.59126843954E-01  0.18241561549E+00  0.19817618676E+00  0.51109989000E-03 0. -1.
     -623    1    1    2    0    0 -0.43315780583E-01 -0.34826331969E-01  0.16647882496E-01  0.17124000983E+03  0.17124000000E+03 0.  1.
     -611    1    1    2    0    0  0.38198503146E-01 -0.97057935107E-02  0.21834020347E+01  0.21837577783E+01  0.51109989000E-03 0.  1.
      611    1    1    2    0    0  0.55138266262E-01 -0.14594718464E-01  0.31175344411E+01  0.31180562033E+01  0.51109989000E-03 0. -1.
</event>
<event>
 6   3  0.2312675E+03  0.9118800E+02  0.7818608E-02  0.1180000E+00
       11   -1    0    0    0    0  0.00000000000E+00  0.00000000000E+00  0.54999999763E+01  0.55000000000E+01  0.51109989000E-03 0.  1.
     -623   -1    0    0    0    0  0.00000000000E+00  0.00000000000E+00  0.93234578044E-11  0.17124000000E+03  0.17124000000E+03 0.  1.
       11    1    1    2    0    0  0.20718251141E-01 -0.29827661942E-01  0.21057449255E+00  0.21368391021E+00  0.51109989000E-03 0.  1.
     -623    1    1    2    0    0 -0.42980649065E-02 -0.47141714438E-02  0.38388093215E-02  0.17124000016E+03  0.17124000000E+03 0.  1.
     -611    1    1    2    0    0  0.26320382559E-01  0.34092288554E-01  0.20935744969E+01  0.20940175458E+01  0.51109989000E-03 0. -1.
      611    1    1    2    0    0 -0.42740568794E-01  0.44954483223E-03  0.31920121774E+01  0.31922983821E+01  0.51109989000E-03 0.  1.
</event>
<event>
 6   3  0.2312675E+03  0.9118800E+02  0.7818608E-02  0.1180000E+00
       11   -1    0    0    0    0  0.00000000000E+00  0.00000000000E+00  0.54999999763E+01  0.55000000000E+01  0.51109989000E-03 0.  1.
     -623   -1    0    0    0    0  0.00000000000E+00  0.00000000000E+00  0.93234578044E-11  0.17124000000E+03  0.17124000000E+03 0. -1.
       11    1    1    2    0    0  0.17370753637E-01  0.71010771475E-02  0.82746913822E+00  0.82768206716E+00  0.51109989000E-03 0.  1.
     -623    1    1    2    0    0 -0.92716411749E-01 -0.40743198261E-01  0.97175684725E-03  0.17124002995E+03  0.17124000000E+03 0. -1.
     -611    1    1    2    0    0  0.60768680571E-01  0.27175206850E-01  0.37805577068E+01  0.37811437635E+01  0.51109989000E-03 0.  1.
      611    1    1    2    0    0  0.14576977757E-01  0.64669143585E-02  0.89100138748E+00  0.89114423242E+00  0.51109989000E-03 0.  1.
</event>
<event>
 6   3  0.2312675E+03  0.9118800E+02  0.7818608E-02  0.1180000E+00
       11   -1    0    0    0    0  0.00000000000E+00  0.00000000000E+00  0.54999999763E+01  0.55000000000E+01  0.51109989000E-03 0. -1.
     -623   -1    0    0    0    0  0.00000000000E+00  0.00000000000E+00  0.93234578044E-11  0.17124000000E+03  0.17124000000E+03 0.  1.
       11    1    1    2    0    0  0.29173666918E-01  0.21124585651E-02  0.10207670772E+01  0.10211861987E+01  0.51109989000E-03 0. -1.
     -623    1    1    2    0    0  0.21796967234E-01 -0.26838646478E-02  0.71816833302E-03  0.17124000141E+03  0.17124000000E+03 0.  1.
     -611    1    1    2    0    0 -0.33610251256E-01 -0.34542494819E-02  0.29846198708E+01  0.29848111524E+01  0.51109989000E-03 0. -1.
      611    1    1    2    0    0 -0.17360382895E-01  0.40256555645E-02  0.14938948598E+01  0.14940012390E+01  0.51109989000E-03 0.  1.
</event>
<event>
 6   3  0.2312675E+03  0.9118800E+02  0.7818608E-02  0.1180000E+00
       11   -1    0    0    0    0  0.00000000000E+00  0.00000000000E+00  0.54999999763E+01  0.55000000000E+01  0.51109989000E-03 0. -1.
     -623   -1    0    0    0    0  0.00000000000E+00  0.00000000000E+00  0.93234578044E-11  0.17124000000E+03  0.17124000000E+03 0. -1.
       11    1    1    2    0    0  0.28996205351E-01  0.23649860749E-01  0.45553082716E-01  0.58952865971E-01  0.51109989000E-03 0. -1.
     -623    1    1    2    0    0  0.29157988899E-01 -0.22345789105E-02  0.13755876246E-01  0.17124000305E+03  0.17124000000E+03 0. -1.
     -611    1    1    2    0    0 -0.13902221738E-01 -0.51373005397E-02  0.12961506873E+01  0.12962355223E+01  0.51109989000E-03 0. -1.
      611    1    1    2    0    0 -0.44251972557E-01 -0.16277981315E-01  0.41445403341E+01  0.41448085664E+01  0.51109989000E-03 0. -1.
</event>
<event>
 6   3  0.2312675E+03  0.9118800E+02  0.7818608E-02  0.1180000E+00
       11   -1    0    0    0    0  0.00000000000E+00  0.00000000000E+00  0.54999999763E+01  0.55000000000E+01  0.51109989000E-03 0.  1.
     -623   -1    0    0    0    0  0.00000000000E+00  0.00000000000E+00  0.93234578044E-11  0.17124000000E+03  0.17124000000E+03 0. -1.
       11    1    1    2    0    0  0.49105041426E-01 -0.32475597691E-02  0.63561925000E+00  0.63752172036E+00  0.51109989000E-03 0.  1.
     -623    1    1    2    0    0  0.15624630204E-02  0.83784067908E-02  0.21931870544E-02  0.17124000023E+03  0.17124000000E+03 0. -1.
     -611    1    1    2    0    0 -0.27304979924E-01 -0.10306375435E-01  0.25928338421E+01  0.25929981444E+01  0.51109989000E-03 0.  1.
      611    1    1    2    0    0 -0.23362524521E-01  0.51755284135E-02  0.22693536971E+01  0.22694799090E+01  0.51109989000E-03 0. -1.
</event>
<event>
 6   3  0.2312675E+03  0.9118800E+02  0.7818608E-02  0.1180000E+00
       11   -1    0    0    0    0  0.00000000000E+00  0.00000000000E+00  0.54999999763E+01  0.55000000000E+01  0.51109989000E-03 0.  1.
     -623   -1    0    0    0    0  0.00000000000E+00  0.00000000000E+00  0.93234578044E-11  0.17124000000E+03  0.17124000000E+03 0.  1.
       11    1    1    2    0    0  0.43238868084E-02 -0.52069004135E-03  0.11874380506E-02  0.45429448018E-02  0.51109989000E-03 0.  1.
     -623    1    1    2    0    0 -0.48280784610E-02  0.41718189863E-02  0.41919118177E-02  0.17124000017E+03  0.17124000000E+03 0.  1.
     -611    1    1    2    0    0 -0.44645749907E-01  0.60630957130E-02  0.35594659339E+01  0.35597511149E+01  0.51109989000E-03 0.  1.
      611    1    1    2    0    0  0.45149941560E-01 -0.97142246580E-02  0.19351546926E+01  0.19357057702E+01  0.51109989000E-03 0. -1.
</event>
<event>
 6   3  0.2312675E+03  0.9118800E+02  0.7818608E-02  0.1180000E+00
       11   -1    0    0    0    0  0.00000000000E+00  0.00000000000E+00  0.54999999763E+01  0.55000000000E+01  0.51109989000E-03 0. -1.
     -623   -1    0    0    0    0  0.00000000000E+00  0.00000000000E+00  0.93234578044E-11  0.17124000000E+03  0.17124000000E+03 0. -1.
       11    1    1    2    0    0  0.33035143672E-01  0.72319680947E-02  0.86335105206E+00  0.86401326518E+00  0.51109989000E-03 0. -1.
     -623    1    1    2    0    0  0.13730937159E-01 -0.87864344319E-02  0.89965897629E-03  0.17124000078E+03  0.17124000000E+03 0. -1.
     -611    1    1    2    0    0 -0.14556233154E-01 -0.42318593515E-03  0.14432090487E+01  0.14432826066E+01  0.51109989000E-03 0.  1.
      611    1    1    2    0    0 -0.32209847691E-01  0.19776522730E-02  0.31925402179E+01  0.31927033514E+01  0.51109989000E-03 0. -1.
</event>
<event>
 6   3  0.2312675E+03  0.9118800E+02  0.7818608E-02  0.1180000E+00
       11   -1    0    0    0    0  0.00000000000E+00  0.00000000000E+00  0.54999999763E+01  0.55000000000E+01  0.51109989000E-03 0.  1.
     -623   -1    0    0    0    0  0.00000000000E+00  0.00000000000E+00  0.93234578044E-11  0.17124000000E+03  0.17124000000E+03 0.  1.
       11    1    1    2    0    0 -0.16524859280E-01  0.24866497665E-03  0.46035502676E-01  0.48914839653E-01  0.51109989000E-03 0.  1.
     -623    1    1    2    0    0  0.41556038539E-01 -0.27140781966E-01  0.51498857200E-02  0.17124000727E+03  0.17124000000E+03 0.  1.
     -611    1    1    2    0    0 -0.88217007231E-01  0.79888048744E-02  0.26282123249E+01  0.26297046122E+01  0.51109989000E-03 0. -1.
      611    1    1    2    0    0  0.63185827973E-01  0.18903312115E-01  0.28206022629E+01  0.28213732775E+01  0.51109989000E-03 0.  1.
</event>
<event>
 6   3  0.2312675E+03  0.9118800E+02  0.7818608E-02  0.1180000E+00
       11   -1    0    0    0    0  0.00000000000E+00  0.00000000000E+00  0.54999999763E+01  0.55000000000E+01  0.51109989000E-03 0. -1.
     -623   -1    0    0    0    0  0.00000000000E+00  0.00000000000E+00  0.93234578044E-11  0.17124000000E+03  0.17124000000E+03 0. -1.
       11    1    1    2    0    0 -0.31762802911E-02 -0.43217686632E-02  0.73340060984E-01  0.73537692438E-01  0.51109989000E-03 0. -1.
     -623    1    1    2    0    0 -0.41918469615E-02  0.31398587784E-02  0.10220360782E-02  0.17124000008E+03  0.17124000000E+03 0. -1.
     -611    1    1    2    0    0  0.41862772147E-01 -0.26896937269E-01  0.26341706802E+01  0.26346406530E+01  0.51109989000E-03 0. -1.
      611    1    1    2    0    0 -0.34494644895E-01  0.28078847154E-01  0.27914671989E+01  0.27918215712E+01  0.51109989000E-03 0.  1.
</event>
<event>
 6   3  0.2312675E+03  0.9118800E+02  0.7818608E-02  0.1180000E+00
       11   -1    0    0    0    0  0.00000000000E+00  0.00000000000E+00  0.54999999763E+01  0.55000000000E+01  0.51109989000E-03 0.  1.
     -623   -1    0    0    0    0  0.00000000000E+00  0.00000000000E+00  0.93234578044E-11  0.17124000000E+03  0.17124000000E+03 0.  1.
       11    1    1    2    0    0  0.20584256693E-01 -0.10053661032E-01  0.85056584200E-01  0.88088997398E-01  0.51109989000E-03 0.  1.
     -623    1    1    2    0    0  0.14660061541E-01  0.64143561713E-02  0.81730489337E-02  0.17124000094E+03  0.17124000000E+03 0.  1.
     -611    1    1    2    0    0 -0.11078828073E+00 -0.28694593374E-01  0.15321167726E+01  0.15363852020E+01  0.51109989000E-03 0. -1.
      611    1    1    2    0    0  0.75543962500E-01  0.32333898235E-01  0.38746535706E+01  0.38755248579E+01  0.51109989000E-03 0.  1.
</event>
<event>
 6   3  0.2312675E+03  0.9118800E+02  0.7818608E-02  0.1180000E+00
       11   -1    0    0    0    0  0.00000000000E+00  0.00000000000E+00  0.54999999763E+01  0.55000000000E+01  0.51109989000E-03 0.  1.
     -623   -1    0    0    0    0  0.00000000000E+00  0.00000000000E+00  0.93234578044E-11  0.17124000000E+03  0.17124000000E+03 0.  1.
       11    1    1    2    0    0 -0.24714058023E-01  0.32949183059E-01  0.25515476882E+00  0.25845821829E+00  0.51109989000E-03 0.  1.
     -623    1    1    2    0    0 -0.46383795468E-02  0.34337590274E-01  0.40592267705E-02  0.17124000355E+03  0.17124000000E+03 0.  1.
     -611    1    1    2    0    0  0.42812794192E-01 -0.57987574526E-01  0.40771120562E+01  0.40777491922E+01  0.51109989000E-03 0.  1.
      611    1    1    2    0    0 -0.13460356622E-01 -0.92991988069E-02  0.11636739244E+01  0.11637890358E+01  0.51109989000E-03 0. -1.
</event>
<event>
 6   3  0.2312675E+03  0.9118800E+02  0.7818608E-02  0.1180000E+00
       11   -1    0    0    0    0  0.00000000000E+00  0.00000000000E+00  0.54999999763E+01  0.55000000000E+01  0.51109989000E-03 0.  1.
     -623   -1    0    0    0    0  0.00000000000E+00  0.00000000000E+00  0.93234578044E-11  0.17124000000E+03  0.17124000000E+03 0. -1.
       11    1    1    2    0    0  0.12037572701E-01  0.98660659515E-02  0.10807700224E+01  0.10808822068E+01  0.51109989000E-03 0.  1.
     -623    1    1    2    0    0 -0.67662567440E-01 -0.25850532443E-01  0.50822311711E-03  0.17124001532E+03  0.17124000000E+03 0. -1.
     -611    1    1    2    0    0  0.13550160971E-01  0.42323835940E-02  0.96897215227E+00  0.96907626791E+00  0.51109989000E-03 0. -1.
      611    1    1    2    0    0  0.42074833662E-01  0.11752082857E-01  0.34497495698E+01  0.34500261968E+01  0.51109989000E-03 0.  1.
</event>
<event>
 6   3  0.2312675E+03  0.9118800E+02  0.7818608E-02  0.1180000E+00
       11   -1    0    0    0    0  0.00000000000E+00  0.00000000000E+00  0.54999999763E+01  0.55000000000E+01  0.51109989000E-03 0.  1.
     -623   -1    0    0    0    0  0.00000000000E+00  0.00000000000E+00  0.93234578044E-11  0.17124000000E+03  0.17124000000E+03 0.  1.
       11    1    1    2    0    0  0.39421650599E-01 -0.34817745511E-01  0.49460664324E+00  0.49739555155E+00  0.51109989000E-03 0.  1.
     -623    1    1    2    0    0 -0.33472508735E-01 -0.20215247984E-01  0.50396206060E-02  0.17124000454E+03  0.17124000000E+03 0.  1.
     -611    1    1    2    0    0  0.46230421253E-01  0.58175605071E-01  0.14854833385E+01  0.14873408026E+01  0.51109989000E-03 0. -1.
      611    1    1    2    0    0 -0.52179563116E-01 -0.31426115766E-02  0.35148703739E+01  0.35152591070E+01  0.51109989000E-03 0.  1.
</event>
<event>
 6   3  0.2312675E+03  0.9118800E+02  0.7818608E-02  0.1180000E+00
       11   -1    0    0    0    0  0.00000000000E+00  0.00000000000E+00  0.54999999763E+01  0.55000000000E+01  0.51109989000E-03 0. -1.
     -623   -1    0    0    0    0  0.00000000000E+00  0.00000000000E+00  0.93234578044E-11  0.17124000000E+03  0.17124000000E+03 0. -1.
       11    1    1    2    0    0  0.10272751326E-01 -0.48638269730E-02  0.29922926063E+00  0.29944548398E+00  0.51109989000E-03 0. -1.
     -623    1    1    2    0    0  0.53296983658E-03  0.33346428534E-02  0.63195920601E-03  0.17124000003E+03  0.17124000000E+03 0. -1.
     -611    1    1    2    0    0 -0.38223309236E-01  0.24660444094E-02  0.29821906798E+01  0.29824366908E+01  0.51109989000E-03 0. -1.
      611    1    1    2    0    0  0.27417588073E-01 -0.93686028966E-03  0.22179480765E+01  0.22181177907E+01  0.51109989000E-03 0.  1.
</event>
<event>
 6   3  0.2312675E+03  0.9118800E+02  0.7818608E-02  0.1180000E+00
       11   -1    0    0    0    0  0.00000000000E+00  0.00000000000E+00  0.54999999763E+01  0.55000000000E+01  0.51109989000E-03 0. -1.
     -623   -1    0    0    0    0  0.00000000000E+00  0.00000000000E+00  0.93234578044E-11  0.17124000000E+03  0.17124000000E+03 0. -1.
       11    1    1    2    0    0  0.17134156724E-01 -0.74106186475E-02  0.10104406179E+01  0.10106131803E+01  0.51109989000E-03 0. -1.
     -623    1    1    2    0    0 -0.84123211848E-01  0.35942873774E-01  0.78771548441E-03  0.17124002444E+03  0.17124000000E+03 0. -1.
     -611    1    1    2    0    0  0.40665683992E-01 -0.17855318123E-01  0.27389446533E+01  0.27393047632E+01  0.51109989000E-03 0. -1.
      611    1    1    2    0    0  0.26323370255E-01 -0.10676936629E-01  0.17498269324E+01  0.17500575623E+01  0.51109989000E-03 0. -1.
</event>
<event>
 6   3  0.2312675E+03  0.9118800E+02  0.7818608E-02  0.1180000E+00
       11   -1    0    0    0    0  0.00000000000E+00  0.00000000000E+00  0.54999999763E+01  0.55000000000E+01  0.51109989000E-03 0.  1.
     -623   -1    0    0    0    0  0.00000000000E+00  0.00000000000E+00  0.93234578044E-11  0.17124000000E+03  0.17124000000E+03 0.  1.
       11    1    1    2    0    0  0.34882050116E-01  0.32398688701E-01 -0.33505212541E-01  0.58217634273E-01  0.51109989000E-03 0.  1.
     -623    1    1    2    0    0  0.25745628126E-01 -0.17447348175E-01  0.92108817992E-01  0.17124002760E+03  0.17124000000E+03 0.  1.
     -611    1    1    2    0    0 -0.28537087853E-01 -0.68096807987E-02  0.25567765494E+01  0.25569449196E+01  0.51109989000E-03 0.  1.
      611    1    1    2    0    0 -0.32090590253E-01 -0.81416596933E-02  0.28846198091E+01  0.28848098373E+01  0.51109989000E-03 0.  1.
</event>
<event>
 6   3  0.2312675E+03  0.9118800E+02  0.7818608E-02  0.1180000E+00
       11   -1    0    0    0    0  0.00000000000E+00  0.00000000000E+00  0.54999999763E+01  0.55000000000E+01  0.51109989000E-03 0. -1.
     -623   -1    0    0    0    0  0.00000000000E+00  0.00000000000E+00  0.93234578044E-11  0.17124000000E+03  0.17124000000E+03 0.  1.
       11    1    1    2    0    0 -0.22151448396E-01  0.15544550139E-01  0.10201273036E+01  0.10204863039E+01  0.51109989000E-03 0. -1.
     -623    1    1    2    0    0  0.70599856396E-01 -0.30734032530E-01  0.66512114054E-03  0.17124001731E+03  0.17124000000E+03 0.  1.
     -611    1    1    2    0    0 -0.31324026147E-01  0.83759341305E-02  0.28352637549E+01  0.28354492011E+01  0.51109989000E-03 0. -1.
      611    1    1    2    0    0 -0.17124381849E-01  0.68135482589E-02  0.16439437962E+01  0.16440471816E+01  0.51109989000E-03 0.  1.
</event>
<event>
 6   3  0.2312675E+03  0.9118800E+02  0.7818608E-02  0.1180000E+00
       11   -1    0    0    0    0  0.00000000000E+00  0.00000000000E+00  0.54999999763E+01  0.55000000000E+01  0.51109989000E-03 0.  1.
     -623   -1    0    0    0    0  0.00000000000E+00  0.00000000000E+00  0.93234578044E-11  0.17124000000E+03  0.17124000000E+03 0. -1.
       11    1    1    2    0    0  0.76193510734E-01 -0.49906715580E-01  0.81915947958E+00  0.82420788977E+00  0.51109989000E-03 0.  1.
     -623    1    1    2    0    0 -0.69133801423E-02 -0.13753640122E-02  0.58437247376E-02  0.17124000024E+03  0.17124000000E+03 0. -1.
     -611    1    1    2    0    0 -0.11540781479E-01  0.94007505754E-02  0.80634072518E+00  0.80647826385E+00  0.51109989000E-03 0. -1.
      611    1    1    2    0    0 -0.57739349130E-01  0.41881329029E-01  0.38686560479E+01  0.38693136028E+01  0.51109989000E-03 0.  1.
</event>
<event>
 6   3  0.2312675E+03  0.9118800E+02  0.7818608E-02  0.1180000E+00
       11   -1    0    0    0    0  0.00000000000E+00  0.00000000000E+00  0.54999999763E+01  0.55000000000E+01  0.51109989000E-03 0. -1.
     -623   -1    0    0    0    0  0.00000000000E+00  0.00000000000E+00  0.93234578044E-11  0.17124000000E+03  0.17124000000E+03 0. -1.
       11    1    1    2    0    0 -0.62284071600E-01 -0.19785846469E-02  0.52052043357E+00  0.52423754478E+00  0.51109989000E-03 0. -1.
     -623    1    1    2    0    0  0.34338655648E-02  0.10071495239E-01  0.40741943262E-02  0.17124000038E+03  0.17124000000E+03 0. -1.
     -611    1    1    2    0    0  0.19437769859E-01 -0.21226965612E-02  0.18108825171E+01  0.18109881514E+01  0.51109989000E-03 0. -1.
      611    1    1    2    0    0  0.39412436185E-01 -0.59702140322E-02  0.31645228320E+01  0.31647739255E+01  0.51109989000E-03 0.  1.
</event>
<event>
 6   3  0.2312675E+03  0.9118800E+02  0.7818608E-02  0.1180000E+00
       11   -1    0    0    0    0  0.00000000000E+00  0.00000000000E+00  0.54999999763E+01  0.55000000000E+01  0.51109989000E-03 0. -1.
     -623   -1    0    0    0    0  0.00000000000E+00  0.00000000000E+00  0.93234578044E-11  0.17124000000E+03  0.17124000000E+03 0. -1.
       11    1    1    2    0    0  0.55697281963E-02  0.11964830793E-01  0.66118231906E-02  0.14770121093E-01  0.51109989000E-03 0. -1.
     -623    1    1    2    0    0  0.14842356745E-01 -0.63924831714E-02  0.10346092304E-01  0.17124000108E+03  0.17124000000E+03 0. -1.
     -611    1    1    2    0    0  0.47328770669E-01 -0.90501877955E-02  0.67898810222E+00  0.68069598399E+00  0.51109989000E-03 0.  1.
      611    1    1    2    0    0 -0.67740855610E-01  0.34778401738E-02  0.48040539585E+01  0.48045328198E+01  0.51109989000E-03 0. -1.
</event>
<event>
 6   3  0.2312675E+03  0.9118800E+02  0.7818608E-02  0.1180000E+00
       11   -1    0    0    0    0  0.00000000000E+00  0.00000000000E+00  0.54999999763E+01  0.55000000000E+01  0.51109989000E-03 0.  1.
     -623   -1    0    0    0    0  0.00000000000E+00  0.00000000000E+00  0.93234578044E-11  0.17124000000E+03  0.17124000000E+03 0. -1.
       11    1    1    2    0    0  0.22410263601E-01  0.31803102692E-01  0.62488819379E+00  0.62609837343E+00  0.51109989000E-03 0.  1.
     -623    1    1    2    0    0 -0.99072625240E-02 -0.31696112351E-02  0.20516570786E-02  0.17124000033E+03  0.17124000000E+03 0. -1.
     -611    1    1    2    0    0  0.26267283158E-01  0.16500984055E-01  0.16205644253E+01  0.16208613668E+01  0.51109989000E-03 0.  1.
      611    1    1    2    0    0 -0.38770284235E-01 -0.45134475511E-01  0.32524957001E+01  0.32530399315E+01  0.51109989000E-03 0. -1.
</event>
<event>
 6   3  0.2312675E+03  0.9118800E+02  0.7818608E-02  0.1180000E+00
       11   -1    0    0    0    0  0.00000000000E+00  0.00000000000E+00  0.54999999763E+01  0.55000000000E+01  0.51109989000E-03 0. -1.
     -623   -1    0    0    0    0  0.00000000000E+00  0.00000000000E+00  0.93234578044E-11  0.17124000000E+03  0.17124000000E+03 0. -1.
       11    1    1    2    0    0 -0.85799716702E-02 -0.14671433775E-01  0.10044401812E+01  0.10045840959E+01  0.51109989000E-03 0. -1.
     -623    1    1    2    0    0 -0.97430364691E-02  0.33553773711E-02  0.22914503484E-02  0.17124000033E+03  0.17124000000E+03 0. -1.
     -611    1    1    2    0    0 -0.39953418946E-01 -0.38151847199E-01  0.26294164051E+01  0.26299967170E+01  0.51109989000E-03 0.  1.
      611    1    1    2    0    0  0.58276427085E-01  0.49467903603E-01  0.18638519396E+01  0.18654188617E+01  0.51109989000E-03 0. -1.
</event>
<event>
 6   3  0.2312675E+03  0.9118800E+02  0.7818608E-02  0.1180000E+00
       11   -1    0    0    0    0  0.00000000000E+00  0.00000000000E+00  0.54999999763E+01  0.55000000000E+01  0.51109989000E-03 0.  1.
     -623   -1    0    0    0    0  0.00000000000E+00  0.00000000000E+00  0.93234578044E-11  0.17124000000E+03  0.17124000000E+03 0.  1.
       11    1    1    2    0    0  0.13278983020E-01  0.95229337184E-03  0.57303225038E+00  0.57318710684E+00  0.51109989000E-03 0.  1.
     -623    1    1    2    0    0 -0.78694399822E-01 -0.21025525006E-01  0.64992760845E-03  0.17124001937E+03  0.17124000000E+03 0.  1.
     -611    1    1    2    0    0  0.56999931666E-01  0.17421774082E-01  0.42482891885E+01  0.42487073094E+01  0.51109989000E-03 0.  1.
      611    1    1    2    0    0  0.84154851710E-02  0.26514575616E-02  0.67802861219E+00  0.67808621192E+00  0.51109989000E-03 0.  1.
</event>
<event>
 6   3  0.2312675E+03  0.9118800E+02  0.7818608E-02  0.1180000E+00
       11   -1    0    0    0    0  0.00000000000E+00  0.00000000000E+00  0.54999999763E+01  0.55000000000E+01  0.51109989000E-03 0. -1.
     -623   -1    0    0    0    0  0.00000000000E+00  0.00000000000E+00  0.93234578044E-11  0.17124000000E+03  0.17124000000E+03 0.  1.
       11    1    1    2    0    0 -0.58756420279E-01 -0.61681148070E-01  0.48921318773E+00  0.49657495428E+00  0.51109989000E-03 0. -1.
     -623    1    1    2    0    0 -0.17523268070E-02 -0.98264442403E-02  0.84559661476E-02  0.17124000050E+03  0.17124000000E+03 0.  1.
     -611    1    1    2    0    0  0.44309934148E-01  0.75239613378E-01  0.39735616762E+01  0.39745209806E+01  0.51109989000E-03 0. -1.
      611    1    1    2    0    0  0.16198812939E-01 -0.37320210673E-02  0.10287691462E+01  0.10289035654E+01  0.51109989000E-03 0.  1.
</event>
<event>
 6   3  0.2312675E+03  0.9118800E+02  0.7818608E-02  0.1180000E+00
       11   -1    0    0    0    0  0.00000000000E+00  0.00000000000E+00  0.54999999763E+01  0.55000000000E+01  0.51109989000E-03 0. -1.
     -623   -1    0    0    0    0  0.00000000000E+00  0.00000000000E+00  0.93234578044E-11  0.17124000000E+03  0.17124000000E+03 0. -1.
       11    1    1    2    0    0 -0.24300791489E-01 -0.24457581832E-01  0.68341607145E+00  0.68428538616E+00  0.51109989000E-03 0. -1.
     -623    1    1    2    0    0 -0.44891889147E-01  0.42377048243E-01  0.14187574641E-02  0.17124001113E+03  0.17124000000E+03 0. -1.
     -611    1    1    2    0    0  0.61281987456E-01 -0.13522460100E-01  0.43120745097E+01  0.43125311799E+01  0.51109989000E-03 0. -1.
      611    1    1    2    0    0  0.79106931804E-02 -0.43970063113E-02  0.50309063759E+00  0.50317230010E+00  0.51109989000E-03 0.  1.
</event>
<event>
 6   3  0.2312675E+03  0.9118800E+02  0.7818608E-02  0.1180000E+00
       11   -1    0    0    0    0  0.00000000000E+00  0.00000000000E+00  0.54999999763E+01  0.55000000000E+01  0.51109989000E-03 0.  1.
     -623   -1    0    0    0    0  0.00000000000E+00  0.00000000000E+00  0.93234578044E-11  0.17124000000E+03  0.17124000000E+03 0. -1.
       11    1    1    2    0    0  0.81332606000E-01  0.28452790168E-01  0.37165414138E+00  0.38151227515E+00  0.51109989000E-03 0.  1.
     -623    1    1    2    0    0  0.47924752530E-02 -0.22607494946E-02  0.10650470530E-01  0.17124000041E+03  0.17124000000E+03 0. -1.
     -611    1    1    2    0    0 -0.74132510075E-01 -0.22414580378E-01  0.44182853663E+01  0.44189641186E+01  0.51109989000E-03 0.  1.
      611    1    1    2    0    0 -0.11992571132E-01 -0.37774602821E-02  0.69940999535E+00  0.69952319031E+00  0.51109989000E-03 0.  1.
</event>
<event>
 6   3  0.2312675E+03  0.9118800E+02  0.7818608E-02  0.1180000E+00
       11   -1    0    0    0    0  0.00000000000E+00  0.00000000000E+00  0.54999999763E+01  0.55000000000E+01  0.51109989000E-03 0.  1.
     -623   -1    0    0    0    0  0.00000000000E+00  0.00000000000E+00  0.93234578044E-11  0.17124000000E+03  0.17124000000E+03 0.  1.
       11    1    1    2    0    0  0.54471782902E-01 -0.22435471491E-01  0.91147144396E+00  0.91337340660E+00  0.51109989000E-03 0.  1.
     -623    1    1    2    0    0  0.27439403812E-03 -0.45971909148E-02  0.23086604673E-02  0.17124000008E+03  0.17124000000E+03 0.  1.
     -611    1    1    2    0    0 -0.41538007251E-01  0.20910553550E-01  0.34869400591E+01  0.34872501909E+01  0.51109989000E-03 0.  1.
      611    1    1    2    0    0 -0.13208169646E-01  0.61221088337E-02  0.10992798091E+01  0.10993763213E+01  0.51109989000E-03 0. -1.
</event>
<event>
 6   3  0.2312675E+03  0.9118800E+02  0.7818608E-02  0.1180000E+00
       11   -1    0    0    0    0  0.00000000000E+00  0.00000000000E+00  0.54999999763E+01  0.55000000000E+01  0.51109989000E-03 0. -1.
     -623   -1    0    0    0    0  0.00000000000E+00  0.00000000000E+00  0.93234578044E-11  0.17124000000E+03  0.17124000000E+03 0. -1.
       11    1    1    2    0    0 -0.72372627583E-02  0.52076022066E-02  0.19997440412E+00  0.20017372609E+00  0.51109989000E-03 0. -1.
     -623    1    1    2    0    0 -0.21618692927E-02 -0.65177688283E-02  0.12846572117E-02  0.17124000014E+03  0.17124000000E+03 0. -1.
     -611    1    1    2    0    0 -0.38893540235E-01 -0.15812858612E-01  0.11457492392E+01  0.11465183532E+01  0.51109989000E-03 0.  1.
      611    1    1    2    0    0  0.48292672286E-01  0.17123025233E-01  0.41529916757E+01  0.41533077781E+01  0.51109989000E-03 0. -1.
</event>
<event>
 6   3  0.2312675E+03  0.9118800E+02  0.7818608E-02  0.1180000E+00
       11   -1    0    0    0    0  0.00000000000E+00  0.00000000000E+00  0.54999999763E+01  0.55000000000E+01  0.51109989000E-03 0.  1.
     -623   -1    0    0    0    0  0.00000000000E+00  0.00000000000E+00  0.93234578044E-11  0.17124000000E+03  0.17124000000E+03 0.  1.
       11    1    1    2    0    0 -0.67698138387E-01  0.20270365870E-01  0.30407831378E+00  0.31218233103E+00  0.51109989000E-03 0.  1.
     -623    1    1    2    0    0  0.67927029578E-02 -0.72261188048E-02  0.84786196151E-02  0.17124000050E+03  0.17124000000E+03 0.  1.
     -611    1    1    2    0    0  0.25260557475E-01 -0.53650427993E-02  0.21914933748E+01  0.21916455809E+01  0.51109989000E-03 0. -1.
      611    1    1    2    0    0  0.35644877964E-01 -0.76792042683E-02  0.29959496689E+01  0.29961715918E+01  0.51109989000E-03 0.  1.
</event>
<event>
 6   3  0.2312675E+03  0.9118800E+02  0.7818608E-02  0.1180000E+00
       11   -1    0    0    0    0  0.00000000000E+00  0.00000000000E+00  0.54999999763E+01  0.55000000000E+01  0.51109989000E-03 0. -1.
     -623   -1    0    0    0    0  0.00000000000E+00  0.00000000000E+00  0.93234578044E-11  0.17124000000E+03  0.17124000000E+03 0.  1.
       11    1    1    2    0    0 -0.11531670715E+00  0.10467946165E+00  0.97528288127E+00  0.98763996089E+00  0.51109989000E-03 0. -1.
     -623    1    1    2    0    0  0.18506032935E-01 -0.42238513117E-01  0.13926844451E-01  0.17124000678E+03  0.17124000000E+03 0.  1.
     -611    1    1    2    0    0  0.16565968533E-01 -0.25372216041E-01  0.10917151181E+01  0.10921356789E+01  0.51109989000E-03 0. -1.
      611    1    1    2    0    0  0.80244705681E-01 -0.37068732494E-01  0.34190751324E+01  0.34202175846E+01  0.51109989000E-03 0.  1.
</event>
<event>
 6   3  0.2312675E+03  0.9118800E+02  0.7818608E-02  0.1180000E+00
       11   -1    0    0    0    0  0.00000000000E+00  0.00000000000E+00  0.54999999763E+01  0.55000000000E+01  0.51109989000E-03 0.  1.
     -623   -1    0    0    0    0  0.00000000000E+00  0.00000000000E+00  0.93234578044E-11  0.17124000000E+03  0.17124000000E+03 0. -1.
       11    1    1    2    0    0 -0.11376921700E-02 -0.13981710138E-02  0.14041297148E+00  0.14042547136E+00  0.51109989000E-03 0.  1.
     -623    1    1    2    0    0  0.59464985490E-01  0.19393841239E-01  0.37166483993E-03  0.17124001142E+03  0.17124000000E+03 0. -1.
     -611    1    1    2    0    0 -0.18447031494E-01 -0.56008965980E-02  0.16654795557E+01  0.16655912088E+01  0.51109989000E-03 0. -1.
      611    1    1    2    0    0 -0.39880261596E-01 -0.12394773550E-01  0.36937357628E+01  0.36939718749E+01  0.51109989000E-03 0.  1.
</event>
<event>
 6   3  0.2312675E+03  0.9118800E+02  0.7818608E-02  0.1180000E+00
       11   -1    0    0    0    0  0.00000000000E+00  0.00000000000E+00  0.54999999763E+01  0.55000000000E+01  0.51109989000E-03 0.  1.
     -623   -1    0    0    0    0  0.00000000000E+00  0.00000000000E+00  0.93234578044E-11  0.17124000000E+03  0.17124000000E+03 0. -1.
       11    1    1    2    0    0 -0.43479377307E-03 -0.23683727835E-04  0.15183532730E-01  0.15198371485E-01  0.51109989000E-03 0.  1.
     -623    1    1    2    0    0 -0.61468145523E-01  0.30350787539E-01  0.46230493207E-03  0.17124001372E+03  0.17124000000E+03 0. -1.
     -611    1    1    2    0    0  0.40984998807E-01 -0.19029974469E-01  0.35507918914E+01  0.35510794454E+01  0.51109989000E-03 0.  1.
      611    1    1    2    0    0  0.20917940511E-01 -0.11297129353E-01  0.19335622491E+01  0.19337084625E+01  0.51109989000E-03 0. -1.
</event>
<event>
 6   3  0.2312675E+03  0.9118800E+02  0.7818608E-02  0.1180000E+00
       11   -1    0    0    0    0  0.00000000000E+00  0.00000000000E+00  0.54999999763E+01  0.55000000000E+01  0.51109989000E-03 0.  1.
     -623   -1    0    0    0    0  0.00000000000E+00  0.00000000000E+00  0.93234578044E-11  0.17124000000E+03  0.17124000000E+03 0. -1.
       11    1    1    2    0    0  0.52422507524E-02 -0.13837608826E-02  0.15212956603E+00  0.15222700835E+00  0.51109989000E-03 0.  1.
     -623    1    1    2    0    0  0.50459719039E-01 -0.14740879037E-01  0.42048718684E-03  0.17124000807E+03  0.17124000000E+03 0. -1.
     -611    1    1    2    0    0 -0.50180724428E-01  0.14108031753E-01  0.48382804011E+01  0.48385612161E+01  0.51109989000E-03 0.  1.
      611    1    1    2    0    0 -0.55212453615E-02  0.20166081653E-02  0.50916952173E+00  0.50920370574E+00  0.51109989000E-03 0. -1.
</event>
<event>
 6   3  0.2312675E+03  0.9118800E+02  0.7818608E-02  0.1180000E+00
       11   -1    0    0    0    0  0.00000000000E+00  0.00000000000E+00  0.54999999763E+01  0.55000000000E+01  0.51109989000E-03 0. -1.
     -623   -1    0    0    0    0  0.00000000000E+00  0.00000000000E+00  0.93234578044E-11  0.17124000000E+03  0.17124000000E+03 0.  1.
       11    1    1    2    0    0 -0.38556193973E-01  0.34636929977E-02  0.94641387461E+00  0.94720539512E+00  0.51109989000E-03 0. -1.
     -623    1    1    2    0    0 -0.84679932931E-02 -0.31900845795E-01  0.11265901469E-02  0.17124000318E+03  0.17124000000E+03 0.  1.
     -611    1    1    2    0    0  0.21155120020E-01  0.12446731502E-01  0.20691392896E+01  0.20692849299E+01  0.51109989000E-03 0. -1.
      611    1    1    2    0    0  0.25869067280E-01  0.15990421315E-01  0.24833202251E+01  0.24835064936E+01  0.51109989000E-03 0. -1.
</event>
<event>
 6   3  0.2312675E+03  0.9118800E+02  0.7818608E-02  0.1180000E+00
       11   -1    0    0    0    0  0.00000000000E+00  0.00000000000E+00  0.54999999763E+01  0.55000000000E+01  0.51109989000E-03 0. -1.
     -623   -1    0    0    0    0  0.00000000000E+00  0.00000000000E+00  0.93234578044E-11  0.17124000000E+03  0.17124000000E+03 0. -1.
       11    1    1    2    0    0  0.47395930820E-01 -0.48434390373E-02  0.95541141842E+00  0.95659869999E+00  0.51109989000E-03 0. -1.
     -623    1    1    2    0    0  0.88776389827E-02 -0.13283093301E-01  0.15789935717E-02  0.17124000075E+03  0.17124000000E+03 0. -1.
     -611    1    1    2    0    0 -0.35012995820E-01  0.11716000172E-01  0.31029476765E+01  0.31031673688E+01  0.51109989000E-03 0. -1.
      611    1    1    2    0    0 -0.21260573982E-01  0.64105321665E-02  0.14400618878E+01  0.14402331786E+01  0.51109989000E-03 0.  1.
</event>
<event>
 6   3  0.2312675E+03  0.9118800E+02  0.7818608E-02  0.1180000E+00
       11   -1    0    0    0    0  0.00000000000E+00  0.00000000000E+00  0.54999999763E+01  0.55000000000E+01  0.51109989000E-03 0. -1.
     -623   -1    0    0    0    0  0.00000000000E+00  0.00000000000E+00  0.93234578044E-11  0.17124000000E+03  0.17124000000E+03 0.  1.
       11    1    1    2    0    0 -0.76220230733E-01 -0.10613572403E-01  0.10467838056E+01  0.10496088645E+01  0.51109989000E-03 0. -1.
     -623    1    1    2    0    0 -0.25016110860E-01  0.18260504087E-02  0.40402471845E-02  0.17124000188E+03  0.17124000000E+03 0.  1.
     -611    1    1    2    0    0  0.51974760258E-01  0.77408378044E-02  0.18496858703E+01  0.18504322134E+01  0.51109989000E-03 0.  1.
      611    1    1    2    0    0  0.49261581335E-01  0.10466841897E-02  0.25994900532E+01  0.25999570375E+01  0.51109989000E-03 0. -1.
</event>
<event>
 6   3  0.2312675E+03  0.9118800E+02  0.7818608E-02  0.1180000E+00
       11   -1    0    0    0    0  0.00000000000E+00  0.00000000000E+00  0.54999999763E+01  0.55000000000E+01  0.51109989000E-03 0.  1.
     -623   -1    0    0    0    0  0.00000000000E+00  0.00000000000E+00  0.93234578044E-11  0.17124000000E+03  0.17124000000E+03 0. -1.
       11    1    1    2    0    0 -0.11359855424E-01  0.69831297128E-01  0.27344326575E+00  0.28244811414E+00  0.51109989000E-03 0.  1.
     -623    1    1    2    0    0  0.72894282255E-01 -0.10044482680E+00  0.95030995668E-02  0.17124004524E+03  0.17124000000E+03 0. -1.
     -611    1    1    2    0    0 -0.11656330648E-01  0.53334867534E-02  0.99852313547E+00  0.99860554245E+00  0.51109989000E-03 0.  1.
      611    1    1    2    0    0 -0.49878096181E-01  0.25280042921E-01  0.42185304753E+01  0.42189011055E+01  0.51109989000E-03 0.  1.
</event>
<event>
 6   3  0.2312675E+03  0.9118800E+02  0.7818608E-02  0.1180000E+00
       11   -1    0    0    0    0  0.00000000000E+00  0.00000000000E+00  0.54999999763E+01  0.55000000000E+01  0.51109989000E-03 0.  1.
     -623   -1    0    0    0    0  0.00000000000E+00  0.00000000000E+00  0.93234578044E-11  0.17124000000E+03  0.17124000000E+03 0.  1.
       11    1    1    2    0    0  0.55639936173E-01  0.42276439705E-01  0.65531614470E+00  0.65903157024E+00  0.51109989000E-03 0.  1.
     -623    1    1    2    0    0 -0.42754986535E-01 -0.21300792210E-02  0.50546439400E-02  0.17124000543E+03  0.17124000000E+03 0.  1.
     -611    1    1    2    0    0  0.43302450043E-01 -0.29178073755E-01  0.29651326464E+01  0.29655924087E+01  0.51109989000E-03 0.  1.
      611    1    1    2    0    0 -0.56187399682E-01 -0.10968286729E-01  0.18744965412E+01  0.18753705957E+01  0.51109989000E-03 0. -1.
</event>
<event>
 6   3  0.2312675E+03  0.9118800E+02  0.7818608E-02  0.1180000E+00
       11   -1    0    0    0    0  0.00000000000E+00  0.00000000000E+00  0.54999999763E+01  0.55000000000E+01  0.51109989000E-03 0. -1.
     -623   -1    0    0    0    0  0.00000000000E+00  0.00000000000E+00  0.93234578044E-11  0.17124000000E+03  0.17124000000E+03 0. -1.
       11    1    1    2    0    0  0.18960138482E-01  0.34728707815E-02  0.55525144353E+00  0.55558615394E+00  0.51109989000E-03 0. -1.
     -623    1    1    2    0    0  0.66697584168E-01 -0.21242867515E-01  0.11368150142E-02  0.17124001431E+03  0.17124000000E+03 0. -1.
     -611    1    1    2    0    0 -0.65177028019E-01  0.15269818413E-01  0.40189805615E+01  0.40195380614E+01  0.51109989000E-03 0. -1.
      611    1    1    2    0    0 -0.20480694629E-01  0.25001783193E-02  0.92463115603E+00  0.92486147377E+00  0.51109989000E-03 0.  1.
</event>
<event>
 6   3  0.2312675E+03  0.9118800E+02  0.7818608E-02  0.1180000E+00
       11   -1    0    0    0    0  0.00000000000E+00  0.00000000000E+00  0.54999999763E+01  0.55000000000E+01  0.51109989000E-03 0. -1.
     -623   -1    0    0    0    0  0.00000000000E+00  0.00000000000E+00  0.93234578044E-11  0.17124000000E+03  0.17124000000E+03 0. -1.
       11    1    1    2    0    0  0.24284062787E+00 -0.22673884767E-02  0.76082382931E+00  0.79864251832E+00  0.51109989000E-03 0. -1.
     -623    1    1    2    0    0  0.20576451875E-01 -0.74487644709E-01  0.51604415927E-01  0.17124002521E+03  0.17124000000E+03 0. -1.
     -611    1    1    2    0    0 -0.18665002733E+00  0.14452132220E+00  0.38990416546E+01  0.39061810929E+01  0.51109989000E-03 0. -1.
      611    1    1    2    0    0 -0.76767052416E-01 -0.67766289018E-01  0.78853007646E+00  0.79515117617E+00  0.51109989000E-03 0.  1.
</event>
<event>
 6   3  0.2312675E+03  0.9118800E+02  0.7818608E-02  0.1180000E+00
       11   -1    0    0    0    0  0.00000000000E+00  0.00000000000E+00  0.54999999763E+01  0.55000000000E+01  0.51109989000E-03 0.  1.
     -623   -1    0    0    0    0  0.00000000000E+00  0.00000000000E+00  0.93234578044E-11  0.17124000000E+03  0.17124000000E+03 0.  1.
       11    1    1    2    0    0  0.32085097524E-02 -0.27975716336E-02  0.34890973193E-02  0.55277450265E-02  0.51109989000E-03 0. -1.
     -623    1    1    2    0    0  0.42263550575E-02 -0.55539362497E-02  0.28204093801E-02  0.17124000017E+03  0.17124000000E+03 0.  1.
     -611    1    1    2    0    0  0.30637887886E-01 -0.25572209906E-01  0.18944066076E+01  0.18948269774E+01  0.51109989000E-03 0.  1.
      611    1    1    2    0    0 -0.38072752696E-01  0.33923717790E-01  0.35992838620E+01  0.35996451121E+01  0.51109989000E-03 0. -1.
</event>
<event>
 6   3  0.2312675E+03  0.9118800E+02  0.7818608E-02  0.1180000E+00
       11   -1    0    0    0    0  0.00000000000E+00  0.00000000000E+00  0.54999999763E+01  0.55000000000E+01  0.51109989000E-03 0.  1.
     -623   -1    0    0    0    0  0.00000000000E+00  0.00000000000E+00  0.93234578044E-11  0.17124000000E+03  0.17124000000E+03 0. -1.
       11    1    1    2    0    0  0.60729416747E-01 -0.25530118705E-02  0.89292986133E+00  0.89499641251E+00  0.51109989000E-03 0.  1.
     -623    1    1    2    0    0  0.41751072534E-02  0.13065610630E-01  0.25366914846E-02  0.17124000057E+03  0.17124000000E+03 0. -1.
     -611    1    1    2    0    0 -0.34847579916E-01 -0.52581503276E-02  0.24636560992E+01  0.24639082041E+01  0.51109989000E-03 0.  1.
      611    1    1    2    0    0 -0.30056944073E-01 -0.52544484304E-02  0.21408773233E+01  0.21410948143E+01  0.51109989000E-03 0.  1.
</event>
<event>
 6   3  0.2312675E+03  0.9118800E+02  0.7818608E-02  0.1180000E+00
       11   -1    0    0    0    0  0.00000000000E+00  0.00000000000E+00  0.54999999763E+01  0.55000000000E+01  0.51109989000E-03 0.  1.
     -623   -1    0    0    0    0  0.00000000000E+00  0.00000000000E+00  0.93234578044E-11  0.17124000000E+03  0.17124000000E+03 0.  1.
       11    1    1    2    0    0  0.63048330838E-02  0.41683571624E-02  0.89278658044E+00  0.89281871932E+00  0.51109989000E-03 0.  1.
     -623    1    1    2    0    0 -0.58058661827E-01 -0.27407633104E-01  0.39357958352E-03  0.17124001204E+03  0.17124000000E+03 0.  1.
     -611    1    1    2    0    0  0.31542518006E-01  0.14204764511E-01  0.28107234515E+01  0.28109363721E+01  0.51109989000E-03 0.  1.
      611    1    1    2    0    0  0.20211310818E-01  0.90345114685E-02  0.17960963722E+01  0.17962328799E+01  0.51109989000E-03 0.  1.
</event>
<event>
 6   3  0.2312675E+03  0.9118800E+02  0.7818608E-02  0.1180000E+00
       11   -1    0    0    0    0  0.00000000000E+00  0.00000000000E+00  0.54999999763E+01  0.55000000000E+01  0.51109989000E-03 0. -1.
     -623   -1    0    0    0    0  0.00000000000E+00  0.00000000000E+00  0.93234578044E-11  0.17124000000E+03  0.17124000000E+03 0. -1.
       11    1    1    2    0    0  0.14436466249E+00 -0.38542900776E-01  0.88372314879E+00  0.89626646479E+00  0.51109989000E-03 0. -1.
     -623    1    1    2    0    0  0.19657946926E-02  0.13071045237E-01  0.14942631977E-01  0.17124000116E+03  0.17124000000E+03 0. -1.
     -611    1    1    2    0    0 -0.88178928882E-01  0.17102808125E-01  0.27912544959E+01  0.27926994023E+01  0.51109989000E-03 0. -1.
      611    1    1    2    0    0 -0.58151528305E-01  0.83690474160E-02  0.18100796999E+01  0.18110329711E+01  0.51109989000E-03 0.  1.
</event>
<event>
 6   3  0.2312675E+03  0.9118800E+02  0.7818608E-02  0.1180000E+00
       11   -1    0    0    0    0  0.00000000000E+00  0.00000000000E+00  0.54999999763E+01  0.55000000000E+01  0.51109989000E-03 0. -1.
     -623   -1    0    0    0    0  0.00000000000E+00  0.00000000000E+00  0.93234578044E-11  0.17124000000E+03  0.17124000000E+03 0.  1.
       11    1    1    2    0    0  0.91699317348E-01  0.65690045138E-02  0.55434445621E+00  0.56191632293E+00  0.51109989000E-03 0. -1.
     -623    1    1    2    0    0 -0.42035917545E-03  0.15122266506E-01  0.84659650663E-02  0.17124000088E+03  0.17124000000E+03 0.  1.
     -611    1    1    2    0    0 -0.53188887358E-01 -0.13526066838E-01  0.29856053977E+01  0.29861098212E+01  0.51109989000E-03 0.  1.
      611    1    1    2    0    0 -0.38090070818E-01 -0.81652041826E-02  0.19515841574E+01  0.19519729785E+01  0.51109989000E-03 0. -1.
</event>
<event>
 6   3  0.2312675E+03  0.9118800E+02  0.7818608E-02  0.1180000E+00
       11   -1    0    0    0    0  0.00000000000E+00  0.00000000000E+00  0.54999999763E+01  0.55000000000E+01  0.51109989000E-03 0.  1.
     -623   -1    0    0    0    0  0.00000000000E+00  0.00000000000E+00  0.93234578044E-11  0.17124000000E+03  0.17124000000E+03 0. -1.
       11    1    1    2    0    0 -0.23112425568E-01 -0.22595295166E-02  0.50825792090E+00  0.50878842859E+00  0.51109989000E-03 0.  1.
     -623    1    1    2    0    0 -0.39918860505E-02  0.14685625052E-02  0.85265248115E-03  0.17124000005E+03  0.17124000000E+03 0. -1.
     -611    1    1    2    0    0  0.40609730985E-01 -0.68345597903E-02  0.36449223341E+01  0.36451549960E+01  0.51109989000E-03 0.  1.
      611    1    1    2    0    0 -0.13505419366E-01  0.76255268017E-02  0.13459670688E+01  0.13460565205E+01  0.51109989000E-03 0. -1.
</event>
<event>
 6   3  0.2312675E+03  0.9118800E+02  0.7818608E-02  0.1180000E+00
       11   -1    0    0    0    0  0.00000000000E+00  0.00000000000E+00  0.54999999763E+01  0.55000000000E+01  0.51109989000E-03 0. -1.
     -623   -1    0    0    0    0  0.00000000000E+00  0.00000000000E+00  0.93234578044E-11  0.17124000000E+03  0.17124000000E+03 0.  1.
       11    1    1    2    0    0 -0.52170100623E-01  0.58473276889E-02  0.31259998366E+00  0.31697779361E+00  0.51109989000E-03 0. -1.
     -623    1    1    2    0    0 -0.12551159199E-01  0.62467552227E-01  0.52963668110E-02  0.17124001194E+03  0.17124000000E+03 0.  1.
     -611    1    1    2    0    0  0.48832806382E-01 -0.57842288654E-01  0.45169296515E+01  0.45175639576E+01  0.51109989000E-03 0. -1.
      611    1    1    2    0    0  0.15888453440E-01 -0.10472591262E-01  0.66517397428E+00  0.66544631293E+00  0.51109989000E-03 0.  1.
</event>
<event>
 6   3  0.2312675E+03  0.9118800E+02  0.7818608E-02  0.1180000E+00
       11   -1    0    0    0    0  0.00000000000E+00  0.00000000000E+00  0.54999999763E+01  0.55000000000E+01  0.51109989000E-03 0.  1.
     -623   -1    0    0    0    0  0.00000000000E+00  0.00000000000E+00  0.93234578044E-11  0.17124000000E+03  0.17124000000E+03 0.  1.
       11    1    1    2    0    0 -0.63317056492E-02  0.15771947190E-01  0.83802391155E+00  0.83819638651E+00  0.51109989000E-03 0.  1.
     -623    1    1    2    0    0 -0.15381339213E-01 -0.10742264291E-01  0.14074517442E-02  0.17124000103E+03  0.17124000000E+03 0.  1.
     -611    1    1    2    0    0  0.61700482742E-01 -0.11556695035E-01  0.34097695930E+01  0.34103474083E+01  0.51109989000E-03 0.  1.
      611    1    1    2    0    0 -0.39987437880E-01  0.65270121366E-02  0.12507990201E+01  0.12514551718E+01  0.51109989000E-03 0. -1.
</event>
<event>
 6   3  0.2312675E+03  0.9118800E+02  0.7818608E-02  0.1180000E+00
       11   -1    0    0    0    0  0.00000000000E+00  0.00000000000E+00  0.54999999763E+01  0.55000000000E+01  0.51109989000E-03 0.  1.
     -623   -1    0    0    0    0  0.00000000000E+00  0.00000000000E+00  0.93234578044E-11  0.17124000000E+03  0.17124000000E+03 0. -1.
       11    1    1    2    0    0 -0.16652412640E+00 -0.22330326460E-01  0.55630645735E+00  0.58112482640E+00  0.51109989000E-03 0.  1.
     -623    1    1    2    0    0  0.21712862041E-01  0.58371944243E-01  0.27233657725E-01  0.17124001349E+03  0.17124000000E+03 0. -1.
     -611    1    1    2    0    0  0.93509165527E-01 -0.81914281146E-02  0.33486509665E+01  0.33499663611E+01  0.51109989000E-03 0.  1.
      611    1    1    2    0    0  0.51302098829E-01 -0.27850189668E-01  0.15678088947E+01  0.15688953215E+01  0.51109989000E-03 0. -1.
</event>
<event>
 6   3  0.2312675E+03  0.9118800E+02  0.7818608E-02  0.1180000E+00
       11   -1    0    0    0    0  0.00000000000E+00  0.00000000000E+00  0.54999999763E+01  0.55000000000E+01  0.51109989000E-03 0.  1.
     -623   -1    0    0    0    0  0.00000000000E+00  0.00000000000E+00  0.93234578044E-11  0.17124000000E+03  0.17124000000E+03 0. -1.
       11    1    1    2    0    0 -0.39391437960E-01 -0.36566054673E-01  0.16515263762E+00  0.17367906228E+00  0.51109989000E-03 0.  1.
     -623    1    1    2    0    0 -0.24236429174E-01 -0.35466143012E-02  0.90613302622E-02  0.17124000199E+03  0.17124000000E+03 0. -1.
     -611    1    1    2    0    0  0.10643622844E-01  0.82793605123E-02  0.89185087657E+00  0.89195295940E+00  0.51109989000E-03 0. -1.
      611    1    1    2    0    0  0.52984244294E-01  0.31833308465E-01  0.44339351322E+01  0.44343659871E+01  0.51109989000E-03 0.  1.
</event>
<event>
 6   3  0.2312675E+03  0.9118800E+02  0.7818608E-02  0.1180000E+00
       11   -1    0    0    0    0  0.00000000000E+00  0.00000000000E+00  0.54999999763E+01  0.55000000000E+01  0.51109989000E-03 0.  1.
     -623   -1    0    0    0    0  0.00000000000E+00  0.00000000000E+00  0.93234578044E-11  0.17124000000E+03  0.17124000000E+03 0.  1.
       11    1    1    2    0    0  0.80667461345E-01 -0.23945255301E-01  0.60746064869E+00  0.61326121311E+00  0.51109989000E-03 0.  1.
     -623    1    1    2    0    0 -0.82491142368E-02  0.74586297467E-02  0.64826945776E-02  0.17124000048E+03  0.17124000000E+03 0.  1.
     -611    1    1    2    0    0 -0.26179029955E-01  0.18998501632E-01  0.13979685265E+01  0.13983427859E+01  0.51109989000E-03 0. -1.
      611    1    1    2    0    0 -0.46239317154E-01 -0.25118760772E-02  0.34880881065E+01  0.34883955172E+01  0.51109989000E-03 0.  1.
</event>
<event>
 6   3  0.2312675E+03  0.9118800E+02  0.7818608E-02  0.1180000E+00
       11   -1    0    0    0    0  0.00000000000E+00  0.00000000000E+00  0.54999999763E+01  0.55000000000E+01  0.51109989000E-03 0.  1.
     -623   -1    0    0    0    0  0.00000000000E+00  0.00000000000E+00  0.93234578044E-11  0.17124000000E+03  0.17124000000E+03 0. -1.
       11    1    1    2    0    0  0.55755173740E-01 -0.28463716862E-01  0.60384677172E+00  0.60708319653E+00  0.51109989000E-03 0.  1.
     -623    1    1    2    0    0 -0.25963130769E-02 -0.35428097192E-02  0.36310040959E-02  0.17124000009E+03  0.17124000000E+03 0. -1.
     -611    1    1    2    0    0 -0.38347852114E-01  0.23159059453E-01  0.34244669834E+01  0.34247600327E+01  0.51109989000E-03 0.  1.
      611    1    1    2    0    0 -0.14811008540E-01  0.88474671230E-02  0.14680552161E+01  0.14681566750E+01  0.51109989000E-03 0. -1.
</event>
<event>
 6   3  0.2312675E+03  0.9118800E+02  0.7818608E-02  0.1180000E+00
       11   -1    0    0    0    0  0.00000000000E+00  0.00000000000E+00  0.54999999763E+01  0.55000000000E+01  0.51109989000E-03 0. -1.
     -623   -1    0    0    0    0  0.00000000000E+00  0.00000000000E+00  0.93234578044E-11  0.17124000000E+03  0.17124000000E+03 0.  1.
       11    1    1    2    0    0 -0.76254457719E-01  0.31895679091E-01  0.72604734941E+00  0.73073736149E+00  0.51109989000E-03 0. -1.
     -623    1    1    2    0    0 -0.25668190882E-01 -0.25737321295E-01  0.57874734136E-02  0.17124000396E+03  0.17124000000E+03 0.  1.
     -611    1    1    2    0    0  0.81769111822E-01 -0.53477741164E-02  0.38114906119E+01  0.38123714054E+01  0.51109989000E-03 0. -1.
      611    1    1    2    0    0  0.20153536735E-01 -0.81058367746E-03  0.95667453940E+00  0.95688727531E+00  0.51109989000E-03 0. -1.
</event>
<event>
 6   3  0.2312675E+03  0.9118800E+02  0.7818608E-02  0.1180000E+00
       11   -1    0    0    0    0  0.00000000000E+00  0.00000000000E+00  0.54999999763E+01  0.55000000000E+01  0.51109989000E-03 0. -1.
     -623   -1    0    0    0    0  0.00000000000E+00  0.00000000000E+00  0.93234578044E-11  0.17124000000E+03  0.17124000000E+03 0. -1.
       11    1    1    2    0    0  0.94308728872E-02 -0.12890914630E-01  0.59838259187E+00  0.59859594429E+00  0.51109989000E-03 0. -1.
     -623    1    1    2    0    0  0.71240059397E-02 -0.31140600229E-02  0.64045437454E-03  0.17124000018E+03  0.17124000000E+03 0. -1.
     -611    1    1    2    0    0  0.21244751900E-01 -0.44248896033E-02  0.15948253461E+01  0.15949730609E+01  0.51109989000E-03 0. -1.
      611    1    1    2    0    0 -0.37799630727E-01  0.20429864256E-01  0.33061515838E+01  0.33064308170E+01  0.51109989000E-03 0.  1.
</event>
<event>
 6   3  0.2312675E+03  0.9118800E+02  0.7818608E-02  0.1180000E+00
       11   -1    0    0    0    0  0.00000000000E+00  0.00000000000E+00  0.54999999763E+01  0.55000000000E+01  0.51109989000E-03 0.  1.
     -623   -1    0    0    0    0  0.00000000000E+00  0.00000000000E+00  0.93234578044E-11  0.17124000000E+03  0.17124000000E+03 0.  1.
       11    1    1    2    0    0 -0.13594248492E-02 -0.91033055728E-02  0.79349011990E+00  0.79354366598E+00  0.51109989000E-03 0.  1.
     -623    1    1    2    0    0  0.49121789499E-01  0.40565788365E-01  0.41332412808E-03  0.17124001185E+03  0.17124000000E+03 0.  1.
     -611    1    1    2    0    0 -0.61425852645E-02 -0.35822185996E-02  0.57446417333E+00  0.57450840838E+00  0.51109989000E-03 0. -1.
      611    1    1    2    0    0 -0.41619779333E-01 -0.27880264150E-01  0.41316323531E+01  0.41319360689E+01  0.51109989000E-03 0.  1.
</event>
<event>
 6   3  0.2312675E+03  0.9118800E+02  0.7818608E-02  0.1180000E+00
       11   -1    0    0    0    0  0.00000000000E+00  0.00000000000E+00  0.54999999763E+01  0.55000000000E+01  0.51109989000E-03 0.  1.
     -623   -1    0    0    0    0  0.00000000000E+00  0.00000000000E+00  0.93234578044E-11  0.17124000000E+03  0.17124000000E+03 0. -1.
       11    1    1    2    0    0  0.18403393077E-02 -0.60354712728E-02  0.42500296977E+00  0.42505011387E+00  0.51109989000E-03 0.  1.
     -623    1    1    2    0    0 -0.53793020765E-01  0.29147686006E-01  0.37675922670E-03  0.17124001093E+03  0.17124000000E+03 0. -1.
     -611    1    1    2    0    0  0.20658476992E-01 -0.88739844655E-02  0.20167256021E+01  0.20168509949E+01  0.51109989000E-03 0.  1.
      611    1    1    2    0    0  0.31294204562E-01 -0.14238230312E-01  0.30578946547E+01  0.30580879704E+01  0.51109989000E-03 0.  1.
</event>
<event>
 6   3  0.2312675E+03  0.9118800E+02  0.7818608E-02  0.1180000E+00
       11   -1    0    0    0    0  0.00000000000E+00  0.00000000000E+00  0.54999999763E+01  0.55000000000E+01  0.51109989000E-03 0.  1.
     -623   -1    0    0    0    0  0.00000000000E+00  0.00000000000E+00  0.93234578044E-11  0.17124000000E+03  0.17124000000E+03 0.  1.
       11    1    1    2    0    0  0.59744893911E-01 -0.34082864165E-01  0.10224211924E+01  0.10247323797E+01  0.51109989000E-03 0.  1.
     -623    1    1    2    0    0  0.57494145775E-04  0.18342954126E-01  0.27464273126E-02  0.17124000100E+03  0.17124000000E+03 0.  1.
     -611    1    1    2    0    0 -0.98123136593E-02  0.47166481872E-02  0.64420101393E+00  0.64429320643E+00  0.51109989000E-03 0. -1.
      611    1    1    2    0    0 -0.49990074399E-01  0.11023261853E-01  0.38306313426E+01  0.38309734095E+01  0.51109989000E-03 0.  1.
</event>
<event>
 6   3  0.2312675E+03  0.9118800E+02  0.7818608E-02  0.1180000E+00
       11   -1    0    0    0    0  0.00000000000E+00  0.00000000000E+00  0.54999999763E+01  0.55000000000E+01  0.51109989000E-03 0.  1.
     -623   -1    0    0    0    0  0.00000000000E+00  0.00000000000E+00  0.93234578044E-11  0.17124000000E+03  0.17124000000E+03 0.  1.
       11    1    1    2    0    0  0.23620689331E-02  0.31457669255E-02 -0.26994329222E-02  0.47982684787E-02  0.51109989000E-03 0.  1.
     -623    1    1    2    0    0 -0.51373319634E-02 -0.11574913478E-01  0.82761480107E-02  0.17124000067E+03  0.17124000000E+03 0.  1.
     -611    1    1    2    0    0  0.41522413162E-01  0.26411402314E-01  0.32297214097E+01  0.32300963327E+01  0.51109989000E-03 0. -1.
      611    1    1    2    0    0 -0.38747150131E-01 -0.17982255761E-01  0.22647018515E+01  0.22651047306E+01  0.51109989000E-03 0.  1.
</event>
<event>
 6   3  0.2312675E+03  0.9118800E+02  0.7818608E-02  0.1180000E+00
       11   -1    0    0    0    0  0.00000000000E+00  0.00000000000E+00  0.54999999763E+01  0.55000000000E+01  0.51109989000E-03 0. -1.
     -623   -1    0    0    0    0  0.00000000000E+00  0.00000000000E+00  0.93234578044E-11  0.17124000000E+03  0.17124000000E+03 0.  1.
       11    1    1    2    0    0 -0.76561676358E-02  0.67818403305E-03  0.98000647521E+00  0.98003674906E+00  0.51109989000E-03 0. -1.
     -623    1    1    2    0    0  0.62122860878E-01  0.15510186473E-01  0.40028435255E-03  0.17124001197E+03  0.17124000000E+03 0.  1.
     -611    1    1    2    0    0 -0.39670519134E-01 -0.11284160306E-01  0.31943219550E+01  0.31945882514E+01  0.51109989000E-03 0. -1.
      611    1    1    2    0    0 -0.14796174138E-01 -0.49042102085E-02  0.13252712643E+01  0.13253630307E+01  0.51109989000E-03 0. -1.
</event>
<event>
 6   3  0.2312675E+03  0.9118800E+02  0.7818608E-02  0.1180000E+00
       11   -1    0    0    0    0  0.00000000000E+00  0.00000000000E+00  0.54999999763E+01  0.55000000000E+01  0.51109989000E-03 0. -1.
     -623   -1    0    0    0    0  0.00000000000E+00  0.00000000000E+00  0.93234578044E-11  0.17124000000E+03  0.17124000000E+03 0.  1.
       11    1    1    2    0    0  0.15192739135E+00 -0.42026435474E-01  0.10764792725E+01  0.10879595760E+01  0.51109989000E-03 0. -1.
     -623    1    1    2    0    0 -0.48748301513E-01 -0.35472472462E-02  0.16105034051E-01  0.17124000773E+03  0.17124000000E+03 0.  1.
     -611    1    1    2    0    0 -0.55765679277E-01 -0.39093159864E-01  0.69051467593E+00  0.69386516343E+00  0.51109989000E-03 0.  1.
      611    1    1    2    0    0 -0.47413410555E-01  0.84666842583E-01  0.37169009937E+01  0.37181675277E+01  0.51109989000E-03 0. -1.
</event>
<event>
 6   3  0.2312675E+03  0.9118800E+02  0.7818608E-02  0.1180000E+00
       11   -1    0    0    0    0  0.00000000000E+00  0.00000000000E+00  0.54999999763E+01  0.55000000000E+01  0.51109989000E-03 0.  1.
     -623   -1    0    0    0    0  0.00000000000E+00  0.00000000000E+00  0.93234578044E-11  0.17124000000E+03  0.17124000000E+03 0.  1.
       11    1    1    2    0    0 -0.18214857931E-01 -0.97104133609E-02  0.45939308126E+00  0.45985686632E+00  0.51109989000E-03 0.  1.
     -623    1    1    2    0    0 -0.82870894385E-01  0.34764929870E-02  0.15034544939E-02  0.17124002009E+03  0.17124000000E+03 0.  1.
     -611    1    1    2    0    0  0.61845925608E-01  0.44841946821E-02  0.31826588660E+01  0.31832629086E+01  0.51109989000E-03 0. -1.
      611    1    1    2    0    0  0.39239826708E-01  0.17497256920E-02  0.18564445745E+01  0.18568601307E+01  0.51109989000E-03 0.  1.
</event>
<event>
 6   3  0.2312675E+03  0.9118800E+02  0.7818608E-02  0.1180000E+00
       11   -1    0    0    0    0  0.00000000000E+00  0.00000000000E+00  0.54999999763E+01  0.55000000000E+01  0.51109989000E-03 0. -1.
     -623   -1    0    0    0    0  0.00000000000E+00  0.00000000000E+00  0.93234578044E-11  0.17124000000E+03  0.17124000000E+03 0.  1.
       11    1    1    2    0    0  0.43021006406E-01  0.44324974843E-01  0.61080644218E+00  0.61392204832E+00  0.51109989000E-03 0. -1.
     -623    1    1    2    0    0  0.11125045152E-01  0.71045482075E-02  0.36873706122E-02  0.17124000055E+03  0.17124000000E+03 0.  1.
     -611    1    1    2    0    0 -0.25038402907E-01 -0.23855075595E-01  0.23283632803E+01  0.23286201520E+01  0.51109989000E-03 0. -1.
      611    1    1    2    0    0 -0.29107648664E-01 -0.27574447467E-01  0.25571428843E+01  0.25574572523E+01  0.51109989000E-03 0.  1.
</event>
<event>
 6   3  0.2312675E+03  0.9118800E+02  0.7818608E-02  0.1180000E+00
       11   -1    0    0    0    0  0.00000000000E+00  0.00000000000E+00  0.54999999763E+01  0.55000000000E+01  0.51109989000E-03 0.  1.
     -623   -1    0    0    0    0  0.00000000000E+00  0.00000000000E+00  0.93234578044E-11  0.17124000000E+03  0.17124000000E+03 0.  1.
       11    1    1    2    0    0 -0.78514975499E-02 -0.30738398047E-01  0.84037686799E+00  0.84097564567E+00  0.51109989000E-03 0.  1.
     -623    1    1    2    0    0  0.70203922467E-01  0.68490512526E-01  0.11972011090E-02  0.17124002809E+03  0.17124000000E+03 0.  1.
     -611    1    1    2    0    0 -0.34175225578E-01 -0.20478369704E-01  0.25442537159E+01  0.25445656882E+01  0.51109989000E-03 0.  1.
      611    1    1    2    0    0 -0.28177199393E-01 -0.17273744807E-01  0.21141721953E+01  0.21144305781E+01  0.51109989000E-03 0.  1.
</event>
<event>
 6   3  0.2312675E+03  0.9118800E+02  0.7818608E-02  0.1180000E+00
       11   -1    0    0    0    0  0.00000000000E+00  0.00000000000E+00  0.54999999763E+01  0.55000000000E+01  0.51109989000E-03 0.  1.
     -623   -1    0    0    0    0  0.00000000000E+00  0.00000000000E+00  0.93234578044E-11  0.17124000000E+03  0.17124000000E+03 0. -1.
       11    1    1    2    0    0 -0.10771903813E-03 -0.31590980372E-02  0.17385695272E+00  0.17388643632E+00  0.51109989000E-03 0.  1.
     -623    1    1    2    0    0  0.11608978107E-02  0.16175778612E-03  0.47340999197E-03  0.17124000000E+03  0.17124000000E+03 0. -1.
     -611    1    1    2    0    0  0.33686375444E-01  0.10873128336E-02  0.23883067894E+01  0.23885446480E+01  0.51109989000E-03 0.  1.
      611    1    1    2    0    0 -0.34739554217E-01  0.19100274174E-02  0.29373628238E+01  0.29375689106E+01  0.51109989000E-03 0. -1.
</event>
<event>
 6   3  0.2312675E+03  0.9118800E+02  0.7818608E-02  0.1180000E+00
       11   -1    0    0    0    0  0.00000000000E+00  0.00000000000E+00  0.54999999763E+01  0.55000000000E+01  0.51109989000E-03 0. -1.
     -623   -1    0    0    0    0  0.00000000000E+00  0.00000000000E+00  0.93234578044E-11  0.17124000000E+03  0.17124000000E+03 0. -1.
       11    1    1    2    0    0  0.52335018764E-01  0.76831795051E-02  0.52020729430E+00  0.52288992695E+00  0.51109989000E-03 0. -1.
     -623    1    1    2    0    0  0.53486955186E-02 -0.48891199786E-02  0.30200044036E-02  0.17124000018E+03  0.17124000000E+03 0. -1.
     -611    1    1    2    0    0 -0.35239498759E-01 -0.11277400653E-02  0.28523743505E+01  0.28525922931E+01  0.51109989000E-03 0. -1.
      611    1    1    2    0    0 -0.22444215527E-01 -0.16663194614E-02  0.21243983273E+01  0.21245176002E+01  0.51109989000E-03 0.  1.
</event>
<event>
 6   3  0.2312675E+03  0.9118800E+02  0.7818608E-02  0.1180000E+00
       11   -1    0    0    0    0  0.00000000000E+00  0.00000000000E+00  0.54999999763E+01  0.55000000000E+01  0.51109989000E-03 0.  1.
     -623   -1    0    0    0    0  0.00000000000E+00  0.00000000000E+00  0.93234578044E-11  0.17124000000E+03  0.17124000000E+03 0. -1.
       11    1    1    2    0    0 -0.20533521860E-01 -0.43581959547E-02  0.80875583214E-01  0.83556810466E-01  0.51109989000E-03 0.  1.
     -623    1    1    2    0    0  0.65714533198E-02  0.13603461975E-01  0.35256019527E-02  0.17124000070E+03  0.17124000000E+03 0. -1.
     -611    1    1    2    0    0 -0.37230699289E-01 -0.16014367413E-01  0.16908683814E+01  0.16913541111E+01  0.51109989000E-03 0. -1.
      611    1    1    2    0    0  0.51192767829E-01  0.67691013929E-02  0.37247304097E+01  0.37250883757E+01  0.51109989000E-03 0.  1.
</event>
<event>
 6   3  0.2312675E+03  0.9118800E+02  0.7818608E-02  0.1180000E+00
       11   -1    0    0    0    0  0.00000000000E+00  0.00000000000E+00  0.54999999763E+01  0.55000000000E+01  0.51109989000E-03 0. -1.
     -623   -1    0    0    0    0  0.00000000000E+00  0.00000000000E+00  0.93234578044E-11  0.17124000000E+03  0.17124000000E+03 0. -1.
       11    1    1    2    0    0 -0.10742591259E-01  0.62865966936E-02  0.34635055796E+00  0.34657451549E+00  0.51109989000E-03 0. -1.
     -623    1    1    2    0    0 -0.15346748616E-01 -0.17290080960E-01  0.87565179208E-03  0.17124000156E+03  0.17124000000E+03 0. -1.
     -611    1    1    2    0    0 -0.22903090638E-01 -0.12769776419E-02  0.72710720338E+00  0.72746912557E+00  0.51109989000E-03 0.  1.
      611    1    1    2    0    0  0.48992430512E-01  0.12280461908E-01  0.44256665632E+01  0.44259547961E+01  0.51109989000E-03 0. -1.
</event>
<event>
 6   3  0.2312675E+03  0.9118800E+02  0.7818608E-02  0.1180000E+00
       11   -1    0    0    0    0  0.00000000000E+00  0.00000000000E+00  0.54999999763E+01  0.55000000000E+01  0.51109989000E-03 0.  1.
     -623   -1    0    0    0    0  0.00000000000E+00  0.00000000000E+00  0.93234578044E-11  0.17124000000E+03  0.17124000000E+03 0. -1.
       11    1    1    2    0    0  0.21167306470E-02 -0.21945381561E-02  0.17713576805E-02  0.35630713549E-02  0.51109989000E-03 0.  1.
     -623    1    1    2    0    0 -0.16289103452E-02 -0.17384209983E-02  0.61647821151E-02  0.17124000013E+03  0.17124000000E+03 0. -1.
     -611    1    1    2    0    0 -0.58651979877E-01  0.33838068478E-01  0.58029018533E+00  0.58422772105E+00  0.51109989000E-03 0. -1.
      611    1    1    2    0    0  0.58164159575E-01 -0.29905109324E-01  0.49117736511E+01  0.49122090801E+01  0.51109989000E-03 0.  1.
</event>
<event>
 6   3  0.2312675E+03  0.9118800E+02  0.7818608E-02  0.1180000E+00
       11   -1    0    0    0    0  0.00000000000E+00  0.00000000000E+00  0.54999999763E+01  0.55000000000E+01  0.51109989000E-03 0.  1.
     -623   -1    0    0    0    0  0.00000000000E+00  0.00000000000E+00  0.93234578044E-11  0.17124000000E+03  0.17124000000E+03 0.  1.
       11    1    1    2    0    0  0.50707187066E-01  0.33601363738E-01  0.10143279982E+01  0.10161504906E+01  0.51109989000E-03 0.  1.
     -623    1    1    2    0    0 -0.55565130827E-02  0.10045835602E-01  0.22629213520E-02  0.17124000040E+03  0.17124000000E+03 0.  1.
     -611    1    1    2    0    0 -0.33905483003E-01 -0.33342821704E-01  0.33852977933E+01  0.33856318076E+01  0.51109989000E-03 0.  1.
      611    1    1    2    0    0 -0.11245190958E-01 -0.10304377615E-01  0.10981112613E+01  0.10982172999E+01  0.51109989000E-03 0. -1.
</event>
<event>
 6   3  0.2312675E+03  0.9118800E+02  0.7818608E-02  0.1180000E+00
       11   -1    0    0    0    0  0.00000000000E+00  0.00000000000E+00  0.54999999763E+01  0.55000000000E+01  0.51109989000E-03 0.  1.
     -623   -1    0    0    0    0  0.00000000000E+00  0.00000000000E+00  0.93234578044E-11  0.17124000000E+03  0.17124000000E+03 0.  1.
       11    1    1    2    0    0  0.26258184618E-02 -0.44759498710E-03  0.26903030070E-02  0.38202378505E-02  0.51109989000E-03 0.  1.
     -623    1    1    2    0    0 -0.40713943727E-02 -0.18863780705E-02  0.15413563471E-02  0.17124000007E+03  0.17124000000E+03 0.  1.
     -611    1    1    2    0    0 -0.28978121156E-01 -0.14507846343E-01  0.27631287538E+01  0.27633188343E+01  0.51109989000E-03 0.  1.
      611    1    1    2    0    0  0.30423697067E-01  0.16841819401E-01  0.27326395631E+01  0.27328608621E+01  0.51109989000E-03 0. -1.
</event>
<event>
 6   3  0.2312675E+03  0.9118800E+02  0.7818608E-02  0.1180000E+00
       11   -1    0    0    0    0  0.00000000000E+00  0.00000000000E+00  0.54999999763E+01  0.55000000000E+01  0.51109989000E-03 0.  1.
     -623   -1    0    0    0    0  0.00000000000E+00  0.00000000000E+00  0.93234578044E-11  0.17124000000E+03  0.17124000000E+03 0.  1.
       11    1    1    2    0    0  0.22008248190E-01 -0.22600098713E-01  0.54613673873E+00  0.54704727955E+00  0.51109989000E-03 0.  1.
     -623    1    1    2    0    0  0.18392970138E-01  0.30327868251E-01  0.98621861705E-02  0.17124000396E+03  0.17124000000E+03 0.  1.
     -611    1    1    2    0    0  0.40275094165E-01  0.88162711027E-01  0.65650559919E+00  0.66362233975E+00  0.51109989000E-03 0. -1.
      611    1    1    2    0    0 -0.80676312493E-01 -0.95890480565E-01  0.42874954522E+01  0.42893264233E+01  0.51109989000E-03 0.  1.
</event>
<event>
 6   3  0.2312675E+03  0.9118800E+02  0.7818608E-02  0.1180000E+00
       11   -1    0    0    0    0  0.00000000000E+00  0.00000000000E+00  0.54999999763E+01  0.55000000000E+01  0.51109989000E-03 0.  1.
     -623   -1    0    0    0    0  0.00000000000E+00  0.00000000000E+00  0.93234578044E-11  0.17124000000E+03  0.17124000000E+03 0. -1.
       11    1    1    2    0    0  0.72298950858E-01 -0.35925219347E-01  0.79433317156E+00  0.79842545572E+00  0.51109989000E-03 0.  1.
     -623    1    1    2    0    0  0.48504013895E-02 -0.10674664267E-01  0.52411975462E-02  0.17124000048E+03  0.17124000000E+03 0. -1.
     -611    1    1    2    0    0 -0.70727195918E-01  0.57496793021E-01  0.41921696994E+01  0.41931605344E+01  0.51109989000E-03 0.  1.
      611    1    1    2    0    0 -0.64221563295E-02 -0.10896909407E-01  0.50825590774E+00  0.50841352824E+00  0.51109989000E-03 0. -1.
</event>
<event>
 6   3  0.2312675E+03  0.9118800E+02  0.7818608E-02  0.1180000E+00
       11   -1    0    0    0    0  0.00000000000E+00  0.00000000000E+00  0.54999999763E+01  0.55000000000E+01  0.51109989000E-03 0.  1.
     -623   -1    0    0    0    0  0.00000000000E+00  0.00000000000E+00  0.93234578044E-11  0.17124000000E+03  0.17124000000E+03 0. -1.
       11    1    1    2    0    0 -0.68657243739E-01  0.71402320099E-01  0.64843218316E+00  0.65595477422E+00  0.51109989000E-03 0.  1.
     -623    1    1    2    0    0 -0.46505185861E-02 -0.14064274725E-01  0.84210617744E-02  0.17124000085E+03  0.17124000000E+03 0. -1.
     -611    1    1    2    0    0  0.56442520693E-01 -0.44602958352E-01  0.36156151241E+01  0.36163307604E+01  0.51109989000E-03 0. -1.
      611    1    1    2    0    0  0.16865241635E-01 -0.12735087024E-01  0.12275316075E+01  0.12277136178E+01  0.51109989000E-03 0.  1.
</event>
<event>
 6   3  0.2312675E+03  0.9118800E+02  0.7818608E-02  0.1180000E+00
       11   -1    0    0    0    0  0.00000000000E+00  0.00000000000E+00  0.54999999763E+01  0.55000000000E+01  0.51109989000E-03 0.  1.
     -623   -1    0    0    0    0  0.00000000000E+00  0.00000000000E+00  0.93234578044E-11  0.17124000000E+03  0.17124000000E+03 0. -1.
       11    1    1    2    0    0  0.17164766953E-01 -0.19121008481E-01  0.33544473292E+00  0.33642781136E+00  0.51109989000E-03 0.  1.
     -623    1    1    2    0    0 -0.32466273972E-01  0.17346475311E-01  0.28060312290E-02  0.17124000398E+03  0.17124000000E+03 0. -1.
     -611    1    1    2    0    0  0.70065215762E-01 -0.18824196945E-01  0.35842736843E+01  0.35850078926E+01  0.51109989000E-03 0.  1.
      611    1    1    2    0    0 -0.54763708743E-01  0.20598730115E-01  0.15774755278E+01  0.15785603167E+01  0.51109989000E-03 0. -1.
</event>
<event>
 6   3  0.2312675E+03  0.9118800E+02  0.7818608E-02  0.1180000E+00
       11   -1    0    0    0    0  0.00000000000E+00  0.00000000000E+00  0.54999999763E+01  0.55000000000E+01  0.51109989000E-03 0. -1.
     -623   -1    0    0    0    0  0.00000000000E+00  0.00000000000E+00  0.93234578044E-11  0.17124000000E+03  0.17124000000E+03 0.  1.
       11    1    1    2    0    0  0.40571488204E-02  0.11158577878E-02  0.10390433294E-01  0.11221761105E-01  0.51109989000E-03 0. -1.
     -623    1    1    2    0    0  0.97075331159E-03 -0.79479656968E-02  0.20819577323E-02  0.17124000020E+03  0.17124000000E+03 0.  1.
     -611    1    1    2    0    0 -0.60104364807E-01 -0.31255449812E-02  0.24848290892E+01  0.24855579188E+01  0.51109989000E-03 0. -1.
      611    1    1    2    0    0  0.55076462675E-01  0.99576528903E-02  0.30026984960E+01  0.30032201202E+01  0.51109989000E-03 0.  1.
</event>
<event>
 6   3  0.2312675E+03  0.9118800E+02  0.7818608E-02  0.1180000E+00
       11   -1    0    0    0    0  0.00000000000E+00  0.00000000000E+00  0.54999999763E+01  0.55000000000E+01  0.51109989000E-03 0.  1.
     -623   -1    0    0    0    0  0.00000000000E+00  0.00000000000E+00  0.93234578044E-11  0.17124000000E+03  0.17124000000E+03 0.  1.
       11    1    1    2    0    0 -0.11715422708E-02  0.10404035390E-01  0.91333867006E+00  0.91339881975E+00  0.51109989000E-03 0.  1.
     -623    1    1    2    0    0  0.72574796425E-01 -0.28014755481E-01  0.66785512447E-03  0.17124001767E+03  0.17124000000E+03 0.  1.
     -611    1    1    2    0    0 -0.42302093508E-01  0.11138062501E-01  0.27537302712E+01  0.27540777387E+01  0.51109989000E-03 0. -1.
      611    1    1    2    0    0 -0.29101160592E-01  0.64726575734E-02  0.18322631761E+01  0.18325057655E+01  0.51109989000E-03 0.  1.
</event>
<event>
 6   3  0.2312675E+03  0.9118800E+02  0.7818608E-02  0.1180000E+00
       11   -1    0    0    0    0  0.00000000000E+00  0.00000000000E+00  0.54999999763E+01  0.55000000000E+01  0.51109989000E-03 0.  1.
     -623   -1    0    0    0    0  0.00000000000E+00  0.00000000000E+00  0.93234578044E-11  0.17124000000E+03  0.17124000000E+03 0.  1.
       11    1    1    2    0    0  0.86852254756E-02  0.21071985514E-01  0.58340805807E+00  0.58385330791E+00  0.51109989000E-03 0.  1.
     -623    1    1    2    0    0 -0.97474072855E-01  0.49459995276E-02  0.13848391173E-02  0.17124002782E+03  0.17124000000E+03 0.  1.
     -611    1    1    2    0    0  0.10571954895E-01 -0.10244621648E-01  0.87393164822E+00  0.87405577939E+00  0.51109989000E-03 0. -1.
      611    1    1    2    0    0  0.78216892487E-01 -0.15773363394E-01  0.40412754310E+01  0.40420630935E+01  0.51109989000E-03 0.  1.
</event>
<event>
 6   3  0.2312675E+03  0.9118800E+02  0.7818608E-02  0.1180000E+00
       11   -1    0    0    0    0  0.00000000000E+00  0.00000000000E+00  0.54999999763E+01  0.55000000000E+01  0.51109989000E-03 0. -1.
     -623   -1    0    0    0    0  0.00000000000E+00  0.00000000000E+00  0.93234578044E-11  0.17124000000E+03  0.17124000000E+03 0. -1.
       11    1    1    2    0    0 -0.25004903174E-02  0.19140403201E-01  0.58243839402E+00  0.58275839894E+00  0.51109989000E-03 0. -1.
     -623    1    1    2    0    0 -0.48564845739E-02  0.40828689132E-02  0.10669608731E-02  0.17124000012E+03  0.17124000000E+03 0. -1.
     -611    1    1    2    0    0 -0.24844552601E-01 -0.37870511773E-01  0.19021320081E+01  0.19026712446E+01  0.51109989000E-03 0. -1.
      611    1    1    2    0    0  0.32201527492E-01  0.14647239659E-01  0.30143626133E+01  0.30145702356E+01  0.51109989000E-03 0.  1.
</event>
<event>
 6   3  0.2312675E+03  0.9118800E+02  0.7818608E-02  0.1180000E+00
       11   -1    0    0    0    0  0.00000000000E+00  0.00000000000E+00  0.54999999763E+01  0.55000000000E+01  0.51109989000E-03 0. -1.
     -623   -1    0    0    0    0  0.00000000000E+00  0.00000000000E+00  0.93234578044E-11  0.17124000000E+03  0.17124000000E+03 0.  1.
       11    1    1    2    0    0  0.38761721029E-01  0.11506765698E-01  0.10649226659E+01  0.10656901155E+01  0.51109989000E-03 0. -1.
     -623    1    1    2    0    0  0.12234453782E-01  0.97893345282E-02  0.11127916117E-02  0.17124000072E+03  0.17124000000E+03 0.  1.
     -611    1    1    2    0    0 -0.33850932603E-01 -0.14334188432E-01  0.29857539100E+01  0.29859802455E+01  0.51109989000E-03 0. -1.
      611    1    1    2    0    0 -0.17145242165E-01 -0.69619117769E-02  0.14482106051E+01  0.14483289149E+01  0.51109989000E-03 0. -1.
</event>
<event>
 6   3  0.2312675E+03  0.9118800E+02  0.7818608E-02  0.1180000E+00
       11   -1    0    0    0    0  0.00000000000E+00  0.00000000000E+00  0.54999999763E+01  0.55000000000E+01  0.51109989000E-03 0. -1.
     -623   -1    0    0    0    0  0.00000000000E+00  0.00000000000E+00  0.93234578044E-11  0.17124000000E+03  0.17124000000E+03 0. -1.
       11    1    1    2    0    0  0.63015041613E-01  0.17967944396E-01  0.16261669821E+00  0.17532311387E+00  0.51109989000E-03 0. -1.
     -623    1    1    2    0    0 -0.53196091196E-02  0.18124747229E-01  0.13143139855E-01  0.17124000155E+03  0.17124000000E+03 0. -1.
     -611    1    1    2    0    0 -0.49708109428E-01 -0.31258382406E-01  0.46137697569E+01  0.46141434323E+01  0.51109989000E-03 0. -1.
      611    1    1    2    0    0 -0.79873230598E-02 -0.48343092160E-02  0.71047038072E+00  0.71053190708E+00  0.51109989000E-03 0.  1.
</event>
<event>
 6   3  0.2312675E+03  0.9118800E+02  0.7818608E-02  0.1180000E+00
       11   -1    0    0    0    0  0.00000000000E+00  0.00000000000E+00  0.54999999763E+01  0.55000000000E+01  0.51109989000E-03 0. -1.
     -623   -1    0    0    0    0  0.00000000000E+00  0.00000000000E+00  0.93234578044E-11  0.17124000000E+03  0.17124000000E+03 0.  1.
       11    1    1    2    0    0  0.15216805772E-02  0.62530508335E-04  0.49084597333E-02  0.51646511881E-02  0.51109989000E-03 0. -1.
     -623    1    1    2    0    0  0.24464731690E-02 -0.19948088634E-02  0.75682815479E-03  0.17124000003E+03  0.17124000000E+03 0.  1.
     -611    1    1    2    0    0 -0.37819663022E-01  0.10233255231E-01  0.27441563181E+01  0.27444360451E+01  0.51109989000E-03 0. -1.
      611    1    1    2    0    0  0.33851509276E-01 -0.83009768763E-02  0.27501783701E+01  0.27503992727E+01  0.51109989000E-03 0.  1.
</event>
<event>
 6   3  0.2312675E+03  0.9118800E+02  0.7818608E-02  0.1180000E+00
       11   -1    0    0    0    0  0.00000000000E+00  0.00000000000E+00  0.54999999763E+01  0.55000000000E+01  0.51109989000E-03 0. -1.
     -623   -1    0    0    0    0  0.00000000000E+00  0.00000000000E+00  0.93234578044E-11  0.17124000000E+03  0.17124000000E+03 0.  1.
       11    1    1    2    0    0 -0.36588276582E-01  0.44198217061E-02  0.10169154431E+01  0.10175831742E+01  0.51109989000E-03 0. -1.
     -623    1    1    2    0    0  0.10768488891E+00 -0.24155335996E-01  0.13114756097E-02  0.17124003557E+03  0.17124000000E+03 0.  1.
     -611    1    1    2    0    0 -0.48007542195E-01  0.14026129990E-01  0.30967537240E+01  0.30971576235E+01  0.51109989000E-03 0. -1.
      611    1    1    2    0    0 -0.23089070132E-01  0.57093843005E-02  0.13850193338E+01  0.13852236348E+01  0.51109989000E-03 0.  1.
</event>
<event>
 6   3  0.2312675E+03  0.9118800E+02  0.7818608E-02  0.1180000E+00
       11   -1    0    0    0    0  0.00000000000E+00  0.00000000000E+00  0.54999999763E+01  0.55000000000E+01  0.51109989000E-03 0.  1.
     -623   -1    0    0    0    0  0.00000000000E+00  0.00000000000E+00  0.93234578044E-11  0.17124000000E+03  0.17124000000E+03 0. -1.
       11    1    1    2    0    0  0.15256523047E-01 -0.33235987040E-02  0.60419762318E-01  0.62406864250E-01  0.51109989000E-03 0.  1.
     -623    1    1    2    0    0 -0.11508398671E-02  0.12254476865E-02  0.32102134731E-02  0.17124000004E+03  0.17124000000E+03 0. -1.
     -611    1    1    2    0    0 -0.53823046185E-01  0.16714311896E-01  0.16049028836E+01  0.16058922179E+01  0.51109989000E-03 0. -1.
      611    1    1    2    0    0  0.39717363005E-01 -0.14616160879E-01  0.38314671169E+01  0.38317008795E+01  0.51109989000E-03 0.  1.
</event>
<event>
 6   3  0.2312675E+03  0.9118800E+02  0.7818608E-02  0.1180000E+00
       11   -1    0    0    0    0  0.00000000000E+00  0.00000000000E+00  0.54999999763E+01  0.55000000000E+01  0.51109989000E-03 0. -1.
     -623   -1    0    0    0    0  0.00000000000E+00  0.00000000000E+00  0.93234578044E-11  0.17124000000E+03  0.17124000000E+03 0. -1.
       11    1    1    2    0    0  0.15536230283E-02 -0.30731213381E-01  0.55063583853E+00  0.55149515783E+00  0.51109989000E-03 0. -1.
     -623    1    1    2    0    0 -0.59944562014E-01  0.30980794983E-01  0.12172401973E-02  0.17124001330E+03  0.17124000000E+03 0. -1.
     -611    1    1    2    0    0  0.40977332819E-01 -0.21996272766E-03  0.34679836259E+01  0.34682257540E+01  0.51109989000E-03 0. -1.
      611    1    1    2    0    0  0.17413606108E-01 -0.29618874628E-04  0.14801632667E+01  0.14802657842E+01  0.51109989000E-03 0. -1.
</event>
<event>
 6   3  0.2312675E+03  0.9118800E+02  0.7818608E-02  0.1180000E+00
       11   -1    0    0    0    0  0.00000000000E+00  0.00000000000E+00  0.54999999763E+01  0.55000000000E+01  0.51109989000E-03 0. -1.
     -623   -1    0    0    0    0  0.00000000000E+00  0.00000000000E+00  0.93234578044E-11  0.17124000000E+03  0.17124000000E+03 0.  1.
       11    1    1    2    0    0 -0.23561327549E-02 -0.10242589633E-02  0.19777298303E-02  0.32822410579E-02  0.51109989000E-03 0. -1.
     -623    1    1    2    0    0  0.38680615238E-02  0.71318740880E-02  0.33391164750E-02  0.17124000022E+03  0.17124000000E+03 0.  1.
     -611    1    1    2    0    0 -0.56438377855E-01  0.25672202022E-01  0.42201975686E+01  0.42206530456E+01  0.51109989000E-03 0. -1.
      611    1    1    2    0    0  0.54926449086E-01 -0.31779817147E-01  0.12744855614E+01  0.12760644886E+01  0.51109989000E-03 0.  1.
</event>
<event>
 6   3  0.2312675E+03  0.9118800E+02  0.7818608E-02  0.1180000E+00
       11   -1    0    0    0    0  0.00000000000E+00  0.00000000000E+00  0.54999999763E+01  0.55000000000E+01  0.51109989000E-03 0. -1.
     -623   -1    0    0    0    0  0.00000000000E+00  0.00000000000E+00  0.93234578044E-11  0.17124000000E+03  0.17124000000E+03 0. -1.
       11    1    1    2    0    0 -0.54529285183E-01  0.14485140631E-01  0.78928902497E+00  0.79130315834E+00  0.51109989000E-03 0. -1.
     -623    1    1    2    0    0  0.48931388641E-02  0.18756475025E-01  0.23943054766E-02  0.17124000111E+03  0.17124000000E+03 0. -1.
     -611    1    1    2    0    0  0.24875297835E-01 -0.16673127516E-01  0.23660533621E+01  0.23662429180E+01  0.51109989000E-03 0. -1.
      611    1    1    2    0    0  0.24760848530E-01 -0.16568488171E-01  0.23422632880E+01  0.23424528141E+01  0.51109989000E-03 0. -1.
</event>
<event>
 6   3  0.2312675E+03  0.9118800E+02  0.7818608E-02  0.1180000E+00
       11   -1    0    0    0    0  0.00000000000E+00  0.00000000000E+00  0.54999999763E+01  0.55000000000E+01  0.51109989000E-03 0. -1.
     -623   -1    0    0    0    0  0.00000000000E+00  0.00000000000E+00  0.93234578044E-11  0.17124000000E+03  0.17124000000E+03 0.  1.
       11    1    1    2    0    0  0.46042592841E-01  0.81202670179E-02  0.24120801191E+00  0.24569783337E+00  0.51109989000E-03 0. -1.
     -623    1    1    2    0    0  0.14082075819E-01 -0.22657119541E-01  0.64982307269E-02  0.17124000220E+03  0.17124000000E+03 0.  1.
     -611    1    1    2    0    0  0.26463732384E-01 -0.36127846088E-01  0.15438132298E+01  0.15444627221E+01  0.51109989000E-03 0.  1.
      611    1    1    2    0    0 -0.86588401044E-01  0.50664698611E-01  0.37084805039E+01  0.37098372433E+01  0.51109989000E-03 0. -1.
</event>
<event>
 6   3  0.2312675E+03  0.9118800E+02  0.7818608E-02  0.1180000E+00
       11   -1    0    0    0    0  0.00000000000E+00  0.00000000000E+00  0.54999999763E+01  0.55000000000E+01  0.51109989000E-03 0.  1.
     -623   -1    0    0    0    0  0.00000000000E+00  0.00000000000E+00  0.93234578044E-11  0.17124000000E+03  0.17124000000E+03 0. -1.
       11    1    1    2    0    0 -0.13060505341E-02  0.14736011057E-01  0.55865836430E+00  0.55885443992E+00  0.51109989000E-03 0.  1.
     -623    1    1    2    0    0  0.54786292767E-01 -0.64215601464E-01  0.75443780882E-03  0.17124002081E+03  0.17124000000E+03 0. -1.
     -611    1    1    2    0    0 -0.20731842208E-01  0.20265221130E-01  0.19763420227E+01  0.19765547148E+01  0.51109989000E-03 0.  1.
      611    1    1    2    0    0 -0.32748400002E-01  0.29214369254E-01  0.29642451493E+01  0.29645700369E+01  0.51109989000E-03 0.  1.
</event>
<event>
 6   3  0.2312675E+03  0.9118800E+02  0.7818608E-02  0.1180000E+00
       11   -1    0    0    0    0  0.00000000000E+00  0.00000000000E+00  0.54999999763E+01  0.55000000000E+01  0.51109989000E-03 0.  1.
     -623   -1    0    0    0    0  0.00000000000E+00  0.00000000000E+00  0.93234578044E-11  0.17124000000E+03  0.17124000000E+03 0. -1.
       11    1    1    2    0    0 -0.66301394567E-02 -0.41645000693E-02  0.28215863278E+00  0.28226770464E+00  0.51109989000E-03 0.  1.
     -623    1    1    2    0    0  0.96762548781E-01  0.61432387504E-01  0.12412651199E-02  0.17124003836E+03  0.17124000000E+03 0. -1.
     -611    1    1    2    0    0 -0.88946641274E-02 -0.65628741982E-02  0.55490709006E+00  0.55501741071E+00  0.51109989000E-03 0.  1.
      611    1    1    2    0    0 -0.81237745547E-01 -0.50705013458E-01  0.46616930082E+01  0.46626765418E+01  0.51109989000E-03 0.  1.
</event>
<event>
 6   3  0.2312675E+03  0.9118800E+02  0.7818608E-02  0.1180000E+00
       11   -1    0    0    0    0  0.00000000000E+00  0.00000000000E+00  0.54999999763E+01  0.55000000000E+01  0.51109989000E-03 0. -1.
     -623   -1    0    0    0    0  0.00000000000E+00  0.00000000000E+00  0.93234578044E-11  0.17124000000E+03  0.17124000000E+03 0. -1.
       11    1    1    2    0    0  0.63707995710E-01 -0.17307498856E-01  0.30587096917E+00  0.31291463571E+00  0.51109989000E-03 0. -1.
     -623    1    1    2    0    0  0.21477481979E-01 -0.12460973918E-01  0.78328488627E-02  0.17124000198E+03  0.17124000000E+03 0. -1.
     -611    1    1    2    0    0 -0.60214440389E-01  0.18840677529E-01  0.35867303909E+01  0.35872853118E+01  0.51109989000E-03 0.  1.
      611    1    1    2    0    0 -0.24971037306E-01  0.10927795247E-01  0.15995657678E+01  0.15997980735E+01  0.51109989000E-03 0. -1.
</event>
<event>
 6   3  0.2312675E+03  0.9118800E+02  0.7818608E-02  0.1180000E+00
       11   -1    0    0    0    0  0.00000000000E+00  0.00000000000E+00  0.54999999763E+01  0.55000000000E+01  0.51109989000E-03 0.  1.
     -623   -1    0    0    0    0  0.00000000000E+00  0.00000000000E+00  0.93234578044E-11  0.17124000000E+03  0.17124000000E+03 0. -1.
       11    1    1    2    0    0  0.88912308028E-01 -0.23770983546E-02  0.89355959648E+00  0.89797553575E+00  0.51109989000E-03 0.  1.
     -623    1    1    2    0    0  0.25768214709E-01  0.21902386741E-01  0.58903511299E-02  0.17124000344E+03  0.17124000000E+03 0. -1.
     -611    1    1    2    0    0 -0.28568092353E-01 -0.41583447080E-02  0.11465746154E+01  0.11469381141E+01  0.51109989000E-03 0.  1.
      611    1    1    2    0    0 -0.86112430312E-01 -0.15366943666E-01  0.34539754104E+01  0.34550829065E+01  0.51109989000E-03 0.  1.
</event>
<event>
 6   3  0.2312675E+03  0.9118800E+02  0.7818608E-02  0.1180000E+00
       11   -1    0    0    0    0  0.00000000000E+00  0.00000000000E+00  0.54999999763E+01  0.55000000000E+01  0.51109989000E-03 0.  1.
     -623   -1    0    0    0    0  0.00000000000E+00  0.00000000000E+00  0.93234578044E-11  0.17124000000E+03  0.17124000000E+03 0.  1.
       11    1    1    2    0    0  0.34954021046E-01  0.15150431615E-01  0.88887566478E+00  0.88969181621E+00  0.51109989000E-03 0.  1.
     -623    1    1    2    0    0  0.18383094551E-01 -0.50439048975E-02  0.11399698591E-02  0.17124000106E+03  0.17124000000E+03 0.  1.
     -611    1    1    2    0    0 -0.24827144816E-01 -0.45737061178E-02  0.19223181751E+01  0.19224840009E+01  0.51109989000E-03 0.  1.
      611    1    1    2    0    0 -0.28509970781E-01 -0.55328205993E-02  0.26876661666E+01  0.26878231182E+01  0.51109989000E-03 0. -1.
</event>
<event>
 6   3  0.2312675E+03  0.9118800E+02  0.7818608E-02  0.1180000E+00
       11   -1    0    0    0    0  0.00000000000E+00  0.00000000000E+00  0.54999999763E+01  0.55000000000E+01  0.51109989000E-03 0.  1.
     -623   -1    0    0    0    0  0.00000000000E+00  0.00000000000E+00  0.93234578044E-11  0.17124000000E+03  0.17124000000E+03 0.  1.
       11    1    1    2    0    0 -0.12205029432E+00  0.52391834892E-01  0.92841644452E+00  0.93786914566E+00  0.51109989000E-03 0.  1.
     -623    1    1    2    0    0 -0.45097555724E-02 -0.11780172094E-01  0.12044703331E-01  0.17124000089E+03  0.17124000000E+03 0.  1.
     -611    1    1    2    0    0  0.60435389631E-01 -0.29421332603E-01  0.11711145015E+01  0.11730419805E+01  0.51109989000E-03 0.  1.
      611    1    1    2    0    0  0.66124660262E-01 -0.11190330195E-01  0.33884243269E+01  0.33890879857E+01  0.51109989000E-03 0. -1.
</event>
<event>
 6   3  0.2312675E+03  0.9118800E+02  0.7818608E-02  0.1180000E+00
       11   -1    0    0    0    0  0.00000000000E+00  0.00000000000E+00  0.54999999763E+01  0.55000000000E+01  0.51109989000E-03 0.  1.
     -623   -1    0    0    0    0  0.00000000000E+00  0.00000000000E+00  0.93234578044E-11  0.17124000000E+03  0.17124000000E+03 0. -1.
       11    1    1    2    0    0 -0.10790890973E-01 -0.13858901293E-01  0.33300868826E-02  0.17884719030E-01  0.51109989000E-03 0.  1.
     -623    1    1    2    0    0  0.83030714022E-02 -0.10794217093E-01  0.17503732028E-01  0.17124000144E+03  0.17124000000E+03 0. -1.
     -611    1    1    2    0    0  0.76696467055E-01  0.60111125809E-01  0.29021009708E+01  0.29037365586E+01  0.51109989000E-03 0. -1.
      611    1    1    2    0    0 -0.74208647485E-01 -0.35458007423E-01  0.25770651865E+01  0.25783772863E+01  0.51109989000E-03 0.  1.
</event>
<event>
 6   3  0.2312675E+03  0.9118800E+02  0.7818608E-02  0.1180000E+00
       11   -1    0    0    0    0  0.00000000000E+00  0.00000000000E+00  0.54999999763E+01  0.55000000000E+01  0.51109989000E-03 0.  1.
     -623   -1    0    0    0    0  0.00000000000E+00  0.00000000000E+00  0.93234578044E-11  0.17124000000E+03  0.17124000000E+03 0. -1.
       11    1    1    2    0    0 -0.51037474134E-01  0.50825069941E-01  0.45874191196E+00  0.46436237414E+00  0.51109989000E-03 0.  1.
     -623    1    1    2    0    0 -0.13852744066E-01  0.53826910624E-02  0.63544553846E-02  0.17124000076E+03  0.17124000000E+03 0. -1.
     -611    1    1    2    0    0  0.34134358234E-01 -0.29721548746E-01  0.25482572526E+01  0.25486592184E+01  0.51109989000E-03 0.  1.
      611    1    1    2    0    0  0.30755859965E-01 -0.26486212257E-01  0.24866463563E+01  0.24869776446E+01  0.51109989000E-03 0. -1.
</event>
<event>
 6   3  0.2312675E+03  0.9118800E+02  0.7818608E-02  0.1180000E+00
       11   -1    0    0    0    0  0.00000000000E+00  0.00000000000E+00  0.54999999763E+01  0.55000000000E+01  0.51109989000E-03 0.  1.
     -623   -1    0    0    0    0  0.00000000000E+00  0.00000000000E+00  0.93234578044E-11  0.17124000000E+03  0.17124000000E+03 0. -1.
       11    1    1    2    0    0 -0.32417013230E-03  0.69106441356E-02  0.70409468514E+00  0.70412885821E+00  0.51109989000E-03 0.  1.
     -623    1    1    2    0    0  0.32320600921E-02  0.13882794944E-02  0.84664268939E-03  0.17124000004E+03  0.17124000000E+03 0. -1.
     -611    1    1    2    0    0 -0.45158760472E-01 -0.22431423074E-02  0.22466484190E+01  0.22471034078E+01  0.51109989000E-03 0. -1.
      611    1    1    2    0    0  0.42250870512E-01 -0.60557813226E-02  0.25484102293E+01  0.25487676957E+01  0.51109989000E-03 0.  1.
</event>
<event>
 6   3  0.2312675E+03  0.9118800E+02  0.7818608E-02  0.1180000E+00
       11   -1    0    0    0    0  0.00000000000E+00  0.00000000000E+00  0.54999999763E+01  0.55000000000E+01  0.51109989000E-03 0.  1.
     -623   -1    0    0    0    0  0.00000000000E+00  0.00000000000E+00  0.93234578044E-11  0.17124000000E+03  0.17124000000E+03 0.  1.
       11    1    1    2    0    0 -0.74579897684E-02 -0.33457882940E-02  0.87361134522E+00  0.87364973510E+00  0.51109989000E-03 0.  1.
     -623    1    1    2    0    0 -0.39889450779E-01 -0.22406434248E-02  0.29156661209E-03  0.17124000466E+03  0.17124000000E+03 0.  1.
     -611    1    1    2    0    0  0.87127593520E-02  0.28181457825E-02  0.80893123991E+00  0.80898322990E+00  0.51109989000E-03 0. -1.
      611    1    1    2    0    0  0.38634681198E-01  0.27682859364E-02  0.38171658249E+01  0.38173623745E+01  0.51109989000E-03 0.  1.
</event>
<event>
 6   3  0.2312675E+03  0.9118800E+02  0.7818608E-02  0.1180000E+00
       11   -1    0    0    0    0  0.00000000000E+00  0.00000000000E+00  0.54999999763E+01  0.55000000000E+01  0.51109989000E-03 0.  1.
     -623   -1    0    0    0    0  0.00000000000E+00  0.00000000000E+00  0.93234578044E-11  0.17124000000E+03  0.17124000000E+03 0. -1.
       11    1    1    2    0    0  0.86813591846E-01 -0.24406002208E-01  0.24938094614E+00  0.26518553918E+00  0.51109989000E-03 0.  1.
     -623    1    1    2    0    0 -0.50884166398E-02 -0.14420900910E-01  0.16589423823E-01  0.17124000149E+03  0.17124000000E+03 0. -1.
     -611    1    1    2    0    0 -0.59206335908E-01  0.29603779678E-01  0.38779485138E+01  0.38785134667E+01  0.51109989000E-03 0.  1.
      611    1    1    2    0    0 -0.22518839285E-01  0.92231234331E-02  0.13560810917E+01  0.13562995069E+01  0.51109989000E-03 0. -1.
</event>
<event>
 6   3  0.2312675E+03  0.9118800E+02  0.7818608E-02  0.1180000E+00
       11   -1    0    0    0    0  0.00000000000E+00  0.00000000000E+00  0.54999999763E+01  0.55000000000E+01  0.51109989000E-03 0.  1.
     -623   -1    0    0    0    0  0.00000000000E+00  0.00000000000E+00  0.93234578044E-11  0.17124000000E+03  0.17124000000E+03 0. -1.
       11    1    1    2    0    0  0.78071174051E-02 -0.11802438158E-01  0.10155468516E+01  0.10156455670E+01  0.51109989000E-03 0.  1.
     -623    1    1    2    0    0  0.11036655323E-02  0.16091293660E-02  0.56060825454E-03  0.17124000001E+03  0.17124000000E+03 0. -1.
     -611    1    1    2    0    0  0.24422032330E-01 -0.78006154687E-02  0.21748437273E+01  0.21749948930E+01  0.51109989000E-03 0. -1.
      611    1    1    2    0    0 -0.33332815267E-01  0.17993924261E-01  0.23090487892E+01  0.23093595281E+01  0.51109989000E-03 0.  1.
</event>
<event>
 6   3  0.2312675E+03  0.9118800E+02  0.7818608E-02  0.1180000E+00
       11   -1    0    0    0    0  0.00000000000E+00  0.00000000000E+00  0.54999999763E+01  0.55000000000E+01  0.51109989000E-03 0.  1.
     -623   -1    0    0    0    0  0.00000000000E+00  0.00000000000E+00  0.93234578044E-11  0.17124000000E+03  0.17124000000E+03 0.  1.
       11    1    1    2    0    0  0.64896492230E-02 -0.55042288611E-02  0.48098425371E+00  0.48105979423E+00  0.51109989000E-03 0.  1.
     -623    1    1    2    0    0 -0.65164804752E-01 -0.34806155190E-01  0.59969064415E-03  0.17124001594E+03  0.17124000000E+03 0.  1.
     -611    1    1    2    0    0  0.27316204204E-01  0.15453555428E-01  0.21530815250E+01  0.21533103125E+01  0.51109989000E-03 0. -1.
      611    1    1    2    0    0  0.31358951311E-01  0.24856828615E-01  0.28653345057E+01  0.28656139545E+01  0.51109989000E-03 0.  1.
</event>
<event>
 6   3  0.2312675E+03  0.9118800E+02  0.7818608E-02  0.1180000E+00
       11   -1    0    0    0    0  0.00000000000E+00  0.00000000000E+00  0.54999999763E+01  0.55000000000E+01  0.51109989000E-03 0.  1.
     -623   -1    0    0    0    0  0.00000000000E+00  0.00000000000E+00  0.93234578044E-11  0.17124000000E+03  0.17124000000E+03 0.  1.
       11    1    1    2    0    0  0.22170327380E-01 -0.15404915515E-01  0.28824101467E-01  0.39495884427E-01  0.51109989000E-03 0.  1.
     -623    1    1    2    0    0 -0.11197544526E+00  0.10404520838E-01  0.11451015039E-01  0.17124003731E+03  0.17124000000E+03 0.  1.
     -611    1    1    2    0    0  0.25320137219E-01  0.24759046207E-02  0.14815160463E+01  0.14817345566E+01  0.51109989000E-03 0. -1.
      611    1    1    2    0    0  0.64484980683E-01  0.25244900579E-02  0.39782088150E+01  0.39787322507E+01  0.51109989000E-03 0.  1.
</event>
<event>
 6   3  0.2312675E+03  0.9118800E+02  0.7818608E-02  0.1180000E+00
       11   -1    0    0    0    0  0.00000000000E+00  0.00000000000E+00  0.54999999763E+01  0.55000000000E+01  0.51109989000E-03 0.  1.
     -623   -1    0    0    0    0  0.00000000000E+00  0.00000000000E+00  0.93234578044E-11  0.17124000000E+03  0.17124000000E+03 0.  1.
       11    1    1    2    0    0 -0.94173297668E-02 -0.38810321661E-01  0.76725798357E+00  0.76829681878E+00  0.51109989000E-03 0.  1.
     -623    1    1    2    0    0 -0.26745154831E-02  0.20128696616E-03  0.17801910748E-02  0.17124000003E+03  0.17124000000E+03 0.  1.
     -611    1    1    2    0    0 -0.22280234927E-01 -0.59490899601E-02  0.21726204402E+01  0.21727428838E+01  0.51109989000E-03 0.  1.
      611    1    1    2    0    0  0.34372080177E-01  0.44558124655E-01  0.25583413614E+01  0.25589602672E+01  0.51109989000E-03 0. -1.
</event>
<event>
 6   3  0.2312675E+03  0.9118800E+02  0.7818608E-02  0.1180000E+00
       11   -1    0    0    0    0  0.00000000000E+00  0.00000000000E+00  0.54999999763E+01  0.55000000000E+01  0.51109989000E-03 0. -1.
     -623   -1    0    0    0    0  0.00000000000E+00  0.00000000000E+00  0.93234578044E-11  0.17124000000E+03  0.17124000000E+03 0.  1.
       11    1    1    2    0    0 -0.14094376246E-02  0.11185986833E-01  0.79846973982E+00  0.79854949718E+00  0.51109989000E-03 0. -1.
     -623    1    1    2    0    0  0.39641902101E-02 -0.40678574472E-02  0.14388570714E-02  0.17124000010E+03  0.17124000000E+03 0.  1.
     -611    1    1    2    0    0 -0.38342768280E-01 -0.33804396332E-01  0.12172840853E+01  0.12183569717E+01  0.51109989000E-03 0. -1.
      611    1    1    2    0    0  0.35788015695E-01  0.26686266946E-01  0.34828072942E+01  0.34830934309E+01  0.51109989000E-03 0.  1.
</event>
<event>
 6   3  0.2312675E+03  0.9118800E+02  0.7818608E-02  0.1180000E+00
       11   -1    0    0    0    0  0.00000000000E+00  0.00000000000E+00  0.54999999763E+01  0.55000000000E+01  0.51109989000E-03 0.  1.
     -623   -1    0    0    0    0  0.00000000000E+00  0.00000000000E+00  0.93234578044E-11  0.17124000000E+03  0.17124000000E+03 0. -1.
       11    1    1    2    0    0  0.37639100724E-02 -0.43049658557E-02  0.50502642543E-02  0.76463155956E-02  0.51109989000E-03 0.  1.
     -623    1    1    2    0    0  0.51356009411E-04  0.58161589917E-02  0.31106631917E-02  0.17124000013E+03  0.17124000000E+03 0. -1.
     -611    1    1    2    0    0  0.35304859096E-01 -0.45869992674E-02  0.28690446979E+01  0.28692656227E+01  0.51109989000E-03 0. -1.
      611    1    1    2    0    0 -0.39120125178E-01  0.30758061313E-02  0.26227943509E+01  0.26230879347E+01  0.51109989000E-03 0.  1.
</event>
<event>
 6   3  0.2312675E+03  0.9118800E+02  0.7818608E-02  0.1180000E+00
       11   -1    0    0    0    0  0.00000000000E+00  0.00000000000E+00  0.54999999763E+01  0.55000000000E+01  0.51109989000E-03 0.  1.
     -623   -1    0    0    0    0  0.00000000000E+00  0.00000000000E+00  0.93234578044E-11  0.17124000000E+03  0.17124000000E+03 0.  1.
       11    1    1    2    0    0  0.38332464860E-01 -0.63338614828E-01  0.46480823049E+00  0.47066772818E+00  0.51109989000E-03 0.  1.
     -623    1    1    2    0    0 -0.25838310759E-01  0.48609414353E-01  0.95423103481E-02  0.17124000911E+03  0.17124000000E+03 0.  1.
     -611    1    1    2    0    0  0.41907271746E-01  0.72090683606E-01  0.12170941973E+01  0.12199474712E+01  0.51109989000E-03 0. -1.
      611    1    1    2    0    0 -0.54401425846E-01 -0.57361483131E-01  0.38085552381E+01  0.38093756861E+01  0.51109989000E-03 0.  1.
</event>
<event>
 6   3  0.2312675E+03  0.9118800E+02  0.7818608E-02  0.1180000E+00
       11   -1    0    0    0    0  0.00000000000E+00  0.00000000000E+00  0.54999999763E+01  0.55000000000E+01  0.51109989000E-03 0. -1.
     -623   -1    0    0    0    0  0.00000000000E+00  0.00000000000E+00  0.93234578044E-11  0.17124000000E+03  0.17124000000E+03 0. -1.
       11    1    1    2    0    0 -0.15614115248E-01 -0.18273742489E-01  0.42729631946E+00  0.42797212072E+00  0.51109989000E-03 0. -1.
     -623    1    1    2    0    0 -0.55976952549E-01  0.25272708759E-01  0.11986202520E-02  0.17124001102E+03  0.17124000000E+03 0. -1.
     -611    1    1    2    0    0  0.52813684129E-01 -0.60084541004E-02  0.36340276030E+01  0.36344163585E+01  0.51109989000E-03 0. -1.
      611    1    1    2    0    0  0.18777383674E-01 -0.99051217049E-03  0.14374774339E+01  0.14376005028E+01  0.51109989000E-03 0. -1.
</event>
<event>
 6   3  0.2312675E+03  0.9118800E+02  0.7818608E-02  0.1180000E+00
       11   -1    0    0    0    0  0.00000000000E+00  0.00000000000E+00  0.54999999763E+01  0.55000000000E+01  0.51109989000E-03 0. -1.
     -623   -1    0    0    0    0  0.00000000000E+00  0.00000000000E+00  0.93234578044E-11  0.17124000000E+03  0.17124000000E+03 0. -1.
       11    1    1    2    0    0  0.53819598154E-02  0.15207246129E-02  0.22211821574E-01  0.22910790810E-01  0.51109989000E-03 0. -1.
     -623    1    1    2    0    0 -0.92074419899E-02 -0.18222292741E-02  0.16282992084E-02  0.17124000026E+03  0.17124000000E+03 0. -1.
     -611    1    1    2    0    0  0.47304356186E-01  0.18858106256E-01  0.22084403113E+01  0.22090274331E+01  0.51109989000E-03 0.  1.
      611    1    1    2    0    0 -0.43478874011E-01 -0.18556601595E-01  0.32677195442E+01  0.32680615111E+01  0.51109989000E-03 0. -1.
</event>
<event>
 6   3  0.2312675E+03  0.9118800E+02  0.7818608E-02  0.1180000E+00
       11   -1    0    0    0    0  0.00000000000E+00  0.00000000000E+00  0.54999999763E+01  0.55000000000E+01  0.51109989000E-03 0.  1.
     -623   -1    0    0    0    0  0.00000000000E+00  0.00000000000E+00  0.93234578044E-11  0.17124000000E+03  0.17124000000E+03 0.  1.
       11    1    1    2    0    0  0.38579445158E-01  0.19580258766E-01  0.51465703417E+00  0.51647253961E+00  0.51109989000E-03 0.  1.
     -623    1    1    2    0    0  0.25291026992E-01  0.61398275317E-02  0.22986306526E-02  0.17124000199E+03  0.17124000000E+03 0.  1.
     -611    1    1    2    0    0 -0.33826004441E-01 -0.16933438015E-01  0.25854749667E+01  0.25857517291E+01  0.51109989000E-03 0. -1.
      611    1    1    2    0    0 -0.30044467709E-01 -0.87866482821E-02  0.23975693446E+01  0.23977737380E+01  0.51109989000E-03 0.  1.
</event>
<event>
 6   3  0.2312675E+03  0.9118800E+02  0.7818608E-02  0.1180000E+00
       11   -1    0    0    0    0  0.00000000000E+00  0.00000000000E+00  0.54999999763E+01  0.55000000000E+01  0.51109989000E-03 0. -1.
     -623   -1    0    0    0    0  0.00000000000E+00  0.00000000000E+00  0.93234578044E-11  0.17124000000E+03  0.17124000000E+03 0. -1.
       11    1    1    2    0    0  0.38497184934E-01  0.19063085515E-01  0.10144775414E+01  0.10153868119E+01  0.51109989000E-03 0. -1.
     -623    1    1    2    0    0  0.28498150743E-01 -0.32028716283E-01  0.14428268719E-02  0.17124000537E+03  0.17124000000E+03 0. -1.
     -611    1    1    2    0    0 -0.54591961534E-01  0.10209280842E-01  0.38511465451E+01  0.38515470248E+01  0.51109989000E-03 0. -1.
      611    1    1    2    0    0 -0.12403374145E-01  0.27563499269E-02  0.63293306312E+00  0.63306079074E+00  0.51109989000E-03 0.  1.
</event>
<event>
 6   3  0.2312675E+03  0.9118800E+02  0.7818608E-02  0.1180000E+00
       11   -1    0    0    0    0  0.00000000000E+00  0.00000000000E+00  0.54999999763E+01  0.55000000000E+01  0.51109989000E-03 0. -1.
     -623   -1    0    0    0    0  0.00000000000E+00  0.00000000000E+00  0.93234578044E-11  0.17124000000E+03  0.17124000000E+03 0.  1.
       11    1    1    2    0    0 -0.32035956020E-01  0.73194106291E-04  0.10832185584E+01  0.10836923061E+01  0.51109989000E-03 0. -1.
     -623    1    1    2    0    0 -0.15101701583E-01  0.60303932980E-03  0.72643584531E-03  0.17124000067E+03  0.17124000000E+03 0.  1.
     -611    1    1    2    0    0  0.31326375452E-01  0.29768075956E-03  0.29227866700E+01  0.29229546028E+01  0.51109989000E-03 0. -1.
      611    1    1    2    0    0  0.15811282160E-01 -0.97391419578E-03  0.14932683128E+01  0.14933524234E+01  0.51109989000E-03 0.  1.
</event>
<event>
 6   3  0.2312675E+03  0.9118800E+02  0.7818608E-02  0.1180000E+00
       11   -1    0    0    0    0  0.00000000000E+00  0.00000000000E+00  0.54999999763E+01  0.55000000000E+01  0.51109989000E-03 0.  1.
     -623   -1    0    0    0    0  0.00000000000E+00  0.00000000000E+00  0.93234578044E-11  0.17124000000E+03  0.17124000000E+03 0.  1.
       11    1    1    2    0    0  0.93044919094E-03 -0.86696690564E-02  0.46155577422E-01  0.46974753299E-01  0.51109989000E-03 0.  1.
     -623    1    1    2    0    0 -0.30266528462E-02  0.24917781083E-01  0.13048692249E-02  0.17124000184E+03  0.17124000000E+03 0.  1.
     -611    1    1    2    0    0 -0.33442731175E-01 -0.10401192041E-01  0.32580181277E+01  0.32582064058E+01  0.51109989000E-03 0.  1.
      611    1    1    2    0    0  0.35538934830E-01 -0.58469199862E-02  0.21945214020E+01  0.21948169964E+01  0.51109989000E-03 0. -1.
</event>
<event>
 6   3  0.2312675E+03  0.9118800E+02  0.7818608E-02  0.1180000E+00
       11   -1    0    0    0    0  0.00000000000E+00  0.00000000000E+00  0.54999999763E+01  0.55000000000E+01  0.51109989000E-03 0. -1.
     -623   -1    0    0    0    0  0.00000000000E+00  0.00000000000E+00  0.93234578044E-11  0.17124000000E+03  0.17124000000E+03 0. -1.
       11    1    1    2    0    0 -0.49289695557E-01  0.42830067494E-01  0.97996149762E+00  0.98213476000E+00  0.51109989000E-03 0. -1.
     -623    1    1    2    0    0  0.36432231007E-01 -0.47897337971E-01  0.30444680975E-02  0.17124001060E+03  0.17124000000E+03 0. -1.
     -611    1    1    2    0    0 -0.27029000920E-01  0.27983213920E-01  0.14762783883E+01  0.14767910374E+01  0.51109989000E-03 0. -1.
      611    1    1    2    0    0  0.39886465471E-01 -0.22915943444E-01  0.30407156222E+01  0.30410636013E+01  0.51109989000E-03 0.  1.
</event>
<event>
 6   3  0.2312675E+03  0.9118800E+02  0.7818608E-02  0.1180000E+00
       11   -1    0    0    0    0  0.00000000000E+00  0.00000000000E+00  0.54999999763E+01  0.55000000000E+01  0.51109989000E-03 0. -1.
     -623   -1    0    0    0    0  0.00000000000E+00  0.00000000000E+00  0.93234578044E-11  0.17124000000E+03  0.17124000000E+03 0.  1.
       11    1    1    2    0    0 -0.12060025176E-01  0.18980303167E-01  0.22520743244E-01  0.31829879279E-01  0.51109989000E-03 0. -1.
     -623    1    1    2    0    0 -0.32492657805E-01 -0.31210544285E-01  0.13168824501E-01  0.17124000643E+03  0.17124000000E+03 0.  1.
     -611    1    1    2    0    0 -0.42034931668E-01  0.62053250231E-01  0.10280671138E+01  0.10307957087E+01  0.51109989000E-03 0.  1.
      611    1    1    2    0    0  0.86587614649E-01 -0.49823009113E-01  0.44362432947E+01  0.44373679787E+01  0.51109989000E-03 0. -1.
</event>
<event>
 6   3  0.3407082E+03  0.9118800E+02  0.7818608E-02  0.1180000E+00
       11   -1    0    0    0    0  0.00000000000E+00  0.00000000000E+00  0.54999999763E+01  0.55000000000E+01  0.51109989000E-03 0. -1.
     -623   -1    0    0    0    0  0.00000000000E+00  0.00000000000E+00  0.93234578044E-11  0.17124000000E+03  0.17124000000E+03 0. -1.
       11    1    1    2    0    0  0.34085609157E-03 -0.51554624594E-02  0.17879997197E-01  0.18618552546E-01  0.51109989000E-03 0. -1.
     -623    1    1    2    0    0  0.10950339580E-02  0.64356914798E-02  0.10484706121E-02  0.17124000013E+03  0.17124000000E+03 0. -1.
     -611    1    1    2    0    0  0.28123817538E-01  0.33572691943E-02  0.27440131780E+01  0.27441593982E+01  0.51109989000E-03 0. -1.
      611    1    1    2    0    0 -0.29559707588E-01 -0.46374982147E-02  0.27370583305E+01  0.27372219216E+01  0.51109989000E-03 0.  1.
</event>
<event>
 6   3  0.2312675E+03  0.9118800E+02  0.7818608E-02  0.1180000E+00
       11   -1    0    0    0    0  0.00000000000E+00  0.00000000000E+00  0.54999999763E+01  0.55000000000E+01  0.51109989000E-03 0.  1.
     -623   -1    0    0    0    0  0.00000000000E+00  0.00000000000E+00  0.93234578044E-11  0.17124000000E+03  0.17124000000E+03 0. -1.
       11    1    1    2    0    0 -0.24125487419E-01  0.99259443507E-02  0.39681883454E+00  0.39767576263E+00  0.51109989000E-03 0.  1.
     -623    1    1    2    0    0  0.69060815602E-02  0.65900435266E-02  0.15415021715E-02  0.17124000027E+03  0.17124000000E+03 0. -1.
     -611    1    1    2    0    0  0.42950279790E-01 -0.52032582750E-02  0.42504403495E+01  0.42506605635E+01  0.51109989000E-03 0.  1.
      611    1    1    2    0    0 -0.25730873931E-01 -0.11312729602E-01  0.85119929022E+00  0.85166340101E+00  0.51109989000E-03 0. -1.
</event>
<event>
 6   3  0.2312675E+03  0.9118800E+02  0.7818608E-02  0.1180000E+00
       11   -1    0    0    0    0  0.00000000000E+00  0.00000000000E+00  0.54999999763E+01  0.55000000000E+01  0.51109989000E-03 0.  1.
     -623   -1    0    0    0    0  0.00000000000E+00  0.00000000000E+00  0.93234578044E-11  0.17124000000E+03  0.17124000000E+03 0.  1.
       11    1    1    2    0    0  0.36979990238E-01 -0.17306288014E-01  0.14296948454E+00  0.14868611911E+00  0.51109989000E-03 0.  1.
     -623    1    1    2    0    0 -0.29994955446E+00  0.53403394499E-01  0.14569746961E-01  0.17124027165E+03  0.17124000000E+03 0.  1.
     -611    1    1    2    0    0  0.85861014993E-01 -0.11651919847E-01  0.31875023263E+01  0.31886798558E+01  0.51109989000E-03 0. -1.
      611    1    1    2    0    0  0.17710854923E+00 -0.24445186637E-01  0.21549584184E+01  0.21623623775E+01  0.51109989000E-03 0.  1.
</event>
<event>
 6   3  0.2312675E+03  0.9118800E+02  0.7818608E-02  0.1180000E+00
       11   -1    0    0    0    0  0.00000000000E+00  0.00000000000E+00  0.54999999763E+01  0.55000000000E+01  0.51109989000E-03 0. -1.
     -623   -1    0    0    0    0  0.00000000000E+00  0.00000000000E+00  0.93234578044E-11  0.17124000000E+03  0.17124000000E+03 0.  1.
       11    1    1    2    0    0  0.27138709637E-01 -0.95498724342E-02  0.75129869847E+00  0.75184952296E+00  0.51109989000E-03 0. -1.
     -623    1    1    2    0    0  0.29448735628E-01 -0.96150470839E-02  0.92972881810E-03  0.17124000280E+03  0.17124000000E+03 0.  1.
     -611    1    1    2    0    0 -0.17720495719E-01  0.55972142228E-02  0.14972011108E+01  0.14973165237E+01  0.51109989000E-03 0. -1.
      611    1    1    2    0    0 -0.38866949530E-01  0.13567705290E-01  0.32505704369E+01  0.32508311473E+01  0.51109989000E-03 0. -1.
</event>
<event>
 6   3  0.2312675E+03  0.9118800E+02  0.7818608E-02  0.1180000E+00
       11   -1    0    0    0    0  0.00000000000E+00  0.00000000000E+00  0.54999999763E+01  0.55000000000E+01  0.51109989000E-03 0. -1.
     -623   -1    0    0    0    0  0.00000000000E+00  0.00000000000E+00  0.93234578044E-11  0.17124000000E+03  0.17124000000E+03 0. -1.
       11    1    1    2    0    0 -0.50946494523E-01 -0.84566831942E-01  0.53619794922E+00  0.54521151523E+00  0.51109989000E-03 0. -1.
     -623    1    1    2    0    0 -0.21342051275E-01 -0.10256529578E-01  0.10480526860E-01  0.17124000196E+03  0.17124000000E+03 0. -1.
     -611    1    1    2    0    0  0.52640854248E-01  0.74442631615E-01  0.40288118451E+01  0.40298434100E+01  0.51109989000E-03 0. -1.
      611    1    1    2    0    0  0.19647691551E-01  0.20380729905E-01  0.92450965513E+00  0.92494311694E+00  0.51109989000E-03 0.  1.
</event>
<event>
 6   3  0.2312675E+03  0.9118800E+02  0.7818608E-02  0.1180000E+00
       11   -1    0    0    0    0  0.00000000000E+00  0.00000000000E+00  0.54999999763E+01  0.55000000000E+01  0.51109989000E-03 0. -1.
     -623   -1    0    0    0    0  0.00000000000E+00  0.00000000000E+00  0.93234578044E-11  0.17124000000E+03  0.17124000000E+03 0. -1.
       11    1    1    2    0    0  0.62812061483E-03  0.61965640298E-02  0.12971890820E-01  0.14398719242E-01  0.51109989000E-03 0. -1.
     -623    1    1    2    0    0 -0.22950446305E-02  0.41737971870E-03  0.24260136834E-02  0.17124000003E+03  0.17124000000E+03 0. -1.
     -611    1    1    2    0    0 -0.32382851795E-01 -0.42017057053E-01  0.22446618208E+01  0.22452886303E+01  0.51109989000E-03 0. -1.
      611    1    1    2    0    0  0.34049775810E-01  0.35403113304E-01  0.32399402509E+01  0.32403126174E+01  0.51109989000E-03 0.  1.
</event>
<event>
 6   3  0.2312675E+03  0.9118800E+02  0.7818608E-02  0.1180000E+00
       11   -1    0    0    0    0  0.00000000000E+00  0.00000000000E+00  0.54999999763E+01  0.55000000000E+01  0.51109989000E-03 0. -1.
     -623   -1    0    0    0    0  0.00000000000E+00  0.00000000000E+00  0.93234578044E-11  0.17124000000E+03  0.17124000000E+03 0. -1.
       11    1    1    2    0    0  0.50646856202E-02  0.18103815831E-02  0.30602137350E-02  0.62092393342E-02  0.51109989000E-03 0. -1.
     -623    1    1    2    0    0 -0.50394658257E-02 -0.37337651332E-02  0.49120993061E-02  0.17124000019E+03  0.17124000000E+03 0. -1.
     -611    1    1    2    0    0  0.33019333574E-01  0.62186004632E-01  0.27269188173E+01  0.27278276839E+01  0.51109989000E-03 0. -1.
      611    1    1    2    0    0 -0.33044553369E-01 -0.60262621082E-01  0.27651088459E+01  0.27659628915E+01  0.51109989000E-03 0.  1.
</event>
<event>
 6   3  0.2312675E+03  0.9118800E+02  0.7818608E-02  0.1180000E+00
       11   -1    0    0    0    0  0.00000000000E+00  0.00000000000E+00  0.54999999763E+01  0.55000000000E+01  0.51109989000E-03 0.  1.
     -623   -1    0    0    0    0  0.00000000000E+00  0.00000000000E+00  0.93234578044E-11  0.17124000000E+03  0.17124000000E+03 0.  1.
       11    1    1    2    0    0 -0.26276667526E-01 -0.29270426587E-01  0.53840343314E+00  0.53983862327E+00  0.51109989000E-03 0.  1.
     -623    1    1    2    0    0 -0.77303849276E-03  0.57385639021E-02  0.20219666691E-02  0.17124000011E+03  0.17124000000E+03 0.  1.
     -611    1    1    2    0    0 -0.19828186970E-01 -0.52787667638E-02  0.10625018714E+01  0.10627001037E+01  0.51109989000E-03 0. -1.
      611    1    1    2    0    0  0.46877892988E-01  0.28810629448E-01  0.38970727050E+01  0.38974611632E+01  0.51109989000E-03 0.  1.
</event>
<event>
 6   3  0.2312675E+03  0.9118800E+02  0.7818608E-02  0.1180000E+00
       11   -1    0    0    0    0  0.00000000000E+00  0.00000000000E+00  0.54999999763E+01  0.55000000000E+01  0.51109989000E-03 0. -1.
     -623   -1    0    0    0    0  0.00000000000E+00  0.00000000000E+00  0.93234578044E-11  0.17124000000E+03  0.17124000000E+03 0.  1.
       11    1    1    2    0    0 -0.37335168850E-01  0.24364064683E-01  0.53462026343E+00  0.53647610364E+00  0.51109989000E-03 0. -1.
     -623    1    1    2    0    0 -0.19290370442E-01 -0.29999506874E-01  0.21861315096E-02  0.17124000373E+03  0.17124000000E+03 0.  1.
     -611    1    1    2    0    0  0.18952086221E-01  0.25304618385E-02  0.16329630788E+01  0.16330750941E+01  0.51109989000E-03 0.  1.
      611    1    1    2    0    0  0.37673453076E-01  0.31049803519E-02  0.33302305029E+01  0.33304450744E+01  0.51109989000E-03 0. -1.
</event>
<event>
 6   3  0.2312675E+03  0.9118800E+02  0.7818608E-02  0.1180000E+00
       11   -1    0    0    0    0  0.00000000000E+00  0.00000000000E+00  0.54999999763E+01  0.55000000000E+01  0.51109989000E-03 0. -1.
     -623   -1    0    0    0    0  0.00000000000E+00  0.00000000000E+00  0.93234578044E-11  0.17124000000E+03  0.17124000000E+03 0. -1.
       11    1    1    2    0    0 -0.59933781920E-01 -0.39294736169E-01  0.34006231004E+00  0.34753240200E+00  0.51109989000E-03 0. -1.
     -623    1    1    2    0    0  0.49896744324E-02 -0.18726365266E-02  0.79278982222E-02  0.17124000027E+03  0.17124000000E+03 0. -1.
     -611    1    1    2    0    0  0.36132044479E-01  0.26834269735E-01  0.33711178262E+01  0.33714182864E+01  0.51109989000E-03 0. -1.
      611    1    1    2    0    0  0.18812062890E-01  0.14333102872E-01  0.17808919306E+01  0.17810490340E+01  0.51109989000E-03 0. -1.
</event>
<event>
 6   3  0.2312675E+03  0.9118800E+02  0.7818608E-02  0.1180000E+00
       11   -1    0    0    0    0  0.00000000000E+00  0.00000000000E+00  0.54999999763E+01  0.55000000000E+01  0.51109989000E-03 0. -1.
     -623   -1    0    0    0    0  0.00000000000E+00  0.00000000000E+00  0.93234578044E-11  0.17124000000E+03  0.17124000000E+03 0.  1.
       11    1    1    2    0    0 -0.12681323531E-01  0.55137680540E-02  0.36816920244E+00  0.36842915256E+00  0.51109989000E-03 0. -1.
     -623    1    1    2    0    0  0.19138301993E-01 -0.13311139395E-02  0.75399267897E-03  0.17124000108E+03  0.17124000000E+03 0.  1.
     -611    1    1    2    0    0  0.31471425386E-01 -0.83958272308E-02  0.26318957357E+01  0.26320973321E+01  0.51109989000E-03 0. -1.
      611    1    1    2    0    0 -0.37928403848E-01  0.42131731162E-02  0.24991810453E+01  0.24994724389E+01  0.51109989000E-03 0.  1.
</event>
<event>
 6   3  0.2312675E+03  0.9118800E+02  0.7818608E-02  0.1180000E+00
       11   -1    0    0    0    0  0.00000000000E+00  0.00000000000E+00  0.54999999763E+01  0.55000000000E+01  0.51109989000E-03 0. -1.
     -623   -1    0    0    0    0  0.00000000000E+00  0.00000000000E+00  0.93234578044E-11  0.17124000000E+03  0.17124000000E+03 0. -1.
       11    1    1    2    0    0  0.34709686447E-02  0.12202534910E-03  0.23298162761E+00  0.23300807398E+00  0.51109989000E-03 0. -1.
     -623    1    1    2    0    0 -0.66727107670E-01  0.25855519040E-02  0.42018082567E-03  0.17124001302E+03  0.17124000000E+03 0. -1.
     -611    1    1    2    0    0  0.18072102035E-01 -0.80423979945E-03  0.14768672626E+01  0.14769781380E+01  0.51109989000E-03 0. -1.
      611    1    1    2    0    0  0.45184036967E-01 -0.19033374529E-02  0.37897309034E+01  0.37900007654E+01  0.51109989000E-03 0. -1.
</event>
<event>
 6   3  0.2312675E+03  0.9118800E+02  0.7818608E-02  0.1180000E+00
       11   -1    0    0    0    0  0.00000000000E+00  0.00000000000E+00  0.54999999763E+01  0.55000000000E+01  0.51109989000E-03 0. -1.
     -623   -1    0    0    0    0  0.00000000000E+00  0.00000000000E+00  0.93234578044E-11  0.17124000000E+03  0.17124000000E+03 0. -1.
       11    1    1    2    0    0  0.36095081907E-02  0.37394953069E-03  0.50238819901E-01  0.50372300282E-01  0.51109989000E-03 0. -1.
     -623    1    1    2    0    0  0.53201515714E-01  0.42448630601E-02  0.44208465460E-03  0.17124000832E+03  0.17124000000E+03 0. -1.
     -611    1    1    2    0    0 -0.72518958113E-02 -0.61155900618E-03  0.56130931304E+00  0.56135672270E+00  0.51109989000E-03 0.  1.
      611    1    1    2    0    0 -0.49559128085E-01 -0.40072535839E-02  0.48880097579E+01  0.48882626586E+01  0.51109989000E-03 0. -1.
</event>
<event>
 6   3  0.2312675E+03  0.9118800E+02  0.7818608E-02  0.1180000E+00
       11   -1    0    0    0    0  0.00000000000E+00  0.00000000000E+00  0.54999999763E+01  0.55000000000E+01  0.51109989000E-03 0. -1.
     -623   -1    0    0    0    0  0.00000000000E+00  0.00000000000E+00  0.93234578044E-11  0.17124000000E+03  0.17124000000E+03 0.  1.
       11    1    1    2    0    0 -0.48670481650E-03  0.39400092974E-02  0.19245967815E-01  0.19657798836E-01  0.51109989000E-03 0. -1.
     -623    1    1    2    0    0 -0.78347562126E-04 -0.10406241948E-01  0.92173208057E-03  0.17124000032E+03  0.17124000000E+03 0.  1.
     -611    1    1    2    0    0 -0.36003473407E-01  0.23393681848E-03  0.32695651459E+01  0.32697634179E+01  0.51109989000E-03 0. -1.
      611    1    1    2    0    0  0.36568525785E-01  0.62322958325E-02  0.22102671306E+01  0.22105784646E+01  0.51109989000E-03 0.  1.
</event>
<event>
 6   3  0.2312675E+03  0.9118800E+02  0.7818608E-02  0.1180000E+00
       11   -1    0    0    0    0  0.00000000000E+00  0.00000000000E+00  0.54999999763E+01  0.55000000000E+01  0.51109989000E-03 0.  1.
     -623   -1    0    0    0    0  0.00000000000E+00  0.00000000000E+00  0.93234578044E-11  0.17124000000E+03  0.17124000000E+03 0.  1.
       11    1    1    2    0    0  0.66385193805E-01  0.46732014240E-01  0.10237034577E+01  0.10269176722E+01  0.51109989000E-03 0.  1.
     -623    1    1    2    0    0 -0.62595860510E-02 -0.52397677724E-02  0.38197043921E-02  0.17124000024E+03  0.17124000000E+03 0.  1.
     -611    1    1    2    0    0 -0.43681719454E-01 -0.31614326214E-01  0.30626460483E+01  0.30631207349E+01  0.51109989000E-03 0.  1.
      611    1    1    2    0    0 -0.16443888300E-01 -0.98779202535E-02  0.14098307659E+01  0.14099613557E+01  0.51109989000E-03 0. -1.
</event>
<event>
 6   3  0.2312675E+03  0.9118800E+02  0.7818608E-02  0.1180000E+00
       11   -1    0    0    0    0  0.00000000000E+00  0.00000000000E+00  0.54999999763E+01  0.55000000000E+01  0.51109989000E-03 0. -1.
     -623   -1    0    0    0    0  0.00000000000E+00  0.00000000000E+00  0.93234578044E-11  0.17124000000E+03  0.17124000000E+03 0. -1.
       11    1    1    2    0    0  0.14659141071E-01 -0.51214234923E-03  0.36921667368E-01  0.39731894632E-01  0.51109989000E-03 0. -1.
     -623    1    1    2    0    0 -0.10654052574E-01  0.13374419001E-01  0.78664723788E-02  0.17124000103E+03  0.17124000000E+03 0. -1.
     -611    1    1    2    0    0  0.43025846243E-01 -0.92136794567E-01  0.12783185439E+01  0.12823568042E+01  0.51109989000E-03 0.  1.
      611    1    1    2    0    0 -0.47030934740E-01  0.79274517914E-01  0.41768932926E+01  0.41779102668E+01  0.51109989000E-03 0. -1.
</event>
<event>
 6   3  0.2312675E+03  0.9118800E+02  0.7818608E-02  0.1180000E+00
       11   -1    0    0    0    0  0.00000000000E+00  0.00000000000E+00  0.54999999763E+01  0.55000000000E+01  0.51109989000E-03 0. -1.
     -623   -1    0    0    0    0  0.00000000000E+00  0.00000000000E+00  0.93234578044E-11  0.17124000000E+03  0.17124000000E+03 0.  1.
       11    1    1    2    0    0 -0.24981040634E-01  0.80049723547E-01  0.54346395327E+00  0.54989575408E+00  0.51109989000E-03 0. -1.
     -623    1    1    2    0    0  0.56547153764E-01  0.22410779049E-01  0.96241887827E-02  0.17124001107E+03  0.17124000000E+03 0.  1.
     -611    1    1    2    0    0  0.23758343574E-01 -0.69481490784E-01  0.10146269699E+01  0.10172808293E+01  0.51109989000E-03 0.  1.
      611    1    1    2    0    0 -0.55324456703E-01 -0.32979011812E-01  0.39322848643E+01  0.39328123431E+01  0.51109989000E-03 0. -1.
</event>
<event>
 6   3  0.2312675E+03  0.9118800E+02  0.7818608E-02  0.1180000E+00
       11   -1    0    0    0    0  0.00000000000E+00  0.00000000000E+00  0.54999999763E+01  0.55000000000E+01  0.51109989000E-03 0. -1.
     -623   -1    0    0    0    0  0.00000000000E+00  0.00000000000E+00  0.93234578044E-11  0.17124000000E+03  0.17124000000E+03 0. -1.
       11    1    1    2    0    0  0.21620966486E-01 -0.94893427317E-02  0.13271943295E+00  0.13480438763E+00  0.51109989000E-03 0. -1.
     -623    1    1    2    0    0 -0.39705655803E-02 -0.88736241571E-02  0.30507835274E-02  0.17124000030E+03  0.17124000000E+03 0. -1.
     -611    1    1    2    0    0 -0.39513792611E-01  0.49523850020E-01  0.35633004625E+01  0.35638636897E+01  0.51109989000E-03 0. -1.
      611    1    1    2    0    0  0.21863391705E-01 -0.31160883131E-01  0.18009292973E+01  0.18013316196E+01  0.51109989000E-03 0.  1.
</event>
<event>
 6   3  0.2312675E+03  0.9118800E+02  0.7818608E-02  0.1180000E+00
       11   -1    0    0    0    0  0.00000000000E+00  0.00000000000E+00  0.54999999763E+01  0.55000000000E+01  0.51109989000E-03 0.  1.
     -623   -1    0    0    0    0  0.00000000000E+00  0.00000000000E+00  0.93234578044E-11  0.17124000000E+03  0.17124000000E+03 0. -1.
       11    1    1    2    0    0  0.41869891494E-02  0.51669657893E-02  0.93670356118E-02  0.11499173573E-01  0.51109989000E-03 0.  1.
     -623    1    1    2    0    0 -0.84994059285E-02 -0.57679833393E-02  0.43736398403E-02  0.17124000036E+03  0.17124000000E+03 0. -1.
     -611    1    1    2    0    0 -0.38999771441E-01 -0.59318593168E-01  0.37440606619E+01  0.37447336592E+01  0.51109989000E-03 0. -1.
      611    1    1    2    0    0  0.43312188220E-01  0.59919610718E-01  0.17421986389E+01  0.17437668033E+01  0.51109989000E-03 0.  1.
</event>
<event>
 6   3  0.2312675E+03  0.9118800E+02  0.7818608E-02  0.1180000E+00
       11   -1    0    0    0    0  0.00000000000E+00  0.00000000000E+00  0.54999999763E+01  0.55000000000E+01  0.51109989000E-03 0. -1.
     -623   -1    0    0    0    0  0.00000000000E+00  0.00000000000E+00  0.93234578044E-11  0.17124000000E+03  0.17124000000E+03 0.  1.
       11    1    1    2    0    0  0.65652103817E-02 -0.20454058058E-01  0.78017211048E+00  0.78046797095E+00  0.51109989000E-03 0. -1.
     -623    1    1    2    0    0  0.19940574237E-01  0.28000495201E-01  0.13651656851E-02  0.17124000346E+03  0.17124000000E+03 0.  1.
     -611    1    1    2    0    0 -0.62830018480E-01 -0.68301806131E-02  0.27068942015E+01  0.27076319436E+01  0.51109989000E-03 0. -1.
      611    1    1    2    0    0  0.36324233861E-01 -0.71625652977E-03  0.20115684987E+01  0.20118966298E+01  0.51109989000E-03 0.  1.
</event>
<event>
 6   3  0.2312675E+03  0.9118800E+02  0.7818608E-02  0.1180000E+00
       11   -1    0    0    0    0  0.00000000000E+00  0.00000000000E+00  0.54999999763E+01  0.55000000000E+01  0.51109989000E-03 0.  1.
     -623   -1    0    0    0    0  0.00000000000E+00  0.00000000000E+00  0.93234578044E-11  0.17124000000E+03  0.17124000000E+03 0. -1.
       11    1    1    2    0    0 -0.27396525744E-01  0.43585368961E-01  0.61963671243E+00  0.62177179948E+00  0.51109989000E-03 0.  1.
     -623    1    1    2    0    0 -0.29595696573E-01 -0.29745377088E-02  0.26398363523E-02  0.17124000260E+03  0.17124000000E+03 0. -1.
     -611    1    1    2    0    0  0.32424855222E-01 -0.22667616554E-01  0.27416151813E+01  0.27419006648E+01  0.51109989000E-03 0.  1.
      611    1    1    2    0    0  0.24567367038E-01 -0.17943214658E-01  0.21361082413E+01  0.21363249271E+01  0.51109989000E-03 0. -1.
</event>
<event>
 6   3  0.2312675E+03  0.9118800E+02  0.7818608E-02  0.1180000E+00
       11   -1    0    0    0    0  0.00000000000E+00  0.00000000000E+00  0.54999999763E+01  0.55000000000E+01  0.51109989000E-03 0. -1.
     -623   -1    0    0    0    0  0.00000000000E+00  0.00000000000E+00  0.93234578044E-11  0.17124000000E+03  0.17124000000E+03 0.  1.
       11    1    1    2    0    0 -0.92377170888E-03 -0.67386231684E-02  0.24730812301E-01  0.25654175031E-01  0.51109989000E-03 0. -1.
     -623    1    1    2    0    0 -0.41299951314E-02 -0.18050951249E-02  0.13576621626E-02  0.17124000006E+03  0.17124000000E+03 0.  1.
     -611    1    1    2    0    0 -0.31104453180E-01 -0.21008356617E-02  0.23502522926E+01  0.23504591042E+01  0.51109989000E-03 0. -1.
      611    1    1    2    0    0  0.36158220020E-01  0.10644553955E-01  0.31236592091E+01  0.31238866559E+01  0.51109989000E-03 0.  1.
</event>
<event>
 6   3  0.2312675E+03  0.9118800E+02  0.7818608E-02  0.1180000E+00
       11   -1    0    0    0    0  0.00000000000E+00  0.00000000000E+00  0.54999999763E+01  0.55000000000E+01  0.51109989000E-03 0.  1.
     -623   -1    0    0    0    0  0.00000000000E+00  0.00000000000E+00  0.93234578044E-11  0.17124000000E+03  0.17124000000E+03 0.  1.
       11    1    1    2    0    0 -0.32106068919E-01 -0.25122798268E-01  0.65574813383E+00  0.65701433082E+00  0.51109989000E-03 0.  1.
     -623    1    1    2    0    0  0.36296174239E-01 -0.37629845257E-02  0.16617748401E-02  0.17124000390E+03  0.17124000000E+03 0.  1.
     -611    1    1    2    0    0  0.24586635193E-01  0.81734689323E-02  0.22497299611E+01  0.22498792117E+01  0.51109989000E-03 0. -1.
      611    1    1    2    0    0 -0.28776740513E-01  0.20712313861E-01  0.25928601065E+01  0.25931025614E+01  0.51109989000E-03 0.  1.
</event>
<event>
 6   3  0.2312675E+03  0.9118800E+02  0.7818608E-02  0.1180000E+00
       11   -1    0    0    0    0  0.00000000000E+00  0.00000000000E+00  0.54999999763E+01  0.55000000000E+01  0.51109989000E-03 0.  1.
     -623   -1    0    0    0    0  0.00000000000E+00  0.00000000000E+00  0.93234578044E-11  0.17124000000E+03  0.17124000000E+03 0.  1.
       11    1    1    2    0    0 -0.36893955584E-03  0.76116094270E-02  0.44456190170E+00  0.44462750520E+00  0.51109989000E-03 0.  1.
     -623    1    1    2    0    0 -0.15922509987E-02  0.76356771777E-03  0.89620604922E-03  0.17124000001E+03  0.17124000000E+03 0.  1.
     -611    1    1    2    0    0 -0.41243144423E-01 -0.99645261495E-02  0.16092980956E+01  0.16098574193E+01  0.51109989000E-03 0. -1.
      611    1    1    2    0    0  0.43204334977E-01  0.15893490048E-02  0.34452437729E+01  0.34455150640E+01  0.51109989000E-03 0.  1.
</event>
<event>
 6   3  0.2312675E+03  0.9118800E+02  0.7818608E-02  0.1180000E+00
       11   -1    0    0    0    0  0.00000000000E+00  0.00000000000E+00  0.54999999763E+01  0.55000000000E+01  0.51109989000E-03 0.  1.
     -623   -1    0    0    0    0  0.00000000000E+00  0.00000000000E+00  0.93234578044E-11  0.17124000000E+03  0.17124000000E+03 0.  1.
       11    1    1    2    0    0  0.36965940708E-02 -0.23205543322E-02  0.19336104846E+00  0.19341097711E+00  0.51109989000E-03 0.  1.
     -623    1    1    2    0    0 -0.25371279710E-03  0.35752060819E-02  0.59445987462E-03  0.17124000004E+03  0.17124000000E+03 0.  1.
     -611    1    1    2    0    0  0.36227804118E-01  0.27202988726E-03  0.26553514590E+01  0.26555986443E+01  0.51109989000E-03 0.  1.
      611    1    1    2    0    0 -0.39670685391E-01 -0.15266816371E-02  0.26506930092E+01  0.26509903402E+01  0.51109989000E-03 0. -1.
</event>
<event>
 6   3  0.2688748E+03  0.9118800E+02  0.7818608E-02  0.1180000E+00
       11   -1    0    0    0    0  0.00000000000E+00  0.00000000000E+00  0.54999999763E+01  0.55000000000E+01  0.51109989000E-03 0. -1.
     -623   -1    0    0    0    0  0.00000000000E+00  0.00000000000E+00  0.93234578044E-11  0.17124000000E+03  0.17124000000E+03 0. -1.
       11    1    1    2    0    0 -0.21932389190E-03 -0.23507733163E-02  0.14622866627E-02  0.28237817790E-02  0.51109989000E-03 0. -1.
     -623    1    1    2    0    0 -0.23090709532E-02  0.51744620661E-02  0.27152893575E-02  0.17124000012E+03  0.17124000000E+03 0. -1.
     -611    1    1    2    0    0 -0.50898925813E-01 -0.95379377783E-02  0.13332687737E+01  0.13342741687E+01  0.51109989000E-03 0.  1.
      611    1    1    2    0    0  0.53427320658E-01  0.67142490284E-02  0.41625536265E+01  0.41629019343E+01  0.51109989000E-03 0. -1.
</event>
<event>
 6   3  0.2312675E+03  0.9118800E+02  0.7818608E-02  0.1180000E+00
       11   -1    0    0    0    0  0.00000000000E+00  0.00000000000E+00  0.54999999763E+01  0.55000000000E+01  0.51109989000E-03 0. -1.
     -623   -1    0    0    0    0  0.00000000000E+00  0.00000000000E+00  0.93234578044E-11  0.17124000000E+03  0.17124000000E+03 0. -1.
       11    1    1    2    0    0  0.17984660568E-01  0.25596329746E-02  0.15855833075E+00  0.15959638219E+00  0.51109989000E-03 0. -1.
     -623    1    1    2    0    0 -0.11451089086E-01  0.11189975097E-01  0.28241324746E-02  0.17124000077E+03  0.17124000000E+03 0. -1.
     -611    1    1    2    0    0  0.45994726920E-01 -0.29319162161E-01  0.10348516678E+01  0.10362882629E+01  0.51109989000E-03 0.  1.
      611    1    1    2    0    0 -0.52528298402E-01  0.15569554089E-01  0.43037658453E+01  0.43041145832E+01  0.51109989000E-03 0. -1.
</event>
<event>
 6   3  0.2312675E+03  0.9118800E+02  0.7818608E-02  0.1180000E+00
       11   -1    0    0    0    0  0.00000000000E+00  0.00000000000E+00  0.54999999763E+01  0.55000000000E+01  0.51109989000E-03 0. -1.
     -623   -1    0    0    0    0  0.00000000000E+00  0.00000000000E+00  0.93234578044E-11  0.17124000000E+03  0.17124000000E+03 0.  1.
       11    1    1    2    0    0 -0.11348860158E-01 -0.46949232372E-02  0.98298161172E-01  0.99063760498E-01  0.51109989000E-03 0. -1.
     -623    1    1    2    0    0 -0.86485206807E-02  0.47180458552E-02  0.12872125320E-02  0.17124000029E+03  0.17124000000E+03 0.  1.
     -611    1    1    2    0    0 -0.24616206264E-01  0.14886056887E-02  0.10384505111E+01  0.10387434230E+01  0.51109989000E-03 0.  1.
      611    1    1    2    0    0  0.44613587103E-01 -0.15117283068E-02  0.43619640915E+01  0.43621925284E+01  0.51109989000E-03 0. -1.
</event>
<event>
 6   3  0.2312675E+03  0.9118800E+02  0.7818608E-02  0.1180000E+00
       11   -1    0    0    0    0  0.00000000000E+00  0.00000000000E+00  0.54999999763E+01  0.55000000000E+01  0.51109989000E-03 0.  1.
     -623   -1    0    0    0    0  0.00000000000E+00  0.00000000000E+00  0.93234578044E-11  0.17124000000E+03  0.17124000000E+03 0.  1.
       11    1    1    2    0    0  0.66146394434E-01  0.23684201084E-01  0.92826886580E+00  0.93092407602E+00  0.51109989000E-03 0.  1.
     -623    1    1    2    0    0 -0.20210385603E-01  0.11745922465E-01  0.10668967582E-01  0.17124000193E+03  0.17124000000E+03 0.  1.
     -611    1    1    2    0    0 -0.11747028668E+00 -0.54336310721E-01  0.11585292478E+01  0.11657366693E+01  0.51109989000E-03 0. -1.
      611    1    1    2    0    0  0.71534277850E-01  0.18906187172E-01  0.34025328951E+01  0.34033373268E+01  0.51109989000E-03 0.  1.
</event>
<event>
 6   3  0.2312675E+03  0.9118800E+02  0.7818608E-02  0.1180000E+00
       11   -1    0    0    0    0  0.00000000000E+00  0.00000000000E+00  0.54999999763E+01  0.55000000000E+01  0.51109989000E-03 0.  1.
     -623   -1    0    0    0    0  0.00000000000E+00  0.00000000000E+00  0.93234578044E-11  0.17124000000E+03  0.17124000000E+03 0.  1.
       11    1    1    2    0    0  0.29550239428E-02 -0.42985003702E-02  0.37026588365E-01  0.37395704847E-01  0.51109989000E-03 0.  1.
     -623    1    1    2    0    0 -0.16950000078E-02  0.73298014194E-02  0.15075125586E-02  0.17124000017E+03  0.17124000000E+03 0.  1.
     -611    1    1    2    0    0  0.45610194854E-01  0.13588440489E-01  0.40178277798E+01  0.40181096632E+01  0.51109989000E-03 0.  1.
      611    1    1    2    0    0 -0.46870218789E-01 -0.16619741538E-01  0.14436380955E+01  0.14444944601E+01  0.51109989000E-03 0. -1.
</event>
<event>
 6   3  0.2312675E+03  0.9118800E+02  0.7818608E-02  0.1180000E+00
       11   -1    0    0    0    0  0.00000000000E+00  0.00000000000E+00  0.54999999763E+01  0.55000000000E+01  0.51109989000E-03 0. -1.
     -623   -1    0    0    0    0  0.00000000000E+00  0.00000000000E+00  0.93234578044E-11  0.17124000000E+03  0.17124000000E+03 0. -1.
       11    1    1    2    0    0 -0.44191360499E-01  0.65029643298E-01  0.98457985362E+00  0.98771427054E+00  0.51109989000E-03 0. -1.
     -623    1    1    2    0    0  0.21951438386E-01 -0.23808776032E-01  0.60597929199E-02  0.17124000317E+03  0.17124000000E+03 0. -1.
     -611    1    1    2    0    0 -0.45391859060E-01 -0.70788295732E-01  0.29176261506E+01  0.29188377858E+01  0.51109989000E-03 0. -1.
      611    1    1    2    0    0  0.67631781173E-01  0.29567428465E-01  0.15917341790E+01  0.15934447743E+01  0.51109989000E-03 0.  1.
</event>
<event>
 6   3  0.2312675E+03  0.9118800E+02  0.7818608E-02  0.1180000E+00
       11   -1    0    0    0    0  0.00000000000E+00  0.00000000000E+00  0.54999999763E+01  0.55000000000E+01  0.51109989000E-03 0. -1.
     -623   -1    0    0    0    0  0.00000000000E+00  0.00000000000E+00  0.93234578044E-11  0.17124000000E+03  0.17124000000E+03 0.  1.
       11    1    1    2    0    0 -0.71631222330E-01 -0.17746549120E-01  0.79245213454E+00  0.79588103306E+00  0.51109989000E-03 0. -1.
     -623    1    1    2    0    0 -0.13051078967E-02  0.27158909909E-02  0.40471256459E-02  0.17124000007E+03  0.17124000000E+03 0.  1.
     -611    1    1    2    0    0  0.31960808757E-01 -0.54833963160E-03  0.22399043112E+01  0.22401324466E+01  0.51109989000E-03 0.  1.
      611    1    1    2    0    0  0.40975521469E-01  0.15578997761E-01  0.24635964048E+01  0.24639864459E+01  0.51109989000E-03 0. -1.
</event>
<event>
 6   3  0.2312675E+03  0.9118800E+02  0.7818608E-02  0.1180000E+00
       11   -1    0    0    0    0  0.00000000000E+00  0.00000000000E+00  0.54999999763E+01  0.55000000000E+01  0.51109989000E-03 0.  1.
     -623   -1    0    0    0    0  0.00000000000E+00  0.00000000000E+00  0.93234578044E-11  0.17124000000E+03  0.17124000000E+03 0.  1.
       11    1    1    2    0    0 -0.16327140228E-01 -0.20465950147E-01  0.41602700424E+00  0.41685028500E+00  0.51109989000E-03 0.  1.
     -623    1    1    2    0    0 -0.17311915045E-01 -0.10401777263E-01  0.13278893540E-02  0.17124000120E+03  0.17124000000E+03 0.  1.
     -611    1    1    2    0    0 -0.14242522685E-01  0.12525997593E-01  0.98607447759E+00  0.98625700841E+00  0.51109989000E-03 0. -1.
      611    1    1    2    0    0  0.47881577957E-01  0.18341729818E-01  0.40965706052E+01  0.40968915105E+01  0.51109989000E-03 0.  1.
</event>
<event>
 6   3  0.2312675E+03  0.9118800E+02  0.7818608E-02  0.1180000E+00
       11   -1    0    0    0    0  0.00000000000E+00  0.00000000000E+00  0.54999999763E+01  0.55000000000E+01  0.51109989000E-03 0.  1.
     -623   -1    0    0    0    0  0.00000000000E+00  0.00000000000E+00  0.93234578044E-11  0.17124000000E+03  0.17124000000E+03 0. -1.
       11    1    1    2    0    0  0.28707239112E-02 -0.23320807205E-01  0.87465187334E+00  0.87496757760E+00  0.51109989000E-03 0.  1.
     -623    1    1    2    0    0 -0.27307378649E-02  0.34826856929E-01  0.82269330188E-03  0.17124000357E+03  0.17124000000E+03 0. -1.
     -611    1    1    2    0    0 -0.26474475424E-01  0.15334052384E-01  0.20007079138E+01  0.20009418903E+01  0.51109989000E-03 0.  1.
      611    1    1    2    0    0  0.26334489378E-01 -0.26840102107E-01  0.26238174957E+01  0.26240869667E+01  0.51109989000E-03 0. -1.
</event>
<event>
 6   3  0.2312675E+03  0.9118800E+02  0.7818608E-02  0.1180000E+00
       11   -1    0    0    0    0  0.00000000000E+00  0.00000000000E+00  0.54999999763E+01  0.55000000000E+01  0.51109989000E-03 0.  1.
     -623   -1    0    0    0    0  0.00000000000E+00  0.00000000000E+00  0.93234578044E-11  0.17124000000E+03  0.17124000000E+03 0.  1.
       11    1    1    2    0    0  0.25327480633E-01  0.54968990523E-02  0.51415037136E+00  0.51480342148E+00  0.51109989000E-03 0.  1.
     -623    1    1    2    0    0  0.42476788381E-01  0.19347055625E-01  0.11826486336E-02  0.17124000637E+03  0.17124000000E+03 0.  1.
     -611    1    1    2    0    0 -0.30541614117E-01 -0.11201535262E-01  0.22816690634E+01  0.22819010147E+01  0.51109989000E-03 0.  1.
      611    1    1    2    0    0 -0.37262655025E-01 -0.13642419462E-01  0.27029979023E+01  0.27032892080E+01  0.51109989000E-03 0.  1.
</event>
<event>
 6   3  0.2312675E+03  0.9118800E+02  0.7818608E-02  0.1180000E+00
       11   -1    0    0    0    0  0.00000000000E+00  0.00000000000E+00  0.54999999763E+01  0.55000000000E+01  0.51109989000E-03 0. -1.
     -623   -1    0    0    0    0  0.00000000000E+00  0.00000000000E+00  0.93234578044E-11  0.17124000000E+03  0.17124000000E+03 0. -1.
       11    1    1    2    0    0 -0.56282773420E-02  0.21807627912E-02  0.46808987182E-02  0.76554077682E-02  0.51109989000E-03 0. -1.
     -623    1    1    2    0    0  0.25450626319E-01 -0.23592387754E-01  0.39297627400E-02  0.17124000356E+03  0.17124000000E+03 0. -1.
     -611    1    1    2    0    0 -0.49567528575E-01  0.11330667107E-01  0.47667918345E+01  0.47670630349E+01  0.51109989000E-03 0. -1.
      611    1    1    2    0    0  0.29745179597E-01  0.10080957856E-01  0.72459748032E+00  0.72527799575E+00  0.51109989000E-03 0.  1.
</event>
<event>
 6   3  0.2312675E+03  0.9118800E+02  0.7818608E-02  0.1180000E+00
       11   -1    0    0    0    0  0.00000000000E+00  0.00000000000E+00  0.54999999763E+01  0.55000000000E+01  0.51109989000E-03 0. -1.
     -623   -1    0    0    0    0  0.00000000000E+00  0.00000000000E+00  0.93234578044E-11  0.17124000000E+03  0.17124000000E+03 0.  1.
       11    1    1    2    0    0  0.61887454554E-01  0.11339284553E-01  0.62632078542E+00  0.62947329084E+00  0.51109989000E-03 0. -1.
     -623    1    1    2    0    0 -0.66623228765E-02  0.12136223151E-02  0.34822997001E-02  0.17124000017E+03  0.17124000000E+03 0.  1.
     -611    1    1    2    0    0 -0.21556784599E-01 -0.51361185517E-02  0.19698641210E+01  0.19699888302E+01  0.51109989000E-03 0. -1.
      611    1    1    2    0    0 -0.33668347082E-01 -0.74167883170E-02  0.29003327705E+01  0.29005377100E+01  0.51109989000E-03 0. -1.
</event>
<event>
 6   3  0.2312675E+03  0.9118800E+02  0.7818608E-02  0.1180000E+00
       11   -1    0    0    0    0  0.00000000000E+00  0.00000000000E+00  0.54999999763E+01  0.55000000000E+01  0.51109989000E-03 0. -1.
     -623   -1    0    0    0    0  0.00000000000E+00  0.00000000000E+00  0.93234578044E-11  0.17124000000E+03  0.17124000000E+03 0. -1.
       11    1    1    2    0    0 -0.84788436799E-03 -0.72975298546E-02  0.19434305324E-01  0.20782836582E-01  0.51109989000E-03 0. -1.
     -623    1    1    2    0    0 -0.59337414550E-02 -0.17544389861E-02  0.44033290137E-02  0.17124000017E+03  0.17124000000E+03 0. -1.
     -611    1    1    2    0    0 -0.73147187811E-01  0.36695956595E-01  0.15631943001E+01  0.15653350394E+01  0.51109989000E-03 0.  1.
      611    1    1    2    0    0  0.79928813634E-01 -0.27643987755E-01  0.39129680418E+01  0.39138819557E+01  0.51109989000E-03 0. -1.
</event>
<event>
 6   3  0.2312675E+03  0.9118800E+02  0.7818608E-02  0.1180000E+00
       11   -1    0    0    0    0  0.00000000000E+00  0.00000000000E+00  0.54999999763E+01  0.55000000000E+01  0.51109989000E-03 0.  1.
     -623   -1    0    0    0    0  0.00000000000E+00  0.00000000000E+00  0.93234578044E-11  0.17124000000E+03  0.17124000000E+03 0.  1.
       11    1    1    2    0    0 -0.44417379976E-03 -0.57085816996E-02  0.16509782002E-01  0.17481971291E-01  0.51109989000E-03 0.  1.
     -623    1    1    2    0    0 -0.22284032276E-02  0.47298985656E-02  0.38299984637E-02  0.17124000012E+03  0.17124000000E+03 0.  1.
     -611    1    1    2    0    0 -0.69839791560E-01 -0.27412673504E-01  0.40823240759E+01  0.40830134916E+01  0.51109989000E-03 0.  1.
      611    1    1    2    0    0  0.72512368587E-01  0.28391356638E-01  0.13973361199E+01  0.13995044145E+01  0.51109989000E-03 0. -1.
</event>
<event>
 6   3  0.2312675E+03  0.9118800E+02  0.7818608E-02  0.1180000E+00
       11   -1    0    0    0    0  0.00000000000E+00  0.00000000000E+00  0.54999999763E+01  0.55000000000E+01  0.51109989000E-03 0.  1.
     -623   -1    0    0    0    0  0.00000000000E+00  0.00000000000E+00  0.93234578044E-11  0.17124000000E+03  0.17124000000E+03 0.  1.
       11    1    1    2    0    0  0.69350005964E-03  0.79495941607E-04  0.11458366191E-02  0.14357669006E-02  0.51109989000E-03 0.  1.
     -623    1    1    2    0    0  0.14368765953E-03  0.61334736759E-03  0.73448579671E-03  0.17124000000E+03  0.17124000000E+03 0.  1.
     -611    1    1    2    0    0 -0.35093774727E-01 -0.40160876251E-02  0.25914619453E+01  0.25917027177E+01  0.51109989000E-03 0. -1.
      611    1    1    2    0    0  0.34256587008E-01  0.33232443159E-02  0.29066577086E+01  0.29068615127E+01  0.51109989000E-03 0.  1.
</event>
<event>
 6   3  0.2312675E+03  0.9118800E+02  0.7818608E-02  0.1180000E+00
       11   -1    0    0    0    0  0.00000000000E+00  0.00000000000E+00  0.54999999763E+01  0.55000000000E+01  0.51109989000E-03 0. -1.
     -623   -1    0    0    0    0  0.00000000000E+00  0.00000000000E+00  0.93234578044E-11  0.17124000000E+03  0.17124000000E+03 0. -1.
       11    1    1    2    0    0 -0.59912178961E-01 -0.90569735544E-02  0.60163646591E+00  0.60468024301E+00  0.51109989000E-03 0. -1.
     -623    1    1    2    0    0  0.85407867132E-03  0.13811465152E-01  0.34341451246E-02  0.17124000059E+03  0.17124000000E+03 0. -1.
     -611    1    1    2    0    0  0.13803208582E-01  0.57513823920E-02  0.98212167797E+00  0.98223564308E+00  0.51109989000E-03 0.  1.
      611    1    1    2    0    0  0.45254891708E-01 -0.10505873989E-01  0.39128076872E+01  0.39130835203E+01  0.51109989000E-03 0. -1.
</event>
<event>
 6   3  0.2312675E+03  0.9118800E+02  0.7818608E-02  0.1180000E+00
       11   -1    0    0    0    0  0.00000000000E+00  0.00000000000E+00  0.54999999763E+01  0.55000000000E+01  0.51109989000E-03 0. -1.
     -623   -1    0    0    0    0  0.00000000000E+00  0.00000000000E+00  0.93234578044E-11  0.17124000000E+03  0.17124000000E+03 0.  1.
       11    1    1    2    0    0 -0.13061476294E-01  0.12208799189E-01  0.57739638272E-01  0.60446538292E-01  0.51109989000E-03 0. -1.
     -623    1    1    2    0    0  0.10433708962E-01 -0.65168141873E-02  0.31062684837E-02  0.17124000047E+03  0.17124000000E+03 0.  1.
     -611    1    1    2    0    0 -0.27415753090E-01  0.13120889040E-01  0.25892723627E+01  0.25894507933E+01  0.51109989000E-03 0.  1.
      611    1    1    2    0    0  0.30043520422E-01 -0.18812874042E-01  0.28498817068E+01  0.28501021984E+01  0.51109989000E-03 0. -1.
</event>
<event>
 6   3  0.2312675E+03  0.9118800E+02  0.7818608E-02  0.1180000E+00
       11   -1    0    0    0    0  0.00000000000E+00  0.00000000000E+00  0.54999999763E+01  0.55000000000E+01  0.51109989000E-03 0.  1.
     -623   -1    0    0    0    0  0.00000000000E+00  0.00000000000E+00  0.93234578044E-11  0.17124000000E+03  0.17124000000E+03 0.  1.
       11    1    1    2    0    0 -0.11242270934E-02 -0.41123247173E-03  0.23176445386E-01  0.23212967120E-01  0.51109989000E-03 0.  1.
     -623    1    1    2    0    0  0.15747183441E-02 -0.62641694756E-03  0.52657666098E-03  0.17124000001E+03  0.17124000000E+03 0.  1.
     -611    1    1    2    0    0  0.35928240345E-01  0.56121427263E-02  0.29431659361E+01  0.29433906168E+01  0.51109989000E-03 0.  1.
      611    1    1    2    0    0 -0.36378731596E-01 -0.45744933070E-02  0.25331310182E+01  0.25333964069E+01  0.51109989000E-03 0. -1.
</event>
<event>
 6   3  0.2312675E+03  0.9118800E+02  0.7818608E-02  0.1180000E+00
       11   -1    0    0    0    0  0.00000000000E+00  0.00000000000E+00  0.54999999763E+01  0.55000000000E+01  0.51109989000E-03 0. -1.
     -623   -1    0    0    0    0  0.00000000000E+00  0.00000000000E+00  0.93234578044E-11  0.17124000000E+03  0.17124000000E+03 0. -1.
       11    1    1    2    0    0 -0.24431354915E-01 -0.12993318950E-01  0.80288822513E+00  0.80336509802E+00  0.51109989000E-03 0. -1.
     -623    1    1    2    0    0  0.14460744167E+00  0.11538905359E-01  0.20877451243E-02  0.17124006146E+03  0.17124000000E+03 0. -1.
     -611    1    1    2    0    0 -0.83619144035E-01  0.30877954310E-02  0.30951179089E+01  0.30962488315E+01  0.51109989000E-03 0. -1.
      611    1    1    2    0    0 -0.36556942748E-01 -0.16333818421E-02  0.15999060983E+01  0.16003246117E+01  0.51109989000E-03 0.  1.
</event>
<event>
 6   3  0.2312675E+03  0.9118800E+02  0.7818608E-02  0.1180000E+00
       11   -1    0    0    0    0  0.00000000000E+00  0.00000000000E+00  0.54999999763E+01  0.55000000000E+01  0.51109989000E-03 0. -1.
     -623   -1    0    0    0    0  0.00000000000E+00  0.00000000000E+00  0.93234578044E-11  0.17124000000E+03  0.17124000000E+03 0.  1.
       11    1    1    2    0    0 -0.12368780120E-01  0.11066990055E-02  0.13913882657E+00  0.13969282654E+00  0.51109989000E-03 0. -1.
     -623    1    1    2    0    0  0.24147433620E-01 -0.73990169174E-02  0.24720181793E-02  0.17124000188E+03  0.17124000000E+03 0.  1.
     -611    1    1    2    0    0 -0.52349131728E-01  0.44007685958E-01  0.15440191080E+01  0.15455330391E+01  0.51109989000E-03 0.  1.
      611    1    1    2    0    0  0.40570478227E-01 -0.37715368046E-01  0.38143700236E+01  0.38147722541E+01  0.51109989000E-03 0. -1.
</event>
<event>
 6   3  0.2312675E+03  0.9118800E+02  0.7818608E-02  0.1180000E+00
       11   -1    0    0    0    0  0.00000000000E+00  0.00000000000E+00  0.54999999763E+01  0.55000000000E+01  0.51109989000E-03 0.  1.
     -623   -1    0    0    0    0  0.00000000000E+00  0.00000000000E+00  0.93234578044E-11  0.17124000000E+03  0.17124000000E+03 0. -1.
       11    1    1    2    0    0  0.26253606146E-01 -0.10375958021E-01  0.10471893536E+01  0.10475699098E+01  0.51109989000E-03 0.  1.
     -623    1    1    2    0    0 -0.76696700308E-01  0.39931139880E-01  0.78709674484E-03  0.17124002183E+03  0.17124000000E+03 0. -1.
     -611    1    1    2    0    0  0.89279388377E-02 -0.63037698751E-02  0.85189192639E+00  0.85196218289E+00  0.51109989000E-03 0. -1.
      611    1    1    2    0    0  0.41515155331E-01 -0.23251411987E-01  0.36001316000E+01  0.36004460744E+01  0.51109989000E-03 0.  1.
</event>
<event>
 6   3  0.2312675E+03  0.9118800E+02  0.7818608E-02  0.1180000E+00
       11   -1    0    0    0    0  0.00000000000E+00  0.00000000000E+00  0.54999999763E+01  0.55000000000E+01  0.51109989000E-03 0. -1.
     -623   -1    0    0    0    0  0.00000000000E+00  0.00000000000E+00  0.93234578044E-11  0.17124000000E+03  0.17124000000E+03 0.  1.
       11    1    1    2    0    0 -0.51365925575E-01 -0.62365384917E-02  0.28655247391E+00  0.29118711210E+00  0.51109989000E-03 0. -1.
     -623    1    1    2    0    0 -0.30772969976E-02  0.56787895480E-02  0.49199011494E-02  0.17124000019E+03  0.17124000000E+03 0.  1.
     -611    1    1    2    0    0  0.44534419409E-01  0.81653903338E-03  0.43209135359E+01  0.43211431390E+01  0.51109989000E-03 0.  1.
      611    1    1    2    0    0  0.99088031835E-02 -0.25879008952E-03  0.88761406721E+00  0.88766955838E+00  0.51109989000E-03 0. -1.
</event>
<event>
 6   3  0.2312675E+03  0.9118800E+02  0.7818608E-02  0.1180000E+00
       11   -1    0    0    0    0  0.00000000000E+00  0.00000000000E+00  0.54999999763E+01  0.55000000000E+01  0.51109989000E-03 0.  1.
     -623   -1    0    0    0    0  0.00000000000E+00  0.00000000000E+00  0.93234578044E-11  0.17124000000E+03  0.17124000000E+03 0.  1.
       11    1    1    2    0    0  0.53739667496E-02  0.61031112133E-02  0.24216250362E+00  0.24229953955E+00  0.51109989000E-03 0.  1.
     -623    1    1    2    0    0 -0.68111327019E-01 -0.95893245875E-02  0.53054061180E-03  0.17124001382E+03  0.17124000000E+03 0.  1.
     -611    1    1    2    0    0  0.53257077370E-01  0.10850038841E-02  0.45533002916E+01  0.45536118961E+01  0.51109989000E-03 0.  1.
      611    1    1    2    0    0  0.94802828896E-02  0.24012094892E-02  0.70400663962E+00  0.70407474846E+00  0.51109989000E-03 0.  1.
</event>
<event>
 6   3  0.2312675E+03  0.9118800E+02  0.7818608E-02  0.1180000E+00
       11   -1    0    0    0    0  0.00000000000E+00  0.00000000000E+00  0.54999999763E+01  0.55000000000E+01  0.51109989000E-03 0. -1.
     -623   -1    0    0    0    0  0.00000000000E+00  0.00000000000E+00  0.93234578044E-11  0.17124000000E+03  0.17124000000E+03 0.  1.
       11    1    1    2    0    0 -0.53794728907E-01  0.24604268524E-02  0.54711113566E+00  0.54975520238E+00  0.51109989000E-03 0. -1.
     -623    1    1    2    0    0 -0.27202966855E-01  0.41192173004E-01  0.36940080197E-02  0.17124000715E+03  0.17124000000E+03 0.  1.
     -611    1    1    2    0    0  0.30229231004E-01  0.57107493821E-02  0.15472888080E+01  0.15475946936E+01  0.51109989000E-03 0.  1.
      611    1    1    2    0    0  0.50768464759E-01 -0.49363349239E-01  0.34019060245E+01  0.34026429490E+01  0.51109989000E-03 0. -1.
</event>
<event>
 6   3  0.2312675E+03  0.9118800E+02  0.7818608E-02  0.1180000E+00
       11   -1    0    0    0    0  0.00000000000E+00  0.00000000000E+00  0.54999999763E+01  0.55000000000E+01  0.51109989000E-03 0.  1.
     -623   -1    0    0    0    0  0.00000000000E+00  0.00000000000E+00  0.93234578044E-11  0.17124000000E+03  0.17124000000E+03 0. -1.
       11    1    1    2    0    0  0.26929255878E-01 -0.56853277619E-01  0.78189740091E+00  0.78442417528E+00  0.51109989000E-03 0.  1.
     -623    1    1    2    0    0  0.10884873858E-01  0.14483348864E-01  0.35347583167E-02  0.17124000099E+03  0.17124000000E+03 0. -1.
     -611    1    1    2    0    0 -0.61280750915E-01  0.25841612329E-01  0.27882132360E+01  0.27890063517E+01  0.51109989000E-03 0. -1.
      611    1    1    2    0    0  0.23466621180E-01  0.16528316426E-01  0.19263545811E+01  0.19265684781E+01  0.51109989000E-03 0.  1.
</event>
<event>
 6   3  0.2312675E+03  0.9118800E+02  0.7818608E-02  0.1180000E+00
       11   -1    0    0    0    0  0.00000000000E+00  0.00000000000E+00  0.54999999763E+01  0.55000000000E+01  0.51109989000E-03 0.  1.
     -623   -1    0    0    0    0  0.00000000000E+00  0.00000000000E+00  0.93234578044E-11  0.17124000000E+03  0.17124000000E+03 0.  1.
       11    1    1    2    0    0 -0.17787027542E-01 -0.46056120251E-01  0.82950641161E+00  0.83097454395E+00  0.51109989000E-03 0.  1.
     -623    1    1    2    0    0  0.10773215134E-02  0.35669513443E-02  0.19322957844E-02  0.17124000005E+03  0.17124000000E+03 0.  1.
     -611    1    1    2    0    0  0.31899563572E-01  0.37117617536E-01  0.31763549408E+01  0.31767320111E+01  0.51109989000E-03 0.  1.
      611    1    1    2    0    0 -0.15189857543E-01  0.53715513704E-02  0.14922063282E+01  0.14922933936E+01  0.51109989000E-03 0. -1.
</event>
<event>
 6   3  0.2312675E+03  0.9118800E+02  0.7818608E-02  0.1180000E+00
       11   -1    0    0    0    0  0.00000000000E+00  0.00000000000E+00  0.54999999763E+01  0.55000000000E+01  0.51109989000E-03 0. -1.
     -623   -1    0    0    0    0  0.00000000000E+00  0.00000000000E+00  0.93234578044E-11  0.17124000000E+03  0.17124000000E+03 0. -1.
       11    1    1    2    0    0  0.46848392706E-01 -0.61985248167E-02  0.85656973764E+00  0.85787246737E+00  0.51109989000E-03 0. -1.
     -623    1    1    2    0    0  0.82335688628E-02  0.27824107263E-01  0.17026195215E-02  0.17124000247E+03  0.17124000000E+03 0. -1.
     -611    1    1    2    0    0 -0.41470695732E-01 -0.21651125723E-01  0.37857788109E+01  0.37860678885E+01  0.51109989000E-03 0. -1.
      611    1    1    2    0    0 -0.13611265836E-01  0.25543277331E-04  0.85594880812E+00  0.85605717716E+00  0.51109989000E-03 0.  1.
</event>
<event>
 6   3  0.2312675E+03  0.9118800E+02  0.7818608E-02  0.1180000E+00
       11   -1    0    0    0    0  0.00000000000E+00  0.00000000000E+00  0.54999999763E+01  0.55000000000E+01  0.51109989000E-03 0.  1.
     -623   -1    0    0    0    0  0.00000000000E+00  0.00000000000E+00  0.93234578044E-11  0.17124000000E+03  0.17124000000E+03 0. -1.
       11    1    1    2    0    0 -0.46805080615E-02  0.18685276709E-01  0.86953893287E+00  0.86975241519E+00  0.51109989000E-03 0.  1.
     -623    1    1    2    0    0 -0.11600096000E-02 -0.15623746026E-02  0.86055147270E-03  0.17124000001E+03  0.17124000000E+03 0. -1.
     -611    1    1    2    0    0 -0.31107802040E-01 -0.25501364102E-03  0.11878815256E+01  0.11882889129E+01  0.51109989000E-03 0. -1.
      611    1    1    2    0    0  0.36948319701E-01 -0.16867888466E-01  0.34417189664E+01  0.34419586588E+01  0.51109989000E-03 0.  1.
</event>
<event>
 6   3  0.2312675E+03  0.9118800E+02  0.7818608E-02  0.1180000E+00
       11   -1    0    0    0    0  0.00000000000E+00  0.00000000000E+00  0.54999999763E+01  0.55000000000E+01  0.51109989000E-03 0.  1.
     -623   -1    0    0    0    0  0.00000000000E+00  0.00000000000E+00  0.93234578044E-11  0.17124000000E+03  0.17124000000E+03 0. -1.
       11    1    1    2    0    0  0.74759679026E-02 -0.82532141519E-02  0.83749650129E+00  0.83757068749E+00  0.51109989000E-03 0.  1.
     -623    1    1    2    0    0 -0.74783512697E-01  0.43127669949E-01  0.72489334031E-03  0.17124002176E+03  0.17124000000E+03 0. -1.
     -611    1    1    2    0    0  0.37929768850E-01 -0.25409481872E-01  0.26942861382E+01  0.26946729607E+01  0.51109989000E-03 0. -1.
      611    1    1    2    0    0  0.29377775880E-01 -0.94649738880E-02  0.19674924387E+01  0.19677345850E+01  0.51109989000E-03 0.  1.
</event>
<event>
 6   3  0.2312675E+03  0.9118800E+02  0.7818608E-02  0.1180000E+00
       11   -1    0    0    0    0  0.00000000000E+00  0.00000000000E+00  0.54999999763E+01  0.55000000000E+01  0.51109989000E-03 0. -1.
     -623   -1    0    0    0    0  0.00000000000E+00  0.00000000000E+00  0.93234578044E-11  0.17124000000E+03  0.17124000000E+03 0.  1.
       11    1    1    2    0    0 -0.15203470012E-01 -0.32177571415E-01  0.59239612492E+00  0.59346438111E+00  0.51109989000E-03 0. -1.
     -623    1    1    2    0    0 -0.25324772792E-01  0.60721749106E-02  0.16617270653E-02  0.17124000199E+03  0.17124000000E+03 0.  1.
     -611    1    1    2    0    0  0.54753869532E-01  0.28452684487E-01  0.40442904513E+01  0.40447611867E+01  0.51109989000E-03 0. -1.
      611    1    1    2    0    0 -0.14225626728E-01 -0.23472879827E-02  0.86165167299E+00  0.86177244387E+00  0.51109989000E-03 0.  1.
</event>
<event>
 6   3  0.2312675E+03  0.9118800E+02  0.7818608E-02  0.1180000E+00
       11   -1    0    0    0    0  0.00000000000E+00  0.00000000000E+00  0.54999999763E+01  0.55000000000E+01  0.51109989000E-03 0.  1.
     -623   -1    0    0    0    0  0.00000000000E+00  0.00000000000E+00  0.93234578044E-11  0.17124000000E+03  0.17124000000E+03 0.  1.
       11    1    1    2    0    0  0.28422864387E-01  0.63481326457E-01  0.98730001171E+00  0.98974709516E+00  0.51109989000E-03 0.  1.
     -623    1    1    2    0    0 -0.16297403560E-01  0.74335254149E-02  0.42571154109E-02  0.17124000099E+03  0.17124000000E+03 0.  1.
     -611    1    1    2    0    0  0.30898169390E-01 -0.78089455295E-01  0.30620731546E+01  0.30632245959E+01  0.51109989000E-03 0.  1.
      611    1    1    2    0    0 -0.43023630218E-01  0.71746034231E-02  0.14463696946E+01  0.14470273191E+01  0.51109989000E-03 0. -1.
</event>
<event>
 6   3  0.2312675E+03  0.9118800E+02  0.7818608E-02  0.1180000E+00
       11   -1    0    0    0    0  0.00000000000E+00  0.00000000000E+00  0.54999999763E+01  0.55000000000E+01  0.51109989000E-03 0. -1.
     -623   -1    0    0    0    0  0.00000000000E+00  0.00000000000E+00  0.93234578044E-11  0.17124000000E+03  0.17124000000E+03 0. -1.
       11    1    1    2    0    0 -0.22478765745E-03 -0.58588625567E-02  0.75849565020E+00  0.75851848322E+00  0.51109989000E-03 0. -1.
     -623    1    1    2    0    0 -0.31560370945E-02  0.78449331627E-02  0.35636773868E-03  0.17124000021E+03  0.17124000000E+03 0. -1.
     -611    1    1    2    0    0 -0.25484214850E-01  0.52784328434E-02  0.25038355072E+01  0.25039708097E+01  0.51109989000E-03 0.  1.
      611    1    1    2    0    0  0.28865039602E-01 -0.72645034497E-02  0.22373124513E+01  0.22375104981E+01  0.51109989000E-03 0. -1.
</event>
<event>
 6   3  0.2312675E+03  0.9118800E+02  0.7818608E-02  0.1180000E+00
       11   -1    0    0    0    0  0.00000000000E+00  0.00000000000E+00  0.54999999763E+01  0.55000000000E+01  0.51109989000E-03 0. -1.
     -623   -1    0    0    0    0  0.00000000000E+00  0.00000000000E+00  0.93234578044E-11  0.17124000000E+03  0.17124000000E+03 0.  1.
       11    1    1    2    0    0 -0.11002505439E+00  0.52362411655E-02  0.91112154152E+00  0.91775577114E+00  0.51109989000E-03 0. -1.
     -623    1    1    2    0    0 -0.21869428432E-01  0.59194202132E-02  0.85555661980E-02  0.17124000171E+03  0.17124000000E+03 0.  1.
     -611    1    1    2    0    0  0.10200773219E+00 -0.67016879635E-02  0.34337150320E+01  0.34352364798E+01  0.51109989000E-03 0. -1.
      611    1    1    2    0    0  0.29886750638E-01 -0.44539734154E-02  0.11466078366E+01  0.11470060366E+01  0.51109989000E-03 0.  1.
</event>
<event>
 6   3  0.2312675E+03  0.9118800E+02  0.7818608E-02  0.1180000E+00
       11   -1    0    0    0    0  0.00000000000E+00  0.00000000000E+00  0.54999999763E+01  0.55000000000E+01  0.51109989000E-03 0. -1.
     -623   -1    0    0    0    0  0.00000000000E+00  0.00000000000E+00  0.93234578044E-11  0.17124000000E+03  0.17124000000E+03 0.  1.
       11    1    1    2    0    0 -0.61428277126E-02  0.89387816555E-03  0.72118665989E+00  0.72121355573E+00  0.51109989000E-03 0. -1.
     -623    1    1    2    0    0  0.64186246021E-01 -0.11987193953E-01  0.40922553559E-03  0.17124001245E+03  0.17124000000E+03 0.  1.
     -611    1    1    2    0    0 -0.48903108009E-01  0.11319741422E-01  0.41366478567E+01  0.41369524293E+01  0.51109989000E-03 0. -1.
      611    1    1    2    0    0 -0.91403101804E-02 -0.22642565734E-03  0.64175622396E+00  0.64182155522E+00  0.51109989000E-03 0. -1.
</event>
<event>
 6   3  0.2312675E+03  0.9118800E+02  0.7818608E-02  0.1180000E+00
       11   -1    0    0    0    0  0.00000000000E+00  0.00000000000E+00  0.54999999763E+01  0.55000000000E+01  0.51109989000E-03 0. -1.
     -623   -1    0    0    0    0  0.00000000000E+00  0.00000000000E+00  0.93234578044E-11  0.17124000000E+03  0.17124000000E+03 0.  1.
       11    1    1    2    0    0 -0.49273337954E-02  0.26835372764E-02  0.58123418345E-01  0.58395830107E-01  0.51109989000E-03 0. -1.
     -623    1    1    2    0    0  0.54304498393E-02 -0.46180369667E-04  0.86960257096E-03  0.17124000009E+03  0.17124000000E+03 0.  1.
     -611    1    1    2    0    0  0.32713313640E-01 -0.23609333373E-01  0.23330509711E+01  0.23333998064E+01  0.51109989000E-03 0.  1.
      611    1    1    2    0    0 -0.33216429683E-01  0.20971976466E-01  0.31079559842E+01  0.31082042752E+01  0.51109989000E-03 0. -1.
</event>
<event>
 6   3  0.2312675E+03  0.9118800E+02  0.7818608E-02  0.1180000E+00
       11   -1    0    0    0    0  0.00000000000E+00  0.00000000000E+00  0.54999999763E+01  0.55000000000E+01  0.51109989000E-03 0.  1.
     -623   -1    0    0    0    0  0.00000000000E+00  0.00000000000E+00  0.93234578044E-11  0.17124000000E+03  0.17124000000E+03 0.  1.
       11    1    1    2    0    0  0.34727592733E-02  0.34559606830E-02  0.20437497245E+00  0.20443432761E+00  0.51109989000E-03 0.  1.
     -623    1    1    2    0    0 -0.11307944829E+00 -0.51684011780E-01  0.14587938626E-02  0.17124004514E+03  0.17124000000E+03 0.  1.
     -611    1    1    2    0    0  0.30167448613E-01  0.13121813007E-01  0.14727738480E+01  0.14731413122E+01  0.51109989000E-03 0.  1.
      611    1    1    2    0    0  0.79439240515E-01  0.35106238142E-01  0.38213923675E+01  0.38223792235E+01  0.51109989000E-03 0.  1.
</event>
<event>
 6   3  0.2312675E+03  0.9118800E+02  0.7818608E-02  0.1180000E+00
       11   -1    0    0    0    0  0.00000000000E+00  0.00000000000E+00  0.54999999763E+01  0.55000000000E+01  0.51109989000E-03 0. -1.
     -623   -1    0    0    0    0  0.00000000000E+00  0.00000000000E+00  0.93234578044E-11  0.17124000000E+03  0.17124000000E+03 0.  1.
       11    1    1    2    0    0  0.24634455794E-01  0.19158971568E-02  0.41674000609E+00  0.41747217988E+00  0.51109989000E-03 0. -1.
     -623    1    1    2    0    0  0.32071955409E-01  0.39905723263E-02  0.12642846109E-02  0.17124000305E+03  0.17124000000E+03 0.  1.
     -611    1    1    2    0    0 -0.10799761206E-01 -0.17299127330E-01  0.77187614312E+00  0.77214567032E+00  0.51109989000E-03 0.  1.
      611    1    1    2    0    0 -0.45906649997E-01  0.11392657847E-01  0.43101195425E+01  0.43103790953E+01  0.51109989000E-03 0. -1.
</event>
<event>
 6   3  0.2312675E+03  0.9118800E+02  0.7818608E-02  0.1180000E+00
       11   -1    0    0    0    0  0.00000000000E+00  0.00000000000E+00  0.54999999763E+01  0.55000000000E+01  0.51109989000E-03 0. -1.
     -623   -1    0    0    0    0  0.00000000000E+00  0.00000000000E+00  0.93234578044E-11  0.17124000000E+03  0.17124000000E+03 0.  1.
       11    1    1    2    0    0  0.35949671644E-02 -0.20987653043E-01  0.10995038001E+00  0.11199443137E+00  0.51109989000E-03 0. -1.
     -623    1    1    2    0    0  0.28585894115E-01  0.14242626383E-01  0.32986558269E-02  0.17124000301E+03  0.17124000000E+03 0.  1.
     -611    1    1    2    0    0  0.23122257575E-01 -0.33286852668E-01  0.11763245013E+01  0.11770226196E+01  0.51109989000E-03 0.  1.
      611    1    1    2    0    0 -0.55303118854E-01  0.40031879327E-01  0.42104264390E+01  0.42109799389E+01  0.51109989000E-03 0. -1.
</event>
<event>
 6   3  0.2312675E+03  0.9118800E+02  0.7818608E-02  0.1180000E+00
       11   -1    0    0    0    0  0.00000000000E+00  0.00000000000E+00  0.54999999763E+01  0.55000000000E+01  0.51109989000E-03 0.  1.
     -623   -1    0    0    0    0  0.00000000000E+00  0.00000000000E+00  0.93234578044E-11  0.17124000000E+03  0.17124000000E+03 0. -1.
       11    1    1    2    0    0  0.13033637893E+00  0.77463652979E-01  0.10302019325E+01  0.10412994153E+01  0.51109989000E-03 0.  1.
     -623    1    1    2    0    0 -0.16410535566E-02 -0.89246949424E-02  0.13485703016E-01  0.17124000077E+03  0.17124000000E+03 0. -1.
     -611    1    1    2    0    0 -0.11250156653E+00 -0.60360617122E-01  0.39457239781E+01  0.39477889988E+01  0.51109989000E-03 0.  1.
      611    1    1    2    0    0 -0.16193758852E-01 -0.81783409191E-02  0.51058836292E+00  0.51091081478E+00  0.51109989000E-03 0. -1.
</event>
<event>
 6   3  0.2312675E+03  0.9118800E+02  0.7818608E-02  0.1180000E+00
       11   -1    0    0    0    0  0.00000000000E+00  0.00000000000E+00  0.54999999763E+01  0.55000000000E+01  0.51109989000E-03 0.  1.
     -623   -1    0    0    0    0  0.00000000000E+00  0.00000000000E+00  0.93234578044E-11  0.17124000000E+03  0.17124000000E+03 0.  1.
       11    1    1    2    0    0 -0.28566565352E-01 -0.53632846490E-02  0.82801735644E+00  0.82852749940E+00  0.51109989000E-03 0.  1.
     -623    1    1    2    0    0  0.99863100525E-02  0.13464785992E-02  0.93702203433E-03  0.17124000030E+03  0.17124000000E+03 0.  1.
     -611    1    1    2    0    0 -0.19530790211E-01 -0.95696035974E-02  0.12755170073E+01  0.12757025226E+01  0.51109989000E-03 0.  1.
      611    1    1    2    0    0  0.38111045510E-01  0.13586409647E-01  0.33955285905E+01  0.33957696790E+01  0.51109989000E-03 0. -1.
</event>
<event>
 6   3  0.2312675E+03  0.9118800E+02  0.7818608E-02  0.1180000E+00
       11   -1    0    0    0    0  0.00000000000E+00  0.00000000000E+00  0.54999999763E+01  0.55000000000E+01  0.51109989000E-03 0.  1.
     -623   -1    0    0    0    0  0.00000000000E+00  0.00000000000E+00  0.93234578044E-11  0.17124000000E+03  0.17124000000E+03 0. -1.
       11    1    1    2    0    0  0.36216233489E-01  0.57072816525E-01  0.26030513715E+00  0.26893855730E+00  0.51109989000E-03 0.  1.
     -623    1    1    2    0    0  0.19080260096E-01 -0.33070298566E-01  0.89853811276E-02  0.17124000449E+03  0.17124000000E+03 0. -1.
     -611    1    1    2    0    0 -0.30972503556E-01 -0.13671822576E-01  0.29621108227E+01  0.29623043399E+01  0.51109989000E-03 0.  1.
      611    1    1    2    0    0 -0.24323989970E-01 -0.10330695357E-01  0.22685986297E+01  0.22687526052E+01  0.51109989000E-03 0.  1.
</event>
<event>
 6   3  0.2312675E+03  0.9118800E+02  0.7818608E-02  0.1180000E+00
       11   -1    0    0    0    0  0.00000000000E+00  0.00000000000E+00  0.54999999763E+01  0.55000000000E+01  0.51109989000E-03 0.  1.
     -623   -1    0    0    0    0  0.00000000000E+00  0.00000000000E+00  0.93234578044E-11  0.17124000000E+03  0.17124000000E+03 0. -1.
       11    1    1    2    0    0 -0.46135175682E-02 -0.13066889334E-03  0.84009941630E-02  0.95989345625E-02  0.51109989000E-03 0.  1.
     -623    1    1    2    0    0  0.11655175593E-01  0.78924774942E-02  0.19214610670E-02  0.17124000059E+03  0.17124000000E+03 0. -1.
     -611    1    1    2    0    0 -0.44969474390E-01  0.22552517884E-02  0.20235501628E+01  0.20240511017E+01  0.51109989000E-03 0. -1.
      611    1    1    2    0    0  0.37927816364E-01 -0.10017060389E-01  0.34661273583E+01  0.34663493744E+01  0.51109989000E-03 0.  1.
</event>
<event>
 6   3  0.2312675E+03  0.9118800E+02  0.7818608E-02  0.1180000E+00
       11   -1    0    0    0    0  0.00000000000E+00  0.00000000000E+00  0.54999999763E+01  0.55000000000E+01  0.51109989000E-03 0.  1.
     -623   -1    0    0    0    0  0.00000000000E+00  0.00000000000E+00  0.93234578044E-11  0.17124000000E+03  0.17124000000E+03 0. -1.
       11    1    1    2    0    0 -0.33663062348E-03 -0.78470825720E-03 -0.63219867637E-03  0.11789764584E-02  0.51109989000E-03 0.  1.
     -623    1    1    2    0    0  0.64839468242E-02  0.25435952713E-02  0.40894960783E-02  0.17124000019E+03  0.17124000000E+03 0. -1.
     -611    1    1    2    0    0  0.70988109122E-01  0.25575784119E-01  0.29426939851E+01  0.29436612549E+01  0.51109989000E-03 0.  1.
      611    1    1    2    0    0 -0.77135425323E-01 -0.27334671133E-01  0.25538486937E+01  0.25551595781E+01  0.51109989000E-03 0. -1.
</event>
<event>
 6   3  0.2312675E+03  0.9118800E+02  0.7818608E-02  0.1180000E+00
       11   -1    0    0    0    0  0.00000000000E+00  0.00000000000E+00  0.54999999763E+01  0.55000000000E+01  0.51109989000E-03 0.  1.
     -623   -1    0    0    0    0  0.00000000000E+00  0.00000000000E+00  0.93234578044E-11  0.17124000000E+03  0.17124000000E+03 0.  1.
       11    1    1    2    0    0  0.42852163546E-01  0.10686354418E+00  0.88022042192E+00  0.88771863639E+00  0.51109989000E-03 0.  1.
     -623    1    1    2    0    0 -0.61439104130E-02  0.15900506430E-01  0.10376958185E-01  0.17124000116E+03  0.17124000000E+03 0.  1.
     -611    1    1    2    0    0  0.27537365974E-01 -0.81443826981E-01  0.22531008914E+01  0.22547406262E+01  0.51109989000E-03 0. -1.
      611    1    1    2    0    0 -0.64245619107E-01 -0.41320223629E-01  0.23563017048E+01  0.23575395746E+01  0.51109989000E-03 0.  1.
</event>
<event>
 6   3  0.2312675E+03  0.9118800E+02  0.7818608E-02  0.1180000E+00
       11   -1    0    0    0    0  0.00000000000E+00  0.00000000000E+00  0.54999999763E+01  0.55000000000E+01  0.51109989000E-03 0. -1.
     -623   -1    0    0    0    0  0.00000000000E+00  0.00000000000E+00  0.93234578044E-11  0.17124000000E+03  0.17124000000E+03 0.  1.
       11    1    1    2    0    0 -0.13393449298E-01  0.10386270475E-01  0.30802883985E-01  0.35161598134E-01  0.51109989000E-03 0. -1.
     -623    1    1    2    0    0 -0.65643862346E-01  0.19859356951E-01  0.50295545479E-02  0.17124001381E+03  0.17124000000E+03 0.  1.
     -611    1    1    2    0    0  0.23118355518E-01 -0.75436162913E-02  0.16670385821E+01  0.16672160208E+01  0.51109989000E-03 0.  1.
      611    1    1    2    0    0  0.55918956123E-01 -0.22702011133E-01  0.37971289554E+01  0.37976085733E+01  0.51109989000E-03 0. -1.
</event>
<event>
 6   3  0.2312675E+03  0.9118800E+02  0.7818608E-02  0.1180000E+00
       11   -1    0    0    0    0  0.00000000000E+00  0.00000000000E+00  0.54999999763E+01  0.55000000000E+01  0.51109989000E-03 0. -1.
     -623   -1    0    0    0    0  0.00000000000E+00  0.00000000000E+00  0.93234578044E-11  0.17124000000E+03  0.17124000000E+03 0. -1.
       11    1    1    2    0    0  0.11059443839E-01  0.44461131978E-03  0.29226747841E+00  0.29247743355E+00  0.51109989000E-03 0. -1.
     -623    1    1    2    0    0 -0.73266203416E-01 -0.47663936323E-01  0.81814675824E-03  0.17124002231E+03  0.17124000000E+03 0. -1.
     -611    1    1    2    0    0  0.53657153552E-01  0.40642499666E-01  0.44746023018E+01  0.44751085935E+01  0.51109989000E-03 0. -1.
      611    1    1    2    0    0  0.85496059958E-02  0.65768253146E-02  0.73231204673E+00  0.73239166120E+00  0.51109989000E-03 0. -1.
</event>
<event>
 6   3  0.2312675E+03  0.9118800E+02  0.7818608E-02  0.1180000E+00
       11   -1    0    0    0    0  0.00000000000E+00  0.00000000000E+00  0.54999999763E+01  0.55000000000E+01  0.51109989000E-03 0. -1.
     -623   -1    0    0    0    0  0.00000000000E+00  0.00000000000E+00  0.93234578044E-11  0.17124000000E+03  0.17124000000E+03 0.  1.
       11    1    1    2    0    0  0.44728620195E-03 -0.17478400994E-02  0.52704659973E-02  0.55941080510E-02  0.51109989000E-03 0.  1.
     -623    1    1    2    0    0 -0.11018359845E-01 -0.10282652124E-02  0.11128658595E-02  0.17124000036E+03  0.17124000000E+03 0.  1.
     -611    1    1    2    0    0  0.46904696509E-01  0.18617378496E-01  0.23692671567E+01  0.23698045865E+01  0.51109989000E-03 0. -1.
      611    1    1    2    0    0 -0.36333622866E-01 -0.15841273185E-01  0.31243494877E+01  0.31246009442E+01  0.51109989000E-03 0.  1.
</event>
<event>
 6   3  0.2312675E+03  0.9118800E+02  0.7818608E-02  0.1180000E+00
       11   -1    0    0    0    0  0.00000000000E+00  0.00000000000E+00  0.54999999763E+01  0.55000000000E+01  0.51109989000E-03 0.  1.
     -623   -1    0    0    0    0  0.00000000000E+00  0.00000000000E+00  0.93234578044E-11  0.17124000000E+03  0.17124000000E+03 0.  1.
       11    1    1    2    0    0  0.60893349234E-03 -0.13983137784E-02  0.80822422131E-02  0.82407489775E-02  0.51109989000E-03 0.  1.
     -623    1    1    2    0    0  0.38601644638E-03  0.64379800949E-03  0.81619471069E-03  0.17124000000E+03  0.17124000000E+03 0.  1.
     -611    1    1    2    0    0 -0.34683173190E-01  0.23717241788E-01  0.34051707907E+01  0.34054300470E+01  0.51109989000E-03 0.  1.
      611    1    1    2    0    0  0.33688223252E-01 -0.22962726019E-01  0.20859307486E+01  0.20863292004E+01  0.51109989000E-03 0. -1.
</event>
<event>
 6   3  0.2312675E+03  0.9118800E+02  0.7818608E-02  0.1180000E+00
       11   -1    0    0    0    0  0.00000000000E+00  0.00000000000E+00  0.54999999763E+01  0.55000000000E+01  0.51109989000E-03 0. -1.
     -623   -1    0    0    0    0  0.00000000000E+00  0.00000000000E+00  0.93234578044E-11  0.17124000000E+03  0.17124000000E+03 0. -1.
       11    1    1    2    0    0  0.93686127752E-02  0.78987135231E-02  0.26029745691E+00  0.26058623885E+00  0.51109989000E-03 0. -1.
     -623    1    1    2    0    0 -0.75077833630E-02  0.14208475640E-01  0.12076613249E-02  0.17124000076E+03  0.17124000000E+03 0. -1.
     -611    1    1    2    0    0 -0.43892541763E-01  0.22614483388E-02  0.33696058906E+01  0.33698925486E+01  0.51109989000E-03 0. -1.
      611    1    1    2    0    0  0.42031712351E-01 -0.24368637502E-01  0.18688889675E+01  0.18695204544E+01  0.51109989000E-03 0.  1.
</event>
<event>
 6   3  0.2312675E+03  0.9118800E+02  0.7818608E-02  0.1180000E+00
       11   -1    0    0    0    0  0.00000000000E+00  0.00000000000E+00  0.54999999763E+01  0.55000000000E+01  0.51109989000E-03 0. -1.
     -623   -1    0    0    0    0  0.00000000000E+00  0.00000000000E+00  0.93234578044E-11  0.17124000000E+03  0.17124000000E+03 0. -1.
       11    1    1    2    0    0 -0.12900539780E+00  0.15716903013E-01  0.10670957872E+01  0.10749805087E+01  0.51109989000E-03 0. -1.
     -623    1    1    2    0    0 -0.16579424560E-01 -0.14033146561E-01  0.10346614371E-01  0.17124000169E+03  0.17124000000E+03 0. -1.
     -611    1    1    2    0    0  0.84151720797E-01  0.93809192879E-02  0.23753011364E+01  0.23768098922E+01  0.51109989000E-03 0. -1.
      611    1    1    2    0    0  0.61433101559E-01 -0.11064675740E-01  0.20472564382E+01  0.20482079089E+01  0.51109989000E-03 0.  1.
</event>
<event>
 6   3  0.2312675E+03  0.9118800E+02  0.7818608E-02  0.1180000E+00
       11   -1    0    0    0    0  0.00000000000E+00  0.00000000000E+00  0.54999999763E+01  0.55000000000E+01  0.51109989000E-03 0.  1.
     -623   -1    0    0    0    0  0.00000000000E+00  0.00000000000E+00  0.93234578044E-11  0.17124000000E+03  0.17124000000E+03 0. -1.
       11    1    1    2    0    0 -0.43333007430E-01 -0.30665725137E-01  0.85076836998E+00  0.85242314422E+00  0.51109989000E-03 0.  1.
     -623    1    1    2    0    0 -0.64564231204E-02  0.61152212380E-02  0.19866886836E-02  0.17124000024E+03  0.17124000000E+03 0. -1.
     -611    1    1    2    0    0  0.32634388944E-01  0.16096077511E-01  0.30289426441E+01  0.30291612518E+01  0.51109989000E-03 0.  1.
      611    1    1    2    0    0  0.17155041609E-01  0.84544263894E-02  0.16183022737E+01  0.16184153618E+01  0.51109989000E-03 0.  1.
</event>
<event>
 6   3  0.2312675E+03  0.9118800E+02  0.7818608E-02  0.1180000E+00
       11   -1    0    0    0    0  0.00000000000E+00  0.00000000000E+00  0.54999999763E+01  0.55000000000E+01  0.51109989000E-03 0.  1.
     -623   -1    0    0    0    0  0.00000000000E+00  0.00000000000E+00  0.93234578044E-11  0.17124000000E+03  0.17124000000E+03 0.  1.
       11    1    1    2    0    0  0.61192681763E-02 -0.40348785881E-02  0.30963814596E+00  0.30972531112E+00  0.51109989000E-03 0. -1.
     -623    1    1    2    0    0 -0.64131285300E-01  0.52105132964E-01  0.65411752620E-03  0.17124001994E+03  0.17124000000E+03 0.  1.
     -611    1    1    2    0    0  0.48869754710E-01 -0.40616418850E-01  0.43822887309E+01  0.43827494485E+01  0.51109989000E-03 0.  1.
      611    1    1    2    0    0  0.91422624624E-02 -0.74538355651E-02  0.80741898607E+00  0.80750530705E+00  0.51109989000E-03 0.  1.
</event>
<event>
 6   3  0.2312675E+03  0.9118800E+02  0.7818608E-02  0.1180000E+00
       11   -1    0    0    0    0  0.00000000000E+00  0.00000000000E+00  0.54999999763E+01  0.55000000000E+01  0.51109989000E-03 0.  1.
     -623   -1    0    0    0    0  0.00000000000E+00  0.00000000000E+00  0.93234578044E-11  0.17124000000E+03  0.17124000000E+03 0.  1.
       11    1    1    2    0    0 -0.68291228886E-01  0.57333179959E-01  0.66612505849E+00  0.67206669329E+00  0.51109989000E-03 0.  1.
     -623    1    1    2    0    0  0.27565677021E-02 -0.10047383829E-01  0.66187134103E-02  0.17124000044E+03  0.17124000000E+03 0.  1.
     -611    1    1    2    0    0  0.28203157046E-01 -0.19656954348E-01  0.20416282905E+01  0.20419177632E+01  0.51109989000E-03 0.  1.
      611    1    1    2    0    0  0.37331504176E-01 -0.27628841809E-01  0.27856279166E+01  0.27860151014E+01  0.51109989000E-03 0.  1.
</event>
<event>
 6   3  0.2312675E+03  0.9118800E+02  0.7818608E-02  0.1180000E+00
       11   -1    0    0    0    0  0.00000000000E+00  0.00000000000E+00  0.54999999763E+01  0.55000000000E+01  0.51109989000E-03 0. -1.
     -623   -1    0    0    0    0  0.00000000000E+00  0.00000000000E+00  0.93234578044E-11  0.17124000000E+03  0.17124000000E+03 0.  1.
       11    1    1    2    0    0 -0.19945582301E-01 -0.19544985908E-01  0.88665504035E+00  0.88709483964E+00  0.51109989000E-03 0. -1.
     -623    1    1    2    0    0  0.58057058380E-02  0.27456317822E-02  0.19331572811E-02  0.17124000013E+03  0.17124000000E+03 0.  1.
     -611    1    1    2    0    0  0.49834319686E-01  0.33060942434E-01  0.14283043473E+01  0.14295558944E+01  0.51109989000E-03 0.  1.
      611    1    1    2    0    0 -0.35694443223E-01 -0.16261588308E-01  0.31831074313E+01  0.31833491347E+01  0.51109989000E-03 0. -1.
</event>
<event>
 6   3  0.2312675E+03  0.9118800E+02  0.7818608E-02  0.1180000E+00
       11   -1    0    0    0    0  0.00000000000E+00  0.00000000000E+00  0.54999999763E+01  0.55000000000E+01  0.51109989000E-03 0. -1.
     -623   -1    0    0    0    0  0.00000000000E+00  0.00000000000E+00  0.93234578044E-11  0.17124000000E+03  0.17124000000E+03 0.  1.
       11    1    1    2    0    0 -0.86917423155E-02  0.23266441572E-02  0.19944516992E-01  0.21886174601E-01  0.51109989000E-03 0. -1.
     -623    1    1    2    0    0  0.81320506277E-02 -0.13864995841E-01  0.25368323876E-02  0.17124000077E+03  0.17124000000E+03 0.  1.
     -611    1    1    2    0    0  0.38114458247E-01 -0.19484383646E-02  0.33744187582E+01  0.33746346062E+01  0.51109989000E-03 0.  1.
      611    1    1    2    0    0 -0.37554766559E-01  0.13486790048E-01  0.21030998686E+01  0.21034784460E+01  0.51109989000E-03 0. -1.
</event>
<event>
 6   3  0.2312675E+03  0.9118800E+02  0.7818608E-02  0.1180000E+00
       11   -1    0    0    0    0  0.00000000000E+00  0.00000000000E+00  0.54999999763E+01  0.55000000000E+01  0.51109989000E-03 0.  1.
     -623   -1    0    0    0    0  0.00000000000E+00  0.00000000000E+00  0.93234578044E-11  0.17124000000E+03  0.17124000000E+03 0. -1.
       11    1    1    2    0    0 -0.21301593876E-02  0.52039960347E-03  0.73456212646E-01  0.73490712299E-01  0.51109989000E-03 0.  1.
     -623    1    1    2    0    0  0.40387433395E-02 -0.16929393640E-02  0.53628980747E-03  0.17124000006E+03  0.17124000000E+03 0. -1.
     -611    1    1    2    0    0  0.34971848253E-01 -0.75895815101E-02  0.24994159579E+01  0.24996721832E+01  0.51109989000E-03 0.  1.
      611    1    1    2    0    0 -0.36880432205E-01  0.87621212706E-02  0.29265915159E+01  0.29268370476E+01  0.51109989000E-03 0. -1.
</event>
<event>
 6   3  0.2312675E+03  0.9118800E+02  0.7818608E-02  0.1180000E+00
       11   -1    0    0    0    0  0.00000000000E+00  0.00000000000E+00  0.54999999763E+01  0.55000000000E+01  0.51109989000E-03 0.  1.
     -623   -1    0    0    0    0  0.00000000000E+00  0.00000000000E+00  0.93234578044E-11  0.17124000000E+03  0.17124000000E+03 0.  1.
       11    1    1    2    0    0  0.35910346785E-02 -0.31588857968E-02  0.57279901835E-02  0.74796513408E-02  0.51109989000E-03 0.  1.
     -623    1    1    2    0    0 -0.31621855696E-02  0.23933564851E-02  0.23004614304E-02  0.17124000006E+03  0.17124000000E+03 0.  1.
     -611    1    1    2    0    0 -0.37241857985E-01  0.11760800820E-01  0.29434819543E+01  0.29437410805E+01  0.51109989000E-03 0. -1.
      611    1    1    2    0    0  0.36813008876E-01 -0.10995271508E-01  0.25484895704E+01  0.25487792069E+01  0.51109989000E-03 0.  1.
</event>
<event>
 6   3  0.2312675E+03  0.9118800E+02  0.7818608E-02  0.1180000E+00
       11   -1    0    0    0    0  0.00000000000E+00  0.00000000000E+00  0.54999999763E+01  0.55000000000E+01  0.51109989000E-03 0.  1.
     -623   -1    0    0    0    0  0.00000000000E+00  0.00000000000E+00  0.93234578044E-11  0.17124000000E+03  0.17124000000E+03 0.  1.
       11    1    1    2    0    0 -0.19419771316E-01 -0.23483902485E-01  0.81540604734E+00  0.81597543129E+00  0.51109989000E-03 0.  1.
     -623    1    1    2    0    0 -0.47449905746E-01 -0.21730910170E-01  0.12730800614E-02  0.17124000796E+03  0.17124000000E+03 0.  1.
     -611    1    1    2    0    0  0.29428395354E-01  0.19895784161E-01  0.20802765041E+01  0.20805798392E+01  0.51109989000E-03 0.  1.
      611    1    1    2    0    0  0.37441281563E-01  0.25319028397E-01  0.26030443347E+01  0.26034367617E+01  0.51109989000E-03 0.  1.
</event>
<event>
 6   3  0.2312675E+03  0.9118800E+02  0.7818608E-02  0.1180000E+00
       11   -1    0    0    0    0  0.00000000000E+00  0.00000000000E+00  0.54999999763E+01  0.55000000000E+01  0.51109989000E-03 0.  1.
     -623   -1    0    0    0    0  0.00000000000E+00  0.00000000000E+00  0.93234578044E-11  0.17124000000E+03  0.17124000000E+03 0. -1.
       11    1    1    2    0    0  0.15306216692E-01 -0.74902587142E-01  0.73479372687E+00  0.73876028595E+00  0.51109989000E-03 0.  1.
     -623    1    1    2    0    0 -0.26537703015E-01  0.18915895794E-01  0.48334960498E-02  0.17124000317E+03  0.17124000000E+03 0. -1.
     -611    1    1    2    0    0  0.40927432676E-01  0.29023067416E-01  0.28649676882E+01  0.28654070407E+01  0.51109989000E-03 0.  1.
      611    1    1    2    0    0 -0.29695946353E-01  0.26963623932E-01  0.18954050652E+01  0.18958295041E+01  0.51109989000E-03 0. -1.
</event>
<event>
 6   3  0.2312675E+03  0.9118800E+02  0.7818608E-02  0.1180000E+00
       11   -1    0    0    0    0  0.00000000000E+00  0.00000000000E+00  0.54999999763E+01  0.55000000000E+01  0.51109989000E-03 0. -1.
     -623   -1    0    0    0    0  0.00000000000E+00  0.00000000000E+00  0.93234578044E-11  0.17124000000E+03  0.17124000000E+03 0.  1.
       11    1    1    2    0    0  0.87992802240E-01  0.53053701612E-02  0.78729744023E+00  0.79221739492E+00  0.51109989000E-03 0. -1.
     -623    1    1    2    0    0  0.85256638763E-02  0.20880833876E-01  0.60034201782E-02  0.17124000159E+03  0.17124000000E+03 0.  1.
     -611    1    1    2    0    0 -0.78878522094E-01 -0.25574664550E-01  0.40178991255E+01  0.40187547236E+01  0.51109989000E-03 0. -1.
      611    1    1    2    0    0 -0.17639944024E-01 -0.61153948775E-03  0.68879999045E+00  0.68902629099E+00  0.51109989000E-03 0.  1.
</event>
<event>
 6   3  0.2312675E+03  0.9118800E+02  0.7818608E-02  0.1180000E+00
       11   -1    0    0    0    0  0.00000000000E+00  0.00000000000E+00  0.54999999763E+01  0.55000000000E+01  0.51109989000E-03 0. -1.
     -623   -1    0    0    0    0  0.00000000000E+00  0.00000000000E+00  0.93234578044E-11  0.17124000000E+03  0.17124000000E+03 0.  1.
       11    1    1    2    0    0  0.31075493301E-02 -0.11355764636E-02  0.30453503241E+00  0.30455343305E+00  0.51109989000E-03 0. -1.
     -623    1    1    2    0    0  0.28046602854E-02  0.30417546262E-02  0.81301720744E-03  0.17124000005E+03  0.17124000000E+03 0.  1.
     -611    1    1    2    0    0 -0.39363351755E-01  0.21780838717E-01  0.35445284988E+01  0.35448140174E+01  0.51109989000E-03 0.  1.
      611    1    1    2    0    0  0.33451142139E-01 -0.23687016879E-01  0.16501234281E+01  0.16506324978E+01  0.51109989000E-03 0. -1.
</event>
<event>
 6   3  0.2312675E+03  0.9118800E+02  0.7818608E-02  0.1180000E+00
       11   -1    0    0    0    0  0.00000000000E+00  0.00000000000E+00  0.54999999763E+01  0.55000000000E+01  0.51109989000E-03 0. -1.
     -623   -1    0    0    0    0  0.00000000000E+00  0.00000000000E+00  0.93234578044E-11  0.17124000000E+03  0.17124000000E+03 0. -1.
       11    1    1    2    0    0 -0.85270383965E-01 -0.16148551026E-02  0.10005623634E+01  0.10041906942E+01  0.51109989000E-03 0. -1.
     -623    1    1    2    0    0  0.82456240984E-03  0.21658816157E-02  0.44477191341E-02  0.17124000007E+03  0.17124000000E+03 0. -1.
     -611    1    1    2    0    0  0.48140250695E-01  0.22293908074E-02  0.29254033649E+01  0.29258003285E+01  0.51109989000E-03 0.  1.
      611    1    1    2    0    0  0.36305570860E-01 -0.27804173205E-02  0.15695865289E+01  0.15700089038E+01  0.51109989000E-03 0. -1.
</event>
<event>
 6   3  0.2312675E+03  0.9118800E+02  0.7818608E-02  0.1180000E+00
       11   -1    0    0    0    0  0.00000000000E+00  0.00000000000E+00  0.54999999763E+01  0.55000000000E+01  0.51109989000E-03 0.  1.
     -623   -1    0    0    0    0  0.00000000000E+00  0.00000000000E+00  0.93234578044E-11  0.17124000000E+03  0.17124000000E+03 0. -1.
       11    1    1    2    0    0  0.35098857779E-02  0.69389057201E-02  0.14852040060E-01  0.16772359041E-01  0.51109989000E-03 0.  1.
     -623    1    1    2    0    0 -0.19977700968E-01 -0.27825345408E-01  0.55192364867E-02  0.17124000352E+03  0.17124000000E+03 0. -1.
     -611    1    1    2    0    0 -0.57335907667E-01 -0.32661890845E-01  0.80308248975E+00  0.80578902449E+00  0.51109989000E-03 0. -1.
      611    1    1    2    0    0  0.73803722857E-01  0.53548330532E-01  0.46765462099E+01  0.46774351014E+01  0.51109989000E-03 0.  1.
</event>
<event>
 6   3  0.2312675E+03  0.9118800E+02  0.7818608E-02  0.1180000E+00
       11   -1    0    0    0    0  0.00000000000E+00  0.00000000000E+00  0.54999999763E+01  0.55000000000E+01  0.51109989000E-03 0.  1.
     -623   -1    0    0    0    0  0.00000000000E+00  0.00000000000E+00  0.93234578044E-11  0.17124000000E+03  0.17124000000E+03 0.  1.
       11    1    1    2    0    0 -0.52864521299E-01  0.17080883752E-01  0.69283643145E+00  0.69506042627E+00  0.51109989000E-03 0.  1.
     -623    1    1    2    0    0  0.89280656772E-03  0.23905030108E-01  0.26820146793E-02  0.17124000169E+03  0.17124000000E+03 0.  1.
     -611    1    1    2    0    0  0.14557015031E-01 -0.12374268616E-01  0.13594918278E+01  0.13596261693E+01  0.51109989000E-03 0. -1.
      611    1    1    2    0    0  0.37414699664E-01 -0.28611645215E-01  0.34449896990E+01  0.34453117092E+01  0.51109989000E-03 0.  1.
</event>
<event>
 6   3  0.2312675E+03  0.9118800E+02  0.7818608E-02  0.1180000E+00
       11   -1    0    0    0    0  0.00000000000E+00  0.00000000000E+00  0.54999999763E+01  0.55000000000E+01  0.51109989000E-03 0. -1.
     -623   -1    0    0    0    0  0.00000000000E+00  0.00000000000E+00  0.93234578044E-11  0.17124000000E+03  0.17124000000E+03 0.  1.
       11    1    1    2    0    0  0.33905215978E-02 -0.27133496388E-02  0.11311528744E-01  0.12127234169E-01  0.51109989000E-03 0. -1.
     -623    1    1    2    0    0  0.21072265205E-01  0.54782871202E-02  0.15570136356E-02  0.17124000139E+03  0.17124000000E+03 0.  1.
     -611    1    1    2    0    0  0.29261189876E-01 -0.13863922706E-01  0.14156142756E+01  0.14159846270E+01  0.51109989000E-03 0.  1.
      611    1    1    2    0    0 -0.53723976678E-01  0.11098985225E-01  0.40715171582E+01  0.40718867474E+01  0.51109989000E-03 0. -1.
</event>
<event>
 6   3  0.2312675E+03  0.9118800E+02  0.7818608E-02  0.1180000E+00
       11   -1    0    0    0    0  0.00000000000E+00  0.00000000000E+00  0.54999999763E+01  0.55000000000E+01  0.51109989000E-03 0.  1.
     -623   -1    0    0    0    0  0.00000000000E+00  0.00000000000E+00  0.93234578044E-11  0.17124000000E+03  0.17124000000E+03 0. -1.
       11    1    1    2    0    0 -0.68247434024E-01 -0.19911836846E-01  0.69909474105E+00  0.70270044235E+00  0.51109989000E-03 0.  1.
     -623    1    1    2    0    0  0.61983125236E-02 -0.19660676253E-01  0.41729156259E-02  0.17124000129E+03  0.17124000000E+03 0. -1.
     -611    1    1    2    0    0  0.21184824319E-01  0.14128095199E-01  0.17652056099E+01  0.17653893356E+01  0.51109989000E-03 0.  1.
      611    1    1    2    0    0  0.40864297173E-01  0.25444417895E-01  0.30315267090E+01  0.30319089296E+01  0.51109989000E-03 0.  1.
</event>
<event>
 6   3  0.2312675E+03  0.9118800E+02  0.7818608E-02  0.1180000E+00
       11   -1    0    0    0    0  0.00000000000E+00  0.00000000000E+00  0.54999999763E+01  0.55000000000E+01  0.51109989000E-03 0. -1.
     -623   -1    0    0    0    0  0.00000000000E+00  0.00000000000E+00  0.93234578044E-11  0.17124000000E+03  0.17124000000E+03 0.  1.
       11    1    1    2    0    0  0.11584849653E-01  0.14653350705E-01  0.23210942790E+00  0.23286042423E+00  0.51109989000E-03 0. -1.
     -623    1    1    2    0    0  0.46363830455E-02 -0.37250110411E-02  0.18085678612E-02  0.17124000011E+03  0.17124000000E+03 0.  1.
     -611    1    1    2    0    0 -0.52595721200E-01  0.17042927417E-01  0.21116607813E+01  0.21123845028E+01  0.51109989000E-03 0.  1.
      611    1    1    2    0    0  0.36374488501E-01 -0.27971267081E-01  0.31544211992E+01  0.31547549601E+01  0.51109989000E-03 0. -1.
</event>
<event>
 6   3  0.2312675E+03  0.9118800E+02  0.7818608E-02  0.1180000E+00
       11   -1    0    0    0    0  0.00000000000E+00  0.00000000000E+00  0.54999999763E+01  0.55000000000E+01  0.51109989000E-03 0.  1.
     -623   -1    0    0    0    0  0.00000000000E+00  0.00000000000E+00  0.93234578044E-11  0.17124000000E+03  0.17124000000E+03 0. -1.
       11    1    1    2    0    0  0.10644873496E-01 -0.29264113255E-02  0.70967816763E+00  0.70976421441E+00  0.51109989000E-03 0.  1.
     -623    1    1    2    0    0  0.53735774220E-01  0.20182613973E-01  0.57570600800E-03  0.17124000962E+03  0.17124000000E+03 0. -1.
     -611    1    1    2    0    0 -0.52968595008E-01 -0.18553412642E-01  0.38306703582E+01  0.38310815125E+01  0.51109989000E-03 0.  1.
      611    1    1    2    0    0 -0.11412052711E-01  0.12972099935E-02  0.95907574470E+00  0.95914465176E+00  0.51109989000E-03 0. -1.
</event>
<event>
 6   3  0.2312675E+03  0.9118800E+02  0.7818608E-02  0.1180000E+00
       11   -1    0    0    0    0  0.00000000000E+00  0.00000000000E+00  0.54999999763E+01  0.55000000000E+01  0.51109989000E-03 0. -1.
     -623   -1    0    0    0    0  0.00000000000E+00  0.00000000000E+00  0.93234578044E-11  0.17124000000E+03  0.17124000000E+03 0. -1.
       11    1    1    2    0    0  0.34577858929E-01 -0.36593481076E-01  0.10033152257E+01  0.10045777295E+01  0.51109989000E-03 0. -1.
     -623    1    1    2    0    0  0.18495078497E-01  0.17832500054E-01  0.16182081902E-02  0.17124000193E+03  0.17124000000E+03 0. -1.
     -611    1    1    2    0    0 -0.30019108743E-01  0.96548192762E-02  0.24062188014E+01  0.24064254703E+01  0.51109989000E-03 0. -1.
      611    1    1    2    0    0 -0.23053828688E-01  0.91061617480E-02  0.20888477414E+01  0.20889948657E+01  0.51109989000E-03 0.  1.
</event>
<event>
 6   3  0.2312675E+03  0.9118800E+02  0.7818608E-02  0.1180000E+00
       11   -1    0    0    0    0  0.00000000000E+00  0.00000000000E+00  0.54999999763E+01  0.55000000000E+01  0.51109989000E-03 0.  1.
     -623   -1    0    0    0    0  0.00000000000E+00  0.00000000000E+00  0.93234578044E-11  0.17124000000E+03  0.17124000000E+03 0. -1.
       11    1    1    2    0    0 -0.47619239248E-01 -0.14968547709E-01  0.53615821583E+00  0.53847705893E+00  0.51109989000E-03 0.  1.
     -623    1    1    2    0    0 -0.61648510787E-02 -0.26086120547E-02  0.26417872091E-02  0.17124000015E+03  0.17124000000E+03 0. -1.
     -611    1    1    2    0    0  0.27804595028E-01  0.94081230940E-02  0.25883375359E+01  0.25885040215E+01  0.51109989000E-03 0.  1.
      611    1    1    2    0    0  0.25979495203E-01  0.81690366380E-02  0.23728624284E+01  0.23730187594E+01  0.51109989000E-03 0.  1.
</event>
<event>
 6   3  0.2312675E+03  0.9118800E+02  0.7818608E-02  0.1180000E+00
       11   -1    0    0    0    0  0.00000000000E+00  0.00000000000E+00  0.54999999763E+01  0.55000000000E+01  0.51109989000E-03 0.  1.
     -623   -1    0    0    0    0  0.00000000000E+00  0.00000000000E+00  0.93234578044E-11  0.17124000000E+03  0.17124000000E+03 0.  1.
       11    1    1    2    0    0  0.15703227303E-01 -0.35773495032E-02  0.68081873661E+00  0.68100939944E+00  0.51109989000E-03 0.  1.
     -623    1    1    2    0    0  0.17069810996E-02  0.39055319831E-02  0.91824949992E-03  0.17124000006E+03  0.17124000000E+03 0.  1.
     -611    1    1    2    0    0  0.22107791781E-01 -0.26435711857E-01  0.15415951689E+01  0.15419803913E+01  0.51109989000E-03 0. -1.
      611    1    1    2    0    0 -0.39518000184E-01  0.26107529378E-01  0.32766678212E+01  0.32770101537E+01  0.51109989000E-03 0.  1.
</event>
<event>
 6   3  0.2312675E+03  0.9118800E+02  0.7818608E-02  0.1180000E+00
       11   -1    0    0    0    0  0.00000000000E+00  0.00000000000E+00  0.54999999763E+01  0.55000000000E+01  0.51109989000E-03 0.  1.
     -623   -1    0    0    0    0  0.00000000000E+00  0.00000000000E+00  0.93234578044E-11  0.17124000000E+03  0.17124000000E+03 0. -1.
       11    1    1    2    0    0 -0.39686958934E-02  0.16811122867E-01  0.70007815598E+00  0.70029140370E+00  0.51109989000E-03 0.  1.
     -623    1    1    2    0    0  0.65030362091E-02 -0.56865930082E-02  0.15115898753E-02  0.17124000022E+03  0.17124000000E+03 0. -1.
     -611    1    1    2    0    0 -0.49235205513E-01  0.36195105104E-02  0.35418296616E+01  0.35421737421E+01  0.51109989000E-03 0.  1.
      611    1    1    2    0    0  0.46700865197E-01 -0.14744040369E-01  0.12565805688E+01  0.12575346296E+01  0.51109989000E-03 0. -1.
</event>
<event>
 6   3  0.2312675E+03  0.9118800E+02  0.7818608E-02  0.1180000E+00
       11   -1    0    0    0    0  0.00000000000E+00  0.00000000000E+00  0.54999999763E+01  0.55000000000E+01  0.51109989000E-03 0.  1.
     -623   -1    0    0    0    0  0.00000000000E+00  0.00000000000E+00  0.93234578044E-11  0.17124000000E+03  0.17124000000E+03 0.  1.
       11    1    1    2    0    0  0.52312815243E-03  0.34159115207E-03  0.24093310719E-02  0.25409539332E-02  0.51109989000E-03 0.  1.
     -623    1    1    2    0    0 -0.10974546780E-02 -0.12367251552E-02  0.78109848298E-03  0.17124000001E+03  0.17124000000E+03 0.  1.
     -611    1    1    2    0    0 -0.34509348876E-01 -0.22088439877E-01  0.32467312355E+01  0.32469898015E+01  0.51109989000E-03 0.  1.
      611    1    1    2    0    0  0.35083675402E-01  0.22983573880E-01  0.22500783113E+01  0.22504692349E+01  0.51109989000E-03 0. -1.
</event>
<event>
 6   3  0.2312675E+03  0.9118800E+02  0.7818608E-02  0.1180000E+00
       11   -1    0    0    0    0  0.00000000000E+00  0.00000000000E+00  0.54999999763E+01  0.55000000000E+01  0.51109989000E-03 0. -1.
     -623   -1    0    0    0    0  0.00000000000E+00  0.00000000000E+00  0.93234578044E-11  0.17124000000E+03  0.17124000000E+03 0. -1.
       11    1    1    2    0    0 -0.36937772086E-02  0.50436343884E-02  0.48413789139E-01  0.48818423160E-01  0.51109989000E-03 0. -1.
     -623    1    1    2    0    0  0.11232203318E-01  0.24171739223E-02  0.24200524748E-02  0.17124000040E+03  0.17124000000E+03 0. -1.
     -611    1    1    2    0    0 -0.65551463515E-01 -0.53383774896E-02  0.43387716621E+01  0.43392701333E+01  0.51109989000E-03 0. -1.
      611    1    1    2    0    0  0.58013037405E-01 -0.21224308211E-02  0.11103944725E+01  0.11119110410E+01  0.51109989000E-03 0.  1.
</event>
<event>
 6   3  0.2312675E+03  0.9118800E+02  0.7818608E-02  0.1180000E+00
       11   -1    0    0    0    0  0.00000000000E+00  0.00000000000E+00  0.54999999763E+01  0.55000000000E+01  0.51109989000E-03 0. -1.
     -623   -1    0    0    0    0  0.00000000000E+00  0.00000000000E+00  0.93234578044E-11  0.17124000000E+03  0.17124000000E+03 0. -1.
       11    1    1    2    0    0  0.20206786327E-02  0.10609982909E-01  0.27734542286E+00  0.27755611988E+00  0.51109989000E-03 0. -1.
     -623    1    1    2    0    0  0.79537643275E-02 -0.93062457772E-03  0.13549155193E-02  0.17124000019E+03  0.17124000000E+03 0. -1.
     -611    1    1    2    0    0  0.36884393616E-01 -0.38901088875E-01  0.28145162261E+01  0.28150267497E+01  0.51109989000E-03 0.  1.
      611    1    1    2    0    0 -0.46858836576E-01  0.29221730544E-01  0.24067834117E+01  0.24074169377E+01  0.51109989000E-03 0. -1.
</event>
<event>
 6   3  0.2312675E+03  0.9118800E+02  0.7818608E-02  0.1180000E+00
       11   -1    0    0    0    0  0.00000000000E+00  0.00000000000E+00  0.54999999763E+01  0.55000000000E+01  0.51109989000E-03 0. -1.
     -623   -1    0    0    0    0  0.00000000000E+00  0.00000000000E+00  0.93234578044E-11  0.17124000000E+03  0.17124000000E+03 0. -1.
       11    1    1    2    0    0 -0.17671437025E-01 -0.56385566312E-02  0.24792161913E-01  0.30967491387E-01  0.51109989000E-03 0. -1.
     -623    1    1    2    0    0  0.20350370936E-03  0.83495449773E-02  0.84819308656E-02  0.17124000041E+03  0.17124000000E+03 0. -1.
     -611    1    1    2    0    0 -0.37572063257E-01  0.55201748358E-01  0.14800166506E+01  0.14815223387E+01  0.51109989000E-03 0.  1.
      611    1    1    2    0    0  0.55039996573E-01 -0.57912736704E-01  0.39867092329E+01  0.39875097561E+01  0.51109989000E-03 0. -1.
</event>
<event>
 6   3  0.2312675E+03  0.9118800E+02  0.7818608E-02  0.1180000E+00
       11   -1    0    0    0    0  0.00000000000E+00  0.00000000000E+00  0.54999999763E+01  0.55000000000E+01  0.51109989000E-03 0. -1.
     -623   -1    0    0    0    0  0.00000000000E+00  0.00000000000E+00  0.93234578044E-11  0.17124000000E+03  0.17124000000E+03 0. -1.
       11    1    1    2    0    0 -0.49073614518E-01 -0.17577169990E-01  0.71638937111E+00  0.71828348778E+00  0.51109989000E-03 0. -1.
     -623    1    1    2    0    0 -0.14187776586E-02  0.40301977824E-02  0.22242500695E-02  0.17124000007E+03  0.17124000000E+03 0. -1.
     -611    1    1    2    0    0  0.33838976523E-01 -0.83492143742E-03  0.31413324451E+01  0.31415148519E+01  0.51109989000E-03 0. -1.
      611    1    1    2    0    0  0.16653415653E-01  0.14381893645E-01  0.16400539101E+01  0.16402015926E+01  0.51109989000E-03 0.  1.
</event>
<event>
 6   3  0.2312675E+03  0.9118800E+02  0.7818608E-02  0.1180000E+00
       11   -1    0    0    0    0  0.00000000000E+00  0.00000000000E+00  0.54999999763E+01  0.55000000000E+01  0.51109989000E-03 0.  1.
     -623   -1    0    0    0    0  0.00000000000E+00  0.00000000000E+00  0.93234578044E-11  0.17124000000E+03  0.17124000000E+03 0. -1.
       11    1    1    2    0    0  0.19102718243E-01  0.95711113890E-02  0.43700120792E-01  0.48646498310E-01  0.51109989000E-03 0.  1.
     -623    1    1    2    0    0  0.36904141877E-02  0.14760081072E-01  0.71707831085E-02  0.17124000083E+03  0.17124000000E+03 0. -1.
     -611    1    1    2    0    0 -0.66914394843E-01 -0.53164647309E-01  0.20055097707E+01  0.20073299972E+01  0.51109989000E-03 0. -1.
      611    1    1    2    0    0  0.44121262412E-01  0.28833454848E-01  0.34436193017E+01  0.34440226785E+01  0.51109989000E-03 0.  1.
</event>
<event>
 6   3  0.2312675E+03  0.9118800E+02  0.7818608E-02  0.1180000E+00
       11   -1    0    0    0    0  0.00000000000E+00  0.00000000000E+00  0.54999999763E+01  0.55000000000E+01  0.51109989000E-03 0. -1.
     -623   -1    0    0    0    0  0.00000000000E+00  0.00000000000E+00  0.93234578044E-11  0.17124000000E+03  0.17124000000E+03 0.  1.
       11    1    1    2    0    0 -0.65137900551E-02  0.16213838653E-01  0.12763688367E+00  0.12882838710E+00  0.51109989000E-03 0. -1.
     -623    1    1    2    0    0 -0.51184877901E-02 -0.26132608861E-02  0.31085576155E-02  0.17124000012E+03  0.17124000000E+03 0.  1.
     -611    1    1    2    0    0 -0.57324657080E-01  0.73371148807E-03  0.36835908319E+01  0.36840369613E+01  0.51109989000E-03 0. -1.
      611    1    1    2    0    0  0.68956934925E-01 -0.14334289255E-01  0.16856637031E+01  0.16871345269E+01  0.51109989000E-03 0.  1.
</event>
<event>
 6   3  0.2312675E+03  0.9118800E+02  0.7818608E-02  0.1180000E+00
       11   -1    0    0    0    0  0.00000000000E+00  0.00000000000E+00  0.54999999763E+01  0.55000000000E+01  0.51109989000E-03 0.  1.
     -623   -1    0    0    0    0  0.00000000000E+00  0.00000000000E+00  0.93234578044E-11  0.17124000000E+03  0.17124000000E+03 0. -1.
       11    1    1    2    0    0 -0.83416301034E-01 -0.89585042936E-03  0.48284105971E+00  0.48999472649E+00  0.51109989000E-03 0.  1.
     -623    1    1    2    0    0  0.26000482215E-01 -0.60968078900E-02  0.74924000391E-02  0.17124000225E+03  0.17124000000E+03 0. -1.
     -611    1    1    2    0    0  0.18770036106E-01  0.31537414778E-02  0.14645510248E+01  0.14646747850E+01  0.51109989000E-03 0. -1.
      611    1    1    2    0    0  0.38645782707E-01  0.38389168408E-02  0.35451154912E+01  0.35453282416E+01  0.51109989000E-03 0.  1.
</event>
<event>
 6   3  0.2312675E+03  0.9118800E+02  0.7818608E-02  0.1180000E+00
       11   -1    0    0    0    0  0.00000000000E+00  0.00000000000E+00  0.54999999763E+01  0.55000000000E+01  0.51109989000E-03 0. -1.
     -623   -1    0    0    0    0  0.00000000000E+00  0.00000000000E+00  0.93234578044E-11  0.17124000000E+03  0.17124000000E+03 0.  1.
       11    1    1    2    0    0 -0.24575643931E-01 -0.14973361511E-01  0.71869388929E+00  0.71926999907E+00  0.51109989000E-03 0. -1.
     -623    1    1    2    0    0 -0.23294988898E-03 -0.42439629930E-02  0.13369652646E-02  0.17124000006E+03  0.17124000000E+03 0.  1.
     -611    1    1    2    0    0 -0.26252835049E-01 -0.71522674539E-02  0.18132778513E+01  0.18134820632E+01  0.51109989000E-03 0. -1.
      611    1    1    2    0    0  0.51061428869E-01  0.26369591958E-01  0.29666912704E+01  0.29672478797E+01  0.51109989000E-03 0.  1.
</event>
<event>
 6   3  0.2312675E+03  0.9118800E+02  0.7818608E-02  0.1180000E+00
       11   -1    0    0    0    0  0.00000000000E+00  0.00000000000E+00  0.54999999763E+01  0.55000000000E+01  0.51109989000E-03 0.  1.
     -623   -1    0    0    0    0  0.00000000000E+00  0.00000000000E+00  0.93234578044E-11  0.17124000000E+03  0.17124000000E+03 0.  1.
       11    1    1    2    0    0 -0.67290965735E-03  0.15643144101E-01  0.41976913072E+00  0.42006135873E+00  0.51109989000E-03 0.  1.
     -623    1    1    2    0    0 -0.12483205656E+00 -0.22023430649E-01  0.20308940613E-02  0.17124004693E+03  0.17124000000E+03 0.  1.
     -611    1    1    2    0    0  0.38273369608E-01 -0.13407068296E-01  0.19026421632E+01  0.19030743713E+01  0.51109989000E-03 0. -1.
      611    1    1    2    0    0  0.87231596609E-01  0.19787354844E-01  0.31755577884E+01  0.31768173412E+01  0.51109989000E-03 0.  1.
</event>
<event>
 6   3  0.2312675E+03  0.9118800E+02  0.7818608E-02  0.1180000E+00
       11   -1    0    0    0    0  0.00000000000E+00  0.00000000000E+00  0.54999999763E+01  0.55000000000E+01  0.51109989000E-03 0. -1.
     -623   -1    0    0    0    0  0.00000000000E+00  0.00000000000E+00  0.93234578044E-11  0.17124000000E+03  0.17124000000E+03 0. -1.
       11    1    1    2    0    0  0.27519902287E-01  0.32603995779E-02  0.33843624585E+00  0.33956932865E+00  0.51109989000E-03 0. -1.
     -623    1    1    2    0    0 -0.25497982825E-02 -0.11616678399E-01  0.35815976264E-02  0.17124000045E+03  0.17124000000E+03 0. -1.
     -611    1    1    2    0    0  0.40599242835E-01 -0.45550389973E-01  0.12119133001E+01  0.12134484929E+01  0.51109989000E-03 0.  1.
      611    1    1    2    0    0 -0.65569346839E-01  0.53906668794E-01  0.39460688327E+01  0.39469817280E+01  0.51109989000E-03 0. -1.
</event>
<event>
 6   3  0.2312675E+03  0.9118800E+02  0.7818608E-02  0.1180000E+00
       11   -1    0    0    0    0  0.00000000000E+00  0.00000000000E+00  0.54999999763E+01  0.55000000000E+01  0.51109989000E-03 0. -1.
     -623   -1    0    0    0    0  0.00000000000E+00  0.00000000000E+00  0.93234578044E-11  0.17124000000E+03  0.17124000000E+03 0.  1.
       11    1    1    2    0    0 -0.66390671282E-01 -0.24794231601E-01  0.37331000167E+00  0.37997775425E+00  0.51109989000E-03 0. -1.
     -623    1    1    2    0    0 -0.41175338948E-02  0.20925542340E-01  0.71568785715E-02  0.17124000148E+03  0.17124000000E+03 0.  1.
     -611    1    1    2    0    0  0.35126705376E-01  0.30643524889E-02  0.25907320848E+01  0.25909720709E+01  0.51109989000E-03 0. -1.
      611    1    1    2    0    0  0.35381499815E-01  0.80433677259E-03  0.25288010123E+01  0.25290486983E+01  0.51109989000E-03 0.  1.
</event>
<event>
 6   3  0.2312675E+03  0.9118800E+02  0.7818608E-02  0.1180000E+00
       11   -1    0    0    0    0  0.00000000000E+00  0.00000000000E+00  0.54999999763E+01  0.55000000000E+01  0.51109989000E-03 0.  1.
     -623   -1    0    0    0    0  0.00000000000E+00  0.00000000000E+00  0.93234578044E-11  0.17124000000E+03  0.17124000000E+03 0. -1.
       11    1    1    2    0    0  0.10656519354E-02  0.31617700802E-03  0.67709119617E+00  0.67709230149E+00  0.51109989000E-03 0.  1.
     -623    1    1    2    0    0  0.41179405260E-01 -0.16036189431E-01  0.51474694749E-03  0.17124000570E+03  0.17124000000E+03 0. -1.
     -611    1    1    2    0    0 -0.55161081493E-01  0.14242418205E-01  0.38886403959E+01  0.38890577241E+01  0.51109989000E-03 0.  1.
      611    1    1    2    0    0  0.12916024300E-01  0.14775942172E-02  0.93375363698E+00  0.93384427115E+00  0.51109989000E-03 0. -1.
</event>
<event>
 6   3  0.2312675E+03  0.9118800E+02  0.7818608E-02  0.1180000E+00
       11   -1    0    0    0    0  0.00000000000E+00  0.00000000000E+00  0.54999999763E+01  0.55000000000E+01  0.51109989000E-03 0.  1.
     -623   -1    0    0    0    0  0.00000000000E+00  0.00000000000E+00  0.93234578044E-11  0.17124000000E+03  0.17124000000E+03 0.  1.
       11    1    1    2    0    0 -0.28293197709E-01 -0.81258029038E-02  0.32319581311E+00  0.32453401755E+00  0.51109989000E-03 0.  1.
     -623    1    1    2    0    0  0.61385317902E-02 -0.21552524907E-01  0.19645558837E-02  0.17124000148E+03  0.17124000000E+03 0.  1.
     -611    1    1    2    0    0  0.45356256862E-01  0.10793011330E-01  0.38754315746E+01  0.38757120416E+01  0.51109989000E-03 0.  1.
      611    1    1    2    0    0 -0.23201590943E-01  0.18885316481E-01  0.12994080327E+01  0.12997524632E+01  0.51109989000E-03 0. -1.
</event>
<event>
 6   3  0.2312675E+03  0.9118800E+02  0.7818608E-02  0.1180000E+00
       11   -1    0    0    0    0  0.00000000000E+00  0.00000000000E+00  0.54999999763E+01  0.55000000000E+01  0.51109989000E-03 0.  1.
     -623   -1    0    0    0    0  0.00000000000E+00  0.00000000000E+00  0.93234578044E-11  0.17124000000E+03  0.17124000000E+03 0. -1.
       11    1    1    2    0    0 -0.89856724180E-01 -0.60706588333E-01  0.10190125489E+01  0.10247664889E+01  0.51109989000E-03 0.  1.
     -623    1    1    2    0    0 -0.15827681063E-01 -0.11201198970E-01  0.77367363567E-02  0.17124000127E+03  0.17124000000E+03 0. -1.
     -611    1    1    2    0    0  0.38159451905E-01  0.44131317514E-01  0.16289859438E+01  0.16300304240E+01  0.51109989000E-03 0.  1.
      611    1    1    2    0    0  0.67524953339E-01  0.27776469789E-01  0.28442647472E+01  0.28452018144E+01  0.51109989000E-03 0. -1.
</event>
<event>
 6   3  0.2312675E+03  0.9118800E+02  0.7818608E-02  0.1180000E+00
       11   -1    0    0    0    0  0.00000000000E+00  0.00000000000E+00  0.54999999763E+01  0.55000000000E+01  0.51109989000E-03 0.  1.
     -623   -1    0    0    0    0  0.00000000000E+00  0.00000000000E+00  0.93234578044E-11  0.17124000000E+03  0.17124000000E+03 0.  1.
       11    1    1    2    0    0 -0.67361736393E-02  0.27883630191E-01  0.89513683462E+00  0.89559649775E+00  0.51109989000E-03 0.  1.
     -623    1    1    2    0    0 -0.68860069766E-02 -0.55679230874E-01  0.16831478083E-02  0.17124000920E+03  0.17124000000E+03 0.  1.
     -611    1    1    2    0    0 -0.40076734877E-01  0.10691863859E-01  0.11375586403E+01  0.11383147113E+01  0.51109989000E-03 0.  1.
      611    1    1    2    0    0  0.53698915493E-01  0.17103736825E-01  0.34656213536E+01  0.34660795921E+01  0.51109989000E-03 0. -1.
</event>
<event>
 6   3  0.2312675E+03  0.9118800E+02  0.7818608E-02  0.1180000E+00
       11   -1    0    0    0    0  0.00000000000E+00  0.00000000000E+00  0.54999999763E+01  0.55000000000E+01  0.51109989000E-03 0. -1.
     -623   -1    0    0    0    0  0.00000000000E+00  0.00000000000E+00  0.93234578044E-11  0.17124000000E+03  0.17124000000E+03 0. -1.
       11    1    1    2    0    0 -0.18784745298E-02  0.50030050357E-02  0.21020167563E+00  0.21027021754E+00  0.51109989000E-03 0. -1.
     -623    1    1    2    0    0  0.64272992984E-01 -0.23177524358E-01  0.48163770395E-03  0.17124001363E+03  0.17124000000E+03 0. -1.
     -611    1    1    2    0    0 -0.42592478482E-01  0.12175473798E-01  0.35602330713E+01  0.35605086919E+01  0.51109989000E-03 0. -1.
      611    1    1    2    0    0 -0.19802039990E-01  0.59990455301E-02  0.17290835931E+01  0.17292074608E+01  0.51109989000E-03 0. -1.
</event>
<event>
 6   3  0.2312675E+03  0.9118800E+02  0.7818608E-02  0.1180000E+00
       11   -1    0    0    0    0  0.00000000000E+00  0.00000000000E+00  0.54999999763E+01  0.55000000000E+01  0.51109989000E-03 0.  1.
     -623   -1    0    0    0    0  0.00000000000E+00  0.00000000000E+00  0.93234578044E-11  0.17124000000E+03  0.17124000000E+03 0. -1.
       11    1    1    2    0    0 -0.14684780773E-04  0.15196173769E-03  0.18879943995E-03  0.56584126625E-03  0.51109989000E-03 0. -1.
     -623    1    1    2    0    0 -0.97822710689E-03  0.17996792523E-02  0.13060663774E-02  0.17124000002E+03  0.17124000000E+03 0. -1.
     -611    1    1    2    0    0 -0.49426795810E-01 -0.73429767008E-02  0.29735475352E+01  0.29739674061E+01  0.51109989000E-03 0. -1.
      611    1    1    2    0    0  0.50419707697E-01  0.53913357109E-02  0.25249575752E+01  0.25254667353E+01  0.51109989000E-03 0.  1.
</event>
<event>
 6   3  0.2312675E+03  0.9118800E+02  0.7818608E-02  0.1180000E+00
       11   -1    0    0    0    0  0.00000000000E+00  0.00000000000E+00  0.54999999763E+01  0.55000000000E+01  0.51109989000E-03 0.  1.
     -623   -1    0    0    0    0  0.00000000000E+00  0.00000000000E+00  0.93234578044E-11  0.17124000000E+03  0.17124000000E+03 0.  1.
       11    1    1    2    0    0  0.93007109725E-02  0.68217219634E-02  0.18940548698E+00  0.18975705214E+00  0.51109989000E-03 0.  1.
     -623    1    1    2    0    0 -0.65510625492E-01  0.63369964592E-01  0.11381064752E-02  0.17124002426E+03  0.17124000000E+03 0.  1.
     -611    1    1    2    0    0  0.44350348492E-01 -0.55534463338E-01  0.41292924944E+01  0.41299040903E+01  0.51109989000E-03 0.  1.
      611    1    1    2    0    0  0.11859566041E-01 -0.14657223235E-01  0.11801638897E+01  0.11803145985E+01  0.51109989000E-03 0. -1.
</event>
<event>
 6   3  0.2312675E+03  0.9118800E+02  0.7818608E-02  0.1180000E+00
       11   -1    0    0    0    0  0.00000000000E+00  0.00000000000E+00  0.54999999763E+01  0.55000000000E+01  0.51109989000E-03 0. -1.
     -623   -1    0    0    0    0  0.00000000000E+00  0.00000000000E+00  0.93234578044E-11  0.17124000000E+03  0.17124000000E+03 0. -1.
       11    1    1    2    0    0  0.16237625359E-02  0.11459703053E-01  0.25594205842E+00  0.25620413714E+00  0.51109989000E-03 0. -1.
     -623    1    1    2    0    0 -0.23921152680E-02 -0.64622139551E-02  0.14545094190E-02  0.17124000014E+03  0.17124000000E+03 0. -1.
     -611    1    1    2    0    0  0.39020752734E-01 -0.40448114706E-01  0.20668274115E+01  0.20675914681E+01  0.51109989000E-03 0.  1.
      611    1    1    2    0    0 -0.38252400002E-01  0.35450625608E-01  0.31757759970E+01  0.31762042499E+01  0.51109989000E-03 0. -1.
</event>
<event>
 6   3  0.2312675E+03  0.9118800E+02  0.7818608E-02  0.1180000E+00
       11   -1    0    0    0    0  0.00000000000E+00  0.00000000000E+00  0.54999999763E+01  0.55000000000E+01  0.51109989000E-03 0. -1.
     -623   -1    0    0    0    0  0.00000000000E+00  0.00000000000E+00  0.93234578044E-11  0.17124000000E+03  0.17124000000E+03 0. -1.
       11    1    1    2    0    0 -0.21407829346E-01  0.82078733203E-03  0.50006172775E+00  0.50052069052E+00  0.51109989000E-03 0. -1.
     -623    1    1    2    0    0 -0.56424637197E-01  0.20582209676E-01  0.12184807377E-02  0.17124001054E+03  0.17124000000E+03 0. -1.
     -611    1    1    2    0    0  0.46751647881E-01 -0.63472242834E-02  0.36575831942E+01  0.36578875170E+01  0.51109989000E-03 0. -1.
      611    1    1    2    0    0  0.31080818660E-01 -0.15055772724E-01  0.13411365735E+01  0.13415812549E+01  0.51109989000E-03 0.  1.
</event>
<event>
 6   3  0.2312675E+03  0.9118800E+02  0.7818608E-02  0.1180000E+00
       11   -1    0    0    0    0  0.00000000000E+00  0.00000000000E+00  0.54999999763E+01  0.55000000000E+01  0.51109989000E-03 0. -1.
     -623   -1    0    0    0    0  0.00000000000E+00  0.00000000000E+00  0.93234578044E-11  0.17124000000E+03  0.17124000000E+03 0.  1.
       11    1    1    2    0    0  0.16122975352E-01 -0.76479258026E-02  0.76909425384E+00  0.76930141922E+00  0.51109989000E-03 0. -1.
     -623    1    1    2    0    0 -0.20040750006E-01 -0.11419047272E-01  0.62780168476E-03  0.17124000155E+03  0.17124000000E+03 0.  1.
     -611    1    1    2    0    0 -0.22459248915E-01  0.25965916349E-01  0.21380409000E+01  0.21383165803E+01  0.51109989000E-03 0. -1.
      611    1    1    2    0    0  0.26377023569E-01 -0.68989432752E-02  0.25922370207E+01  0.25923804457E+01  0.51109989000E-03 0.  1.
</event>
<event>
 6   3  0.2312675E+03  0.9118800E+02  0.7818608E-02  0.1180000E+00
       11   -1    0    0    0    0  0.00000000000E+00  0.00000000000E+00  0.54999999763E+01  0.55000000000E+01  0.51109989000E-03 0.  1.
     -623   -1    0    0    0    0  0.00000000000E+00  0.00000000000E+00  0.93234578044E-11  0.17124000000E+03  0.17124000000E+03 0.  1.
       11    1    1    2    0    0 -0.15313260240E-02 -0.22449015828E-02  0.77152069780E+00  0.77152565278E+00  0.51109989000E-03 0.  1.
     -623    1    1    2    0    0 -0.46143906930E-01  0.23661474305E-03  0.25209061847E-03  0.17124000622E+03  0.17124000000E+03 0.  1.
     -611    1    1    2    0    0  0.13654959452E-01  0.34591535048E-03  0.13598568818E+01  0.13599255780E+01  0.51109989000E-03 0.  1.
      611    1    1    2    0    0  0.34020273512E-01  0.16623714890E-02  0.33683703073E+01  0.33685425529E+01  0.51109989000E-03 0.  1.
</event>
<event>
 6   3  0.2312675E+03  0.9118800E+02  0.7818608E-02  0.1180000E+00
       11   -1    0    0    0    0  0.00000000000E+00  0.00000000000E+00  0.54999999763E+01  0.55000000000E+01  0.51109989000E-03 0. -1.
     -623   -1    0    0    0    0  0.00000000000E+00  0.00000000000E+00  0.93234578044E-11  0.17124000000E+03  0.17124000000E+03 0. -1.
       11    1    1    2    0    0  0.13230263811E-01  0.18592586302E-01  0.69660822357E-01  0.73304948949E-01  0.51109989000E-03 0. -1.
     -623    1    1    2    0    0  0.65445415932E-01 -0.80776345064E-01  0.46026096899E-02  0.17124003162E+03  0.17124000000E+03 0. -1.
     -611    1    1    2    0    0 -0.66790218549E-01  0.52667571309E-01  0.45935820113E+01  0.45943694629E+01  0.51109989000E-03 0. -1.
      611    1    1    2    0    0 -0.11885461224E-01  0.95161874759E-02  0.83215453495E+00  0.83229397047E+00  0.51109989000E-03 0. -1.
</event>
<event>
 6   3  0.2312675E+03  0.9118800E+02  0.7818608E-02  0.1180000E+00
       11   -1    0    0    0    0  0.00000000000E+00  0.00000000000E+00  0.54999999763E+01  0.55000000000E+01  0.51109989000E-03 0. -1.
     -623   -1    0    0    0    0  0.00000000000E+00  0.00000000000E+00  0.93234578044E-11  0.17124000000E+03  0.17124000000E+03 0. -1.
       11    1    1    2    0    0  0.10386574094E-02  0.39144156814E-02  0.57196048530E+00  0.57197505140E+00  0.51109989000E-03 0. -1.
     -623    1    1    2    0    0 -0.16078331890E-03  0.21394855838E-02  0.71415737792E-03  0.17124000001E+03  0.17124000000E+03 0. -1.
     -611    1    1    2    0    0 -0.38366144756E-01  0.15500750915E-02  0.34147601643E+01  0.34149760768E+01  0.51109989000E-03 0. -1.
      611    1    1    2    0    0  0.37488270666E-01 -0.76039763567E-02  0.15125651693E+01  0.15130488569E+01  0.51109989000E-03 0.  1.
</event>
<event>
 6   3  0.2312675E+03  0.9118800E+02  0.7818608E-02  0.1180000E+00
       11   -1    0    0    0    0  0.00000000000E+00  0.00000000000E+00  0.54999999763E+01  0.55000000000E+01  0.51109989000E-03 0.  1.
     -623   -1    0    0    0    0  0.00000000000E+00  0.00000000000E+00  0.93234578044E-11  0.17124000000E+03  0.17124000000E+03 0. -1.
       11    1    1    2    0    0  0.67758192188E-02 -0.12817620575E-01  0.97293709397E-01  0.98369356177E-01  0.51109989000E-03 0.  1.
     -623    1    1    2    0    0 -0.19367616558E-02  0.10621558100E-01  0.30926661371E-02  0.17124000037E+03  0.17124000000E+03 0. -1.
     -611    1    1    2    0    0 -0.63535140649E-01 -0.28170869101E-01  0.16907741316E+01  0.16922020380E+01  0.51109989000E-03 0. -1.
      611    1    1    2    0    0  0.58696083086E-01  0.30366931577E-01  0.37088394690E+01  0.37094282375E+01  0.51109989000E-03 0.  1.
</event>
<event>
 6   3  0.2312675E+03  0.9118800E+02  0.7818608E-02  0.1180000E+00
       11   -1    0    0    0    0  0.00000000000E+00  0.00000000000E+00  0.54999999763E+01  0.55000000000E+01  0.51109989000E-03 0. -1.
     -623   -1    0    0    0    0  0.00000000000E+00  0.00000000000E+00  0.93234578044E-11  0.17124000000E+03  0.17124000000E+03 0. -1.
       11    1    1    2    0    0 -0.91055743426E-02  0.93321509700E-03  0.11475097088E+00  0.11511658836E+00  0.51109989000E-03 0. -1.
     -623    1    1    2    0    0  0.53664938143E-04  0.32824986799E-02  0.96461283789E-03  0.17124000003E+03  0.17124000000E+03 0. -1.
     -611    1    1    2    0    0 -0.34043877709E-01  0.46734610841E-02  0.29611797607E+01  0.29613791826E+01  0.51109989000E-03 0. -1.
      611    1    1    2    0    0  0.43095787113E-01 -0.88891748610E-02  0.24231046319E+01  0.24235041949E+01  0.51109989000E-03 0.  1.
</event>
<event>
 6   3  0.2312675E+03  0.9118800E+02  0.7818608E-02  0.1180000E+00
       11   -1    0    0    0    0  0.00000000000E+00  0.00000000000E+00  0.54999999763E+01  0.55000000000E+01  0.51109989000E-03 0.  1.
     -623   -1    0    0    0    0  0.00000000000E+00  0.00000000000E+00  0.93234578044E-11  0.17124000000E+03  0.17124000000E+03 0. -1.
       11    1    1    2    0    0  0.56828706407E-02  0.29799761451E-01  0.39540016864E+00  0.39656257436E+00  0.51109989000E-03 0.  1.
     -623    1    1    2    0    0 -0.25496731509E-01  0.13724396150E-01  0.22991829493E-02  0.17124000246E+03  0.17124000000E+03 0. -1.
     -611    1    1    2    0    0 -0.38192706286E-01 -0.10737722442E-01  0.15389188665E+01  0.15394302584E+01  0.51109989000E-03 0.  1.
      611    1    1    2    0    0  0.58006567154E-01 -0.32786435159E-01  0.35633817582E+01  0.35640047037E+01  0.51109989000E-03 0. -1.
</event>
<event>
 6   3  0.2312675E+03  0.9118800E+02  0.7818608E-02  0.1180000E+00
       11   -1    0    0    0    0  0.00000000000E+00  0.00000000000E+00  0.54999999763E+01  0.55000000000E+01  0.51109989000E-03 0. -1.
     -623   -1    0    0    0    0  0.00000000000E+00  0.00000000000E+00  0.93234578044E-11  0.17124000000E+03  0.17124000000E+03 0. -1.
       11    1    1    2    0    0  0.30434207437E-02  0.13645653837E-01  0.62073232999E-01  0.63630289615E-01  0.51109989000E-03 0. -1.
     -623    1    1    2    0    0 -0.42241064145E-02 -0.13539252660E-01  0.23474518480E-02  0.17124000060E+03  0.17124000000E+03 0. -1.
     -611    1    1    2    0    0  0.35414951542E-01  0.30046144764E-01  0.24339187512E+01  0.24343618749E+01  0.51109989000E-03 0.  1.
      611    1    1    2    0    0 -0.34234265872E-01 -0.30152545941E-01  0.30016605402E+01  0.30020072320E+01  0.51109989000E-03 0. -1.
</event>
<event>
 6   3  0.2312675E+03  0.9118800E+02  0.7818608E-02  0.1180000E+00
       11   -1    0    0    0    0  0.00000000000E+00  0.00000000000E+00  0.54999999763E+01  0.55000000000E+01  0.51109989000E-03 0. -1.
     -623   -1    0    0    0    0  0.00000000000E+00  0.00000000000E+00  0.93234578044E-11  0.17124000000E+03  0.17124000000E+03 0. -1.
       11    1    1    2    0    0 -0.28747310147E-02 -0.43035462088E-02  0.72519204373E-01  0.72705438685E-01  0.51109989000E-03 0. -1.
     -623    1    1    2    0    0 -0.55584400716E-02 -0.90074459047E-03  0.92205526687E-03  0.17124000010E+03  0.17124000000E+03 0. -1.
     -611    1    1    2    0    0 -0.36912444273E-01  0.22477393795E-02  0.35196716738E+01  0.35198659823E+01  0.51109989000E-03 0. -1.
      611    1    1    2    0    0  0.45345615359E-01  0.29565514198E-02  0.19068870428E+01  0.19074284839E+01  0.51109989000E-03 0.  1.
</event>
<event>
 6   3  0.2312675E+03  0.9118800E+02  0.7818608E-02  0.1180000E+00
       11   -1    0    0    0    0  0.00000000000E+00  0.00000000000E+00  0.54999999763E+01  0.55000000000E+01  0.51109989000E-03 0. -1.
     -623   -1    0    0    0    0  0.00000000000E+00  0.00000000000E+00  0.93234578044E-11  0.17124000000E+03  0.17124000000E+03 0. -1.
       11    1    1    2    0    0  0.30913970754E-01  0.11790215442E+00  0.68520298842E+00  0.69595976045E+00  0.51109989000E-03 0. -1.
     -623    1    1    2    0    0 -0.11618931182E-01  0.20818559197E-01  0.20423118038E-01  0.17124000288E+03  0.17124000000E+03 0. -1.
     -611    1    1    2    0    0 -0.11959341147E+00  0.14172754991E-01  0.21221915514E+01  0.21256059590E+01  0.51109989000E-03 0.  1.
      611    1    1    2    0    0  0.10029837190E+00 -0.15289346861E+00  0.26721823184E+01  0.26784314029E+01  0.51109989000E-03 0. -1.
</event>
<event>
 6   3  0.2312675E+03  0.9118800E+02  0.7818608E-02  0.1180000E+00
       11   -1    0    0    0    0  0.00000000000E+00  0.00000000000E+00  0.54999999763E+01  0.55000000000E+01  0.51109989000E-03 0.  1.
     -623   -1    0    0    0    0  0.00000000000E+00  0.00000000000E+00  0.93234578044E-11  0.17124000000E+03  0.17124000000E+03 0.  1.
       11    1    1    2    0    0  0.20716003555E-02  0.17571178964E-02  0.29506438697E-02  0.40430822003E-02  0.51109989000E-03 0.  1.
     -623    1    1    2    0    0 -0.40401469684E-02  0.92645796212E-03  0.24181984038E-02  0.17124000007E+03  0.17124000000E+03 0.  1.
     -611    1    1    2    0    0  0.44629846509E-01  0.35505877353E-01  0.36263568417E+01  0.36268053015E+01  0.51109989000E-03 0.  1.
      611    1    1    2    0    0 -0.42661299896E-01 -0.38189453212E-01  0.18682742922E+01  0.18691515490E+01  0.51109989000E-03 0. -1.
</event>
<event>
 6   3  0.2312675E+03  0.9118800E+02  0.7818608E-02  0.1180000E+00
       11   -1    0    0    0    0  0.00000000000E+00  0.00000000000E+00  0.54999999763E+01  0.55000000000E+01  0.51109989000E-03 0. -1.
     -623   -1    0    0    0    0  0.00000000000E+00  0.00000000000E+00  0.93234578044E-11  0.17124000000E+03  0.17124000000E+03 0.  1.
       11    1    1    2    0    0  0.10865001268E-02  0.40431843004E-02  0.26182559324E-01  0.26520095355E-01  0.51109989000E-03 0. -1.
     -623    1    1    2    0    0  0.31989772714E-02 -0.41386472092E-02  0.19619202201E-02  0.17124000009E+03  0.17124000000E+03 0.  1.
     -611    1    1    2    0    0  0.43720318265E-01 -0.84514025545E-02  0.72094812728E+00  0.72232219673E+00  0.51109989000E-03 0.  1.
      611    1    1    2    0    0 -0.48005795663E-01  0.85468654633E-02  0.47509073694E+01  0.47511576168E+01  0.51109989000E-03 0. -1.
</event>
<event>
 6   3  0.2312675E+03  0.9118800E+02  0.7818608E-02  0.1180000E+00
       11   -1    0    0    0    0  0.00000000000E+00  0.00000000000E+00  0.54999999763E+01  0.55000000000E+01  0.51109989000E-03 0.  1.
     -623   -1    0    0    0    0  0.00000000000E+00  0.00000000000E+00  0.93234578044E-11  0.17124000000E+03  0.17124000000E+03 0. -1.
       11    1    1    2    0    0  0.33631410010E-02 -0.22641750108E-01  0.16220607602E+00  0.16381401615E+00  0.51109989000E-03 0.  1.
     -623    1    1    2    0    0  0.13154832553E-01  0.37137196092E-02  0.28177499714E-02  0.17124000057E+03  0.17124000000E+03 0. -1.
     -611    1    1    2    0    0 -0.60010119039E-01  0.30915095360E-01  0.28471250067E+01  0.28479252137E+01  0.51109989000E-03 0. -1.
      611    1    1    2    0    0  0.43492145485E-01 -0.11987064861E-01  0.24878511435E+01  0.24882602014E+01  0.51109989000E-03 0.  1.
</event>
<event>
 6   3  0.2312675E+03  0.9118800E+02  0.7818608E-02  0.1180000E+00
       11   -1    0    0    0    0  0.00000000000E+00  0.00000000000E+00  0.54999999763E+01  0.55000000000E+01  0.51109989000E-03 0. -1.
     -623   -1    0    0    0    0  0.00000000000E+00  0.00000000000E+00  0.93234578044E-11  0.17124000000E+03  0.17124000000E+03 0.  1.
       11    1    1    2    0    0 -0.76075096289E-03 -0.14003542663E-01  0.10616017067E+00  0.10708371029E+00  0.51109989000E-03 0. -1.
     -623    1    1    2    0    0  0.14786142371E-01  0.68581723323E-02  0.14178640759E-02  0.17124000078E+03  0.17124000000E+03 0.  1.
     -611    1    1    2    0    0 -0.39693541276E-01  0.19611291743E-01  0.34421088364E+01  0.34423935979E+01  0.51109989000E-03 0.  1.
      611    1    1    2    0    0  0.25668149868E-01 -0.12465921412E-01  0.19503131051E+01  0.19505219102E+01  0.51109989000E-03 0. -1.
</event>
<event>
 6   3  0.2312675E+03  0.9118800E+02  0.7818608E-02  0.1180000E+00
       11   -1    0    0    0    0  0.00000000000E+00  0.00000000000E+00  0.54999999763E+01  0.55000000000E+01  0.51109989000E-03 0. -1.
     -623   -1    0    0    0    0  0.00000000000E+00  0.00000000000E+00  0.93234578044E-11  0.17124000000E+03  0.17124000000E+03 0. -1.
       11    1    1    2    0    0  0.10909204142E-01  0.16768069106E-01  0.80662015197E+00  0.80686833478E+00  0.51109989000E-03 0. -1.
     -623    1    1    2    0    0 -0.16787572062E-02 -0.97081776898E-02  0.70809502042E-03  0.17124000028E+03  0.17124000000E+03 0. -1.
     -611    1    1    2    0    0  0.25579998978E-01  0.87986245166E-02  0.21938334624E+01  0.21940002904E+01  0.51109989000E-03 0. -1.
      611    1    1    2    0    0 -0.34810445914E-01 -0.15858515932E-01  0.24988382669E+01  0.24991310900E+01  0.51109989000E-03 0.  1.
</event>
<event>
 6   3  0.2312675E+03  0.9118800E+02  0.7818608E-02  0.1180000E+00
       11   -1    0    0    0    0  0.00000000000E+00  0.00000000000E+00  0.54999999763E+01  0.55000000000E+01  0.51109989000E-03 0. -1.
     -623   -1    0    0    0    0  0.00000000000E+00  0.00000000000E+00  0.93234578044E-11  0.17124000000E+03  0.17124000000E+03 0. -1.
       11    1    1    2    0    0 -0.10917498916E-01  0.33539640476E-02  0.38615321726E+00  0.38632241623E+00  0.51109989000E-03 0. -1.
     -623    1    1    2    0    0 -0.20952671675E-01 -0.12735515279E-01  0.55825036958E-03  0.17124000176E+03  0.17124000000E+03 0. -1.
     -611    1    1    2    0    0 -0.14269829424E-01  0.74190839968E-02  0.10223567106E+01  0.10224833376E+01  0.51109989000E-03 0.  1.
      611    1    1    2    0    0  0.46140000016E-01  0.19624672350E-02  0.40909317982E+01  0.40911924900E+01  0.51109989000E-03 0. -1.
</event>
<event>
 6   3  0.2312675E+03  0.9118800E+02  0.7818608E-02  0.1180000E+00
       11   -1    0    0    0    0  0.00000000000E+00  0.00000000000E+00  0.54999999763E+01  0.55000000000E+01  0.51109989000E-03 0.  1.
     -623   -1    0    0    0    0  0.00000000000E+00  0.00000000000E+00  0.93234578044E-11  0.17124000000E+03  0.17124000000E+03 0.  1.
       11    1    1    2    0    0 -0.67797732227E-01 -0.46287036223E-02  0.28539550679E+00  0.29337486926E+00  0.51109989000E-03 0.  1.
     -623    1    1    2    0    0  0.82941767187E-02  0.23869360082E-01  0.83588731319E-02  0.17124000207E+03  0.17124000000E+03 0.  1.
     -611    1    1    2    0    0  0.15135499797E-01 -0.34843215090E-02  0.11896710378E+01  0.11897725258E+01  0.51109989000E-03 0. -1.
      611    1    1    2    0    0  0.44368055714E-01 -0.15756334951E-01  0.40165745587E+01  0.40168505366E+01  0.51109989000E-03 0.  1.
</event>
<event>
 6   3  0.2312675E+03  0.9118800E+02  0.7818608E-02  0.1180000E+00
       11   -1    0    0    0    0  0.00000000000E+00  0.00000000000E+00  0.54999999763E+01  0.55000000000E+01  0.51109989000E-03 0. -1.
     -623   -1    0    0    0    0  0.00000000000E+00  0.00000000000E+00  0.93234578044E-11  0.17124000000E+03  0.17124000000E+03 0.  1.
       11    1    1    2    0    0  0.14920772276E-02  0.23162609583E-02 -0.33226540269E-04  0.28024429308E-02  0.51109989000E-03 0. -1.
     -623    1    1    2    0    0 -0.94546918394E-03  0.11486499844E-02  0.48860276053E-02  0.17124000008E+03  0.17124000000E+03 0.  1.
     -611    1    1    2    0    0  0.62678921147E-01  0.15551841894E-01  0.40797916931E+01  0.40803028108E+01  0.51109989000E-03 0. -1.
      611    1    1    2    0    0 -0.63225529191E-01 -0.19016752837E-01  0.14153554820E+01  0.14168946701E+01  0.51109989000E-03 0.  1.
</event>
<event>
 6   3  0.2312675E+03  0.9118800E+02  0.7818608E-02  0.1180000E+00
       11   -1    0    0    0    0  0.00000000000E+00  0.00000000000E+00  0.54999999763E+01  0.55000000000E+01  0.51109989000E-03 0.  1.
     -623   -1    0    0    0    0  0.00000000000E+00  0.00000000000E+00  0.93234578044E-11  0.17124000000E+03  0.17124000000E+03 0. -1.
       11    1    1    2    0    0 -0.35778598797E-01 -0.37112257908E-01  0.10984902705E+01  0.10996993059E+01  0.51109989000E-03 0.  1.
     -623    1    1    2    0    0  0.33610239153E-01  0.26979448051E-01  0.19501285183E-02  0.17124000543E+03  0.17124000000E+03 0. -1.
     -611    1    1    2    0    0 -0.28675755898E-01  0.31570171603E-01  0.21681495938E+01  0.21685690898E+01  0.51109989000E-03 0.  1.
      611    1    1    2    0    0  0.30844115543E-01 -0.21437361746E-01  0.22314099834E+01  0.22317261694E+01  0.51109989000E-03 0. -1.
</event>
<event>
 6   3  0.2312675E+03  0.9118800E+02  0.7818608E-02  0.1180000E+00
       11   -1    0    0    0    0  0.00000000000E+00  0.00000000000E+00  0.54999999763E+01  0.55000000000E+01  0.51109989000E-03 0. -1.
     -623   -1    0    0    0    0  0.00000000000E+00  0.00000000000E+00  0.93234578044E-11  0.17124000000E+03  0.17124000000E+03 0. -1.
       11    1    1    2    0    0 -0.21184482949E-01  0.13831113117E-01  0.92004097976E+00  0.92038891109E+00  0.51109989000E-03 0. -1.
     -623    1    1    2    0    0 -0.99627715827E-03 -0.31774487013E-02  0.13331168985E-02  0.17124000004E+03  0.17124000000E+03 0. -1.
     -611    1    1    2    0    0 -0.33527305926E-01 -0.10265158147E-01  0.24716319461E+01  0.24718806994E+01  0.51109989000E-03 0. -1.
      611    1    1    2    0    0  0.55708066034E-01 -0.38850626859E-03  0.21069939335E+01  0.21077303520E+01  0.51109989000E-03 0.  1.
</event>
<event>
 6   3  0.2312675E+03  0.9118800E+02  0.7818608E-02  0.1180000E+00
       11   -1    0    0    0    0  0.00000000000E+00  0.00000000000E+00  0.54999999763E+01  0.55000000000E+01  0.51109989000E-03 0.  1.
     -623   -1    0    0    0    0  0.00000000000E+00  0.00000000000E+00  0.93234578044E-11  0.17124000000E+03  0.17124000000E+03 0.  1.
       11    1    1    2    0    0 -0.48055909962E-01  0.57365102735E-02  0.10580554685E+01  0.10591618921E+01  0.51109989000E-03 0.  1.
     -623    1    1    2    0    0  0.20576196299E-02  0.21250847657E-02  0.13520071066E-02  0.17124000003E+03  0.17124000000E+03 0.  1.
     -611    1    1    2    0    0  0.17339121536E-01 -0.37068504101E-02  0.16950426370E+01  0.16951354484E+01  0.51109989000E-03 0.  1.
      611    1    1    2    0    0  0.28659168752E-01 -0.41547446217E-02  0.27455498594E+01  0.27457026244E+01  0.51109989000E-03 0.  1.
</event>
<event>
 6   3  0.2312675E+03  0.9118800E+02  0.7818608E-02  0.1180000E+00
       11   -1    0    0    0    0  0.00000000000E+00  0.00000000000E+00  0.54999999763E+01  0.55000000000E+01  0.51109989000E-03 0.  1.
     -623   -1    0    0    0    0  0.00000000000E+00  0.00000000000E+00  0.93234578044E-11  0.17124000000E+03  0.17124000000E+03 0. -1.
       11    1    1    2    0    0 -0.14508544331E-01 -0.15683471157E-01  0.56057819513E+00  0.56098542156E+00  0.51109989000E-03 0.  1.
     -623    1    1    2    0    0  0.71597156956E-01  0.24812143870E-01  0.76248585363E-03  0.17124001677E+03  0.17124000000E+03 0. -1.
     -611    1    1    2    0    0 -0.30252409381E-01 -0.50923536712E-02  0.26215398148E+01  0.26217193599E+01  0.51109989000E-03 0.  1.
      611    1    1    2    0    0 -0.26836203279E-01 -0.40363190482E-02  0.23171194834E+01  0.23172784544E+01  0.51109989000E-03 0.  1.
</event>
<event>
 6   3  0.2312675E+03  0.9118800E+02  0.7818608E-02  0.1180000E+00
       11   -1    0    0    0    0  0.00000000000E+00  0.00000000000E+00  0.54999999763E+01  0.55000000000E+01  0.51109989000E-03 0.  1.
     -623   -1    0    0    0    0  0.00000000000E+00  0.00000000000E+00  0.93234578044E-11  0.17124000000E+03  0.17124000000E+03 0.  1.
       11    1    1    2    0    0 -0.68284947796E-01  0.74894718577E-01  0.99085291391E+00  0.99602299732E+00  0.51109989000E-03 0.  1.
     -623    1    1    2    0    0  0.67112967200E-02  0.78491128734E-02  0.64059465521E-02  0.17124000043E+03  0.17124000000E+03 0.  1.
     -611    1    1    2    0    0  0.42715113491E-01 -0.60630726725E-01  0.27750776610E+01  0.27760686144E+01  0.51109989000E-03 0.  1.
      611    1    1    2    0    0  0.18858537586E-01 -0.22113104726E-01  0.17276634548E+01  0.17279079571E+01  0.51109989000E-03 0. -1.
</event>
<event>
 6   3  0.2312675E+03  0.9118800E+02  0.7818608E-02  0.1180000E+00
       11   -1    0    0    0    0  0.00000000000E+00  0.00000000000E+00  0.54999999763E+01  0.55000000000E+01  0.51109989000E-03 0. -1.
     -623   -1    0    0    0    0  0.00000000000E+00  0.00000000000E+00  0.93234578044E-11  0.17124000000E+03  0.17124000000E+03 0. -1.
       11    1    1    2    0    0  0.80050541344E-02 -0.12727724097E-01  0.30816477366E+00  0.30853178897E+00  0.51109989000E-03 0. -1.
     -623    1    1    2    0    0 -0.16505771427E-02 -0.10713453762E-02  0.85686232282E-03  0.17124000001E+03  0.17124000000E+03 0. -1.
     -611    1    1    2    0    0  0.31154801721E-01 -0.51823565262E-03  0.22744194459E+01  0.22746329303E+01  0.51109989000E-03 0.  1.
      611    1    1    2    0    0 -0.37509278713E-01  0.14317305126E-01  0.29165588944E+01  0.29168352674E+01  0.51109989000E-03 0. -1.
</event>
<event>
 6   3  0.2312675E+03  0.9118800E+02  0.7818608E-02  0.1180000E+00
       11   -1    0    0    0    0  0.00000000000E+00  0.00000000000E+00  0.54999999763E+01  0.55000000000E+01  0.51109989000E-03 0.  1.
     -623   -1    0    0    0    0  0.00000000000E+00  0.00000000000E+00  0.93234578044E-11  0.17124000000E+03  0.17124000000E+03 0.  1.
       11    1    1    2    0    0 -0.16740309794E-02  0.78450702393E-02  0.19969211678E+00  0.19985382217E+00  0.51109989000E-03 0.  1.
     -623    1    1    2    0    0 -0.37657893160E-03 -0.31722934460E-02  0.74829177745E-03  0.17124000003E+03  0.17124000000E+03 0.  1.
     -611    1    1    2    0    0  0.38501988940E-01 -0.12971578087E-01  0.31413411790E+01  0.31416039421E+01  0.51109989000E-03 0. -1.
      611    1    1    2    0    0 -0.36451379029E-01  0.82988012937E-02  0.21582183888E+01  0.21585422044E+01  0.51109989000E-03 0.  1.
</event>
<event>
 6   3  0.2312675E+03  0.9118800E+02  0.7818608E-02  0.1180000E+00
       11   -1    0    0    0    0  0.00000000000E+00  0.00000000000E+00  0.54999999763E+01  0.55000000000E+01  0.51109989000E-03 0. -1.
     -623   -1    0    0    0    0  0.00000000000E+00  0.00000000000E+00  0.93234578044E-11  0.17124000000E+03  0.17124000000E+03 0. -1.
       11    1    1    2    0    0 -0.11796154905E-01  0.20379871047E-01  0.41987483374E+00  0.42053492797E+00  0.51109989000E-03 0. -1.
     -623    1    1    2    0    0  0.53150910797E-02 -0.24501906391E-01  0.21425932067E-02  0.17124000185E+03  0.17124000000E+03 0. -1.
     -611    1    1    2    0    0 -0.38730422357E-01 -0.18493036194E-01  0.77772291266E+00  0.77890643090E+00  0.51109989000E-03 0.  1.
      611    1    1    2    0    0  0.45211486183E-01  0.22615071539E-01  0.43002596368E+01  0.43005567924E+01  0.51109989000E-03 0. -1.
</event>
<event>
 6   3  0.2312675E+03  0.9118800E+02  0.7818608E-02  0.1180000E+00
       11   -1    0    0    0    0  0.00000000000E+00  0.00000000000E+00  0.54999999763E+01  0.55000000000E+01  0.51109989000E-03 0. -1.
     -623   -1    0    0    0    0  0.00000000000E+00  0.00000000000E+00  0.93234578044E-11  0.17124000000E+03  0.17124000000E+03 0.  1.
       11    1    1    2    0    0  0.16157821317E-02 -0.17413390543E-02  0.91432087399E-01  0.91464369253E-01  0.51109989000E-03 0. -1.
     -623    1    1    2    0    0  0.66629414922E-01  0.72750240551E-02  0.47975707278E-03  0.17124001312E+03  0.17124000000E+03 0.  1.
     -611    1    1    2    0    0 -0.29066647955E-01 -0.31053506104E-02  0.24134726096E+01  0.24136496870E+01  0.51109989000E-03 0. -1.
      611    1    1    2    0    0 -0.39178549080E-01 -0.24283343888E-02  0.29946155207E+01  0.29948728243E+01  0.51109989000E-03 0. -1.
</event>
<event>
 6   3  0.2312675E+03  0.9118800E+02  0.7818608E-02  0.1180000E+00
       11   -1    0    0    0    0  0.00000000000E+00  0.00000000000E+00  0.54999999763E+01  0.55000000000E+01  0.51109989000E-03 0.  1.
     -623   -1    0    0    0    0  0.00000000000E+00  0.00000000000E+00  0.93234578044E-11  0.17124000000E+03  0.17124000000E+03 0.  1.
       11    1    1    2    0    0  0.88795398485E-02  0.25937847981E-01  0.48174972940E+00  0.48252946147E+00  0.51109989000E-03 0.  1.
     -623    1    1    2    0    0  0.27704100719E-01  0.79431986191E-03  0.27720879240E-02  0.17124000227E+03  0.17124000000E+03 0.  1.
     -611    1    1    2    0    0 -0.86508725931E-01 -0.11316687971E-01  0.27338191624E+01  0.27352110158E+01  0.51109989000E-03 0. -1.
      611    1    1    2    0    0  0.49925085364E-01 -0.15415479872E-01  0.22816589965E+01  0.22822572574E+01  0.51109989000E-03 0.  1.
</event>
<event>
 6   3  0.2312675E+03  0.9118800E+02  0.7818608E-02  0.1180000E+00
       11   -1    0    0    0    0  0.00000000000E+00  0.00000000000E+00  0.54999999763E+01  0.55000000000E+01  0.51109989000E-03 0.  1.
     -623   -1    0    0    0    0  0.00000000000E+00  0.00000000000E+00  0.93234578044E-11  0.17124000000E+03  0.17124000000E+03 0.  1.
       11    1    1    2    0    0  0.12731895865E-02  0.31497165464E-04  0.12314932464E+00  0.12315697051E+00  0.51109989000E-03 0.  1.
     -623    1    1    2    0    0 -0.68724867681E-01  0.21439486958E-01  0.48894948067E-03  0.17124001513E+03  0.17124000000E+03 0.  1.
     -611    1    1    2    0    0  0.53718118648E-01 -0.16928425354E-01  0.42539655624E+01  0.42543384298E+01  0.51109989000E-03 0.  1.
      611    1    1    2    0    0  0.13733559821E-01 -0.45425588866E-02  0.11223961696E+01  0.11224894959E+01  0.51109989000E-03 0. -1.
</event>
<event>
 6   3  0.2312675E+03  0.9118800E+02  0.7818608E-02  0.1180000E+00
       11   -1    0    0    0    0  0.00000000000E+00  0.00000000000E+00  0.54999999763E+01  0.55000000000E+01  0.51109989000E-03 0. -1.
     -623   -1    0    0    0    0  0.00000000000E+00  0.00000000000E+00  0.93234578044E-11  0.17124000000E+03  0.17124000000E+03 0.  1.
       11    1    1    2    0    0  0.15224264817E-01 -0.23850176402E-01  0.26292078350E+00  0.26443942363E+00  0.51109989000E-03 0. -1.
     -623    1    1    2    0    0  0.66941090583E-02 -0.10052804571E-01  0.19437373927E-02  0.17124000044E+03  0.17124000000E+03 0.  1.
     -611    1    1    2    0    0 -0.37486509018E-01  0.13953126144E-01  0.36975204203E+01  0.36977368008E+01  0.51109989000E-03 0. -1.
      611    1    1    2    0    0  0.15568135143E-01  0.19949854828E-01  0.15376150351E+01  0.15378233386E+01  0.51109989000E-03 0.  1.
</event>
<event>
 6   3  0.2312675E+03  0.9118800E+02  0.7818608E-02  0.1180000E+00
       11   -1    0    0    0    0  0.00000000000E+00  0.00000000000E+00  0.54999999763E+01  0.55000000000E+01  0.51109989000E-03 0. -1.
     -623   -1    0    0    0    0  0.00000000000E+00  0.00000000000E+00  0.93234578044E-11  0.17124000000E+03  0.17124000000E+03 0.  1.
       11    1    1    2    0    0 -0.82733470207E-01  0.77132386779E-01  0.80770147450E+00  0.81558332824E+00  0.51109989000E-03 0. -1.
     -623    1    1    2    0    0 -0.66032673571E-02 -0.35338406570E-02  0.93135598279E-02  0.17124000042E+03  0.17124000000E+03 0.  1.
     -611    1    1    2    0    0  0.24147630624E-01 -0.21585922557E-01  0.13038876011E+01  0.13042899208E+01  0.51109989000E-03 0.  1.
      611    1    1    2    0    0  0.65189106919E-01 -0.52012623548E-01  0.33790973397E+01  0.33801263327E+01  0.51109989000E-03 0. -1.
</event>
<event>
 6   3  0.2312675E+03  0.9118800E+02  0.7818608E-02  0.1180000E+00
       11   -1    0    0    0    0  0.00000000000E+00  0.00000000000E+00  0.54999999763E+01  0.55000000000E+01  0.51109989000E-03 0.  1.
     -623   -1    0    0    0    0  0.00000000000E+00  0.00000000000E+00  0.93234578044E-11  0.17124000000E+03  0.17124000000E+03 0.  1.
       11    1    1    2    0    0  0.54786442305E-01  0.27869445870E-01  0.57760574518E+00  0.58086738449E+00  0.51109989000E-03 0.  1.
     -623    1    1    2    0    0 -0.44584352353E-04 -0.49488031166E-02  0.37476071029E-02  0.17124000011E+03  0.17124000000E+03 0.  1.
     -611    1    1    2    0    0 -0.88726532581E-02 -0.12716680973E-01  0.51122977741E+00  0.51146513516E+00  0.51109989000E-03 0. -1.
      611    1    1    2    0    0 -0.45869204694E-01 -0.10203961781E-01  0.44074168466E+01  0.44076673679E+01  0.51109989000E-03 0.  1.
</event>
<event>
 6   3  0.2312675E+03  0.9118800E+02  0.7818608E-02  0.1180000E+00
       11   -1    0    0    0    0  0.00000000000E+00  0.00000000000E+00  0.54999999763E+01  0.55000000000E+01  0.51109989000E-03 0. -1.
     -623   -1    0    0    0    0  0.00000000000E+00  0.00000000000E+00  0.93234578044E-11  0.17124000000E+03  0.17124000000E+03 0.  1.
       11    1    1    2    0    0 -0.87844355000E-01  0.29778730154E-01  0.10567837830E+01  0.10608466565E+01  0.51109989000E-03 0. -1.
     -623    1    1    2    0    0  0.62056639720E-03 -0.12462343387E-01  0.49547367216E-02  0.17124000053E+03  0.17124000000E+03 0.  1.
     -611    1    1    2    0    0  0.69650311063E-01 -0.13262894580E-01  0.35121929615E+01  0.35129085855E+01  0.51109989000E-03 0. -1.
      611    1    1    2    0    0  0.17573477524E-01 -0.40534921833E-02  0.92606849428E+00  0.92624423088E+00  0.51109989000E-03 0. -1.
</event>
<event>
 6   3  0.2312675E+03  0.9118800E+02  0.7818608E-02  0.1180000E+00
       11   -1    0    0    0    0  0.00000000000E+00  0.00000000000E+00  0.54999999763E+01  0.55000000000E+01  0.51109989000E-03 0.  1.
     -623   -1    0    0    0    0  0.00000000000E+00  0.00000000000E+00  0.93234578044E-11  0.17124000000E+03  0.17124000000E+03 0.  1.
       11    1    1    2    0    0  0.52681902435E-01  0.47552064408E-01  0.78411725320E+00  0.78732249407E+00  0.51109989000E-03 0.  1.
     -623    1    1    2    0    0 -0.15664277741E-02  0.81398364971E-02  0.38524355027E-02  0.17124000024E+03  0.17124000000E+03 0.  1.
     -611    1    1    2    0    0 -0.33655115333E-01 -0.30434634860E-01  0.33076274603E+01  0.33079387254E+01  0.51109989000E-03 0.  1.
      611    1    1    2    0    0 -0.17460359328E-01 -0.25257266045E-01  0.14044028272E+01  0.14047385365E+01  0.51109989000E-03 0. -1.
</event>
<event>
 6   3  0.2312675E+03  0.9118800E+02  0.7818608E-02  0.1180000E+00
       11   -1    0    0    0    0  0.00000000000E+00  0.00000000000E+00  0.54999999763E+01  0.55000000000E+01  0.51109989000E-03 0. -1.
     -623   -1    0    0    0    0  0.00000000000E+00  0.00000000000E+00  0.93234578044E-11  0.17124000000E+03  0.17124000000E+03 0. -1.
       11    1    1    2    0    0 -0.13228234206E+00  0.25239277174E-01  0.62910581712E+00  0.64335839895E+00  0.51109989000E-03 0. -1.
     -623    1    1    2    0    0 -0.40036976728E-01 -0.10884198902E+00  0.18653636406E-01  0.17124004029E+03  0.17124000000E+03 0. -1.
     -611    1    1    2    0    0  0.46519624890E-01  0.59309867547E-01  0.21578548092E+01  0.21591709925E+01  0.51109989000E-03 0. -1.
      611    1    1    2    0    0  0.12579969390E+00  0.24292844302E-01  0.26943857135E+01  0.26974303215E+01  0.51109989000E-03 0.  1.
</event>
<event>
 6   3  0.2312675E+03  0.9118800E+02  0.7818608E-02  0.1180000E+00
       11   -1    0    0    0    0  0.00000000000E+00  0.00000000000E+00  0.54999999763E+01  0.55000000000E+01  0.51109989000E-03 0.  1.
     -623   -1    0    0    0    0  0.00000000000E+00  0.00000000000E+00  0.93234578044E-11  0.17124000000E+03  0.17124000000E+03 0.  1.
       11    1    1    2    0    0 -0.54942396393E-02 -0.15055036873E-02  0.12686443956E+00  0.12699330872E+00  0.51109989000E-03 0.  1.
     -623    1    1    2    0    0  0.77257530983E-01 -0.10551866548E-01  0.63959384360E-03  0.17124001775E+03  0.17124000000E+03 0.  1.
     -611    1    1    2    0    0 -0.35758421378E-01  0.63905317428E-02  0.27077274568E+01  0.27079711493E+01  0.51109989000E-03 0.  1.
      611    1    1    2    0    0 -0.36004869954E-01  0.56668384899E-02  0.26647684851E+01  0.26650177869E+01  0.51109989000E-03 0.  1.
</event>
<event>
 6   3  0.2312675E+03  0.9118800E+02  0.7818608E-02  0.1180000E+00
       11   -1    0    0    0    0  0.00000000000E+00  0.00000000000E+00  0.54999999763E+01  0.55000000000E+01  0.51109989000E-03 0. -1.
     -623   -1    0    0    0    0  0.00000000000E+00  0.00000000000E+00  0.93234578044E-11  0.17124000000E+03  0.17124000000E+03 0.  1.
       11    1    1    2    0    0  0.17688590848E-01  0.26700176366E-01  0.96813945134E+00  0.96866921296E+00  0.51109989000E-03 0. -1.
     -623    1    1    2    0    0  0.32129839497E-02 -0.30517836513E-02  0.28380348034E-02  0.17124000008E+03  0.17124000000E+03 0.  1.
     -611    1    1    2    0    0  0.31426701773E-01 -0.68703787199E-01  0.23897726014E+01  0.23909665819E+01  0.51109989000E-03 0.  1.
      611    1    1    2    0    0 -0.52328276570E-01  0.45055394485E-01  0.21392498887E+01  0.21403641243E+01  0.51109989000E-03 0. -1.
</event>
<event>
 6   3  0.2312675E+03  0.9118800E+02  0.7818608E-02  0.1180000E+00
       11   -1    0    0    0    0  0.00000000000E+00  0.00000000000E+00  0.54999999763E+01  0.55000000000E+01  0.51109989000E-03 0.  1.
     -623   -1    0    0    0    0  0.00000000000E+00  0.00000000000E+00  0.93234578044E-11  0.17124000000E+03  0.17124000000E+03 0.  1.
       11    1    1    2    0    0 -0.62414604153E-02  0.18973374829E-02  0.45473209030E+00  0.45477916716E+00  0.51109989000E-03 0.  1.
     -623    1    1    2    0    0  0.63228575236E-01 -0.12894524912E-01  0.39375940884E-03  0.17124001216E+03  0.17124000000E+03 0.  1.
     -611    1    1    2    0    0 -0.40949981976E-01  0.68182034311E-02  0.36264103298E+01  0.36266479744E+01  0.51109989000E-03 0.  1.
      611    1    1    2    0    0 -0.16037133043E-01  0.41789840386E-02  0.14184638141E+01  0.14185607166E+01  0.51109989000E-03 0.  1.
</event>
<event>
 6   3  0.2312675E+03  0.9118800E+02  0.7818608E-02  0.1180000E+00
       11   -1    0    0    0    0  0.00000000000E+00  0.00000000000E+00  0.54999999763E+01  0.55000000000E+01  0.51109989000E-03 0. -1.
     -623   -1    0    0    0    0  0.00000000000E+00  0.00000000000E+00  0.93234578044E-11  0.17124000000E+03  0.17124000000E+03 0. -1.
       11    1    1    2    0    0 -0.75730678878E-02  0.14056122741E-01  0.35423099464E-01  0.38858501547E-01  0.51109989000E-03 0. -1.
     -623    1    1    2    0    0  0.65065926294E-02 -0.18469047908E-02  0.74221575904E-02  0.17124000029E+03  0.17124000000E+03 0. -1.
     -611    1    1    2    0    0  0.48413956474E-01  0.80762304372E-01  0.34415260126E+01  0.34428139679E+01  0.51109989000E-03 0.  1.
      611    1    1    2    0    0 -0.47347481215E-01 -0.92971522322E-01  0.20156287067E+01  0.20183272362E+01  0.51109989000E-03 0. -1.
</event>
<event>
 6   3  0.2312675E+03  0.9118800E+02  0.7818608E-02  0.1180000E+00
       11   -1    0    0    0    0  0.00000000000E+00  0.00000000000E+00  0.54999999763E+01  0.55000000000E+01  0.51109989000E-03 0.  1.
     -623   -1    0    0    0    0  0.00000000000E+00  0.00000000000E+00  0.93234578044E-11  0.17124000000E+03  0.17124000000E+03 0.  1.
       11    1    1    2    0    0 -0.15099782149E-01  0.94039678216E-02  0.87067085248E+00  0.87085270432E+00  0.51109989000E-03 0.  1.
     -623    1    1    2    0    0  0.87579064293E-01 -0.35362440379E-01  0.84833086548E-03  0.17124002605E+03  0.17124000000E+03 0.  1.
     -611    1    1    2    0    0 -0.16879957255E-01  0.58691849668E-02  0.10899267356E+01  0.10900733601E+01  0.51109989000E-03 0.  1.
      611    1    1    2    0    0 -0.55599324860E-01  0.20089287578E-01  0.35385540555E+01  0.35390478846E+01  0.51109989000E-03 0.  1.
</event>
<event>
 6   3  0.2312675E+03  0.9118800E+02  0.7818608E-02  0.1180000E+00
       11   -1    0    0    0    0  0.00000000000E+00  0.00000000000E+00  0.54999999763E+01  0.55000000000E+01  0.51109989000E-03 0. -1.
     -623   -1    0    0    0    0  0.00000000000E+00  0.00000000000E+00  0.93234578044E-11  0.17124000000E+03  0.17124000000E+03 0. -1.
       11    1    1    2    0    0  0.40898289105E-01  0.87127628074E-02  0.58087893680E+00  0.58238233381E+00  0.51109989000E-03 0. -1.
     -623    1    1    2    0    0 -0.50518206340E-02  0.66575171163E-02  0.25183062041E-02  0.17124000022E+03  0.17124000000E+03 0. -1.
     -611    1    1    2    0    0  0.11988977925E-01  0.29835117033E-01  0.11943506234E+01  0.11947834710E+01  0.51109989000E-03 0.  1.
      611    1    1    2    0    0 -0.47835446396E-01 -0.45205396957E-01  0.37222521098E+01  0.37228339727E+01  0.51109989000E-03 0. -1.
</event>
<event>
 6   3  0.2312675E+03  0.9118800E+02  0.7818608E-02  0.1180000E+00
       11   -1    0    0    0    0  0.00000000000E+00  0.00000000000E+00  0.54999999763E+01  0.55000000000E+01  0.51109989000E-03 0. -1.
     -623   -1    0    0    0    0  0.00000000000E+00  0.00000000000E+00  0.93234578044E-11  0.17124000000E+03  0.17124000000E+03 0.  1.
       11    1    1    2    0    0  0.31278735334E-01  0.31984069346E-01  0.48345245526E+00  0.48551815382E+00  0.51109989000E-03 0. -1.
     -623    1    1    2    0    0 -0.56256336635E-02  0.20766705304E-03  0.56581820685E-02  0.17124000019E+03  0.17124000000E+03 0.  1.
     -611    1    1    2    0    0 -0.79130994320E-01 -0.44640586733E-01  0.44463537757E+01  0.44472819403E+01  0.51109989000E-03 0. -1.
      611    1    1    2    0    0  0.53477892650E-01  0.12448850334E-01  0.56453556324E+00  0.56719971991E+00  0.51109989000E-03 0.  1.
</event>
<event>
 6   3  0.2312675E+03  0.9118800E+02  0.7818608E-02  0.1180000E+00
       11   -1    0    0    0    0  0.00000000000E+00  0.00000000000E+00  0.54999999763E+01  0.55000000000E+01  0.51109989000E-03 0.  1.
     -623   -1    0    0    0    0  0.00000000000E+00  0.00000000000E+00  0.93234578044E-11  0.17124000000E+03  0.17124000000E+03 0.  1.
       11    1    1    2    0    0  0.70568251927E-02  0.51584158667E-01  0.69841342111E-01  0.87113710162E-01  0.51109989000E-03 0.  1.
     -623    1    1    2    0    0 -0.54201560124E-02  0.10458065245E-01  0.18552221569E-01  0.17124000141E+03  0.17124000000E+03 0.  1.
     -611    1    1    2    0    0  0.48772834082E-01 -0.37463694932E-01  0.27508004193E+01  0.27514878750E+01  0.51109989000E-03 0. -1.
      611    1    1    2    0    0 -0.50409503262E-01 -0.24578528981E-01  0.26608059932E+01  0.26613970048E+01  0.51109989000E-03 0.  1.
</event>
<event>
 6   3  0.2312675E+03  0.9118800E+02  0.7818608E-02  0.1180000E+00
       11   -1    0    0    0    0  0.00000000000E+00  0.00000000000E+00  0.54999999763E+01  0.55000000000E+01  0.51109989000E-03 0.  1.
     -623   -1    0    0    0    0  0.00000000000E+00  0.00000000000E+00  0.93234578044E-11  0.17124000000E+03  0.17124000000E+03 0.  1.
       11    1    1    2    0    0  0.18606792746E-01 -0.18561352387E-02  0.46318764855E+00  0.46356522407E+00  0.51109989000E-03 0.  1.
     -623    1    1    2    0    0  0.33697694100E-01 -0.13698993616E-01  0.67733352963E-03  0.17124000386E+03  0.17124000000E+03 0.  1.
     -611    1    1    2    0    0 -0.26353695849E-01  0.85502880945E-02  0.25521542340E+01  0.25523046684E+01  0.51109989000E-03 0.  1.
      611    1    1    2    0    0 -0.25950791035E-01  0.70048407716E-02  0.24839807637E+01  0.24841262461E+01  0.51109989000E-03 0.  1.
</event>
<event>
 6   3  0.2312675E+03  0.9118800E+02  0.7818608E-02  0.1180000E+00
       11   -1    0    0    0    0  0.00000000000E+00  0.00000000000E+00  0.54999999763E+01  0.55000000000E+01  0.51109989000E-03 0.  1.
     -623   -1    0    0    0    0  0.00000000000E+00  0.00000000000E+00  0.93234578044E-11  0.17124000000E+03  0.17124000000E+03 0. -1.
       11    1    1    2    0    0 -0.14240317174E-02  0.55933080411E-02  0.61544654656E-02  0.84529065676E-02  0.51109989000E-03 0.  1.
     -623    1    1    2    0    0 -0.22976775482E-02 -0.18220383861E-02  0.46034900301E-02  0.17124000009E+03  0.17124000000E+03 0. -1.
     -611    1    1    2    0    0 -0.71565231925E-01  0.81278415586E-02  0.36731254475E+01  0.36738315773E+01  0.51109989000E-03 0. -1.
      611    1    1    2    0    0  0.75286941191E-01 -0.11899111214E-01  0.18161165733E+01  0.18177154291E+01  0.51109989000E-03 0.  1.
</event>
<event>
 6   3  0.2312675E+03  0.9118800E+02  0.7818608E-02  0.1180000E+00
       11   -1    0    0    0    0  0.00000000000E+00  0.00000000000E+00  0.54999999763E+01  0.55000000000E+01  0.51109989000E-03 0. -1.
     -623   -1    0    0    0    0  0.00000000000E+00  0.00000000000E+00  0.93234578044E-11  0.17124000000E+03  0.17124000000E+03 0.  1.
       11    1    1    2    0    0  0.13517670047E-01  0.11048115086E-01  0.55442639776E-01  0.58128614115E-01  0.51109989000E-03 0. -1.
     -623    1    1    2    0    0  0.16138957702E-01 -0.16805870032E-01  0.30468642684E-02  0.17124000161E+03  0.17124000000E+03 0.  1.
     -611    1    1    2    0    0  0.15682588303E-01 -0.38056718999E-02  0.15012003762E+01  0.15012872002E+01  0.51109989000E-03 0.  1.
      611    1    1    2    0    0 -0.45339216052E-01  0.95634268460E-02  0.39403100960E+01  0.39405825734E+01  0.51109989000E-03 0. -1.
</event>
<event>
 6   3  0.2312675E+03  0.9118800E+02  0.7818608E-02  0.1180000E+00
       11   -1    0    0    0    0  0.00000000000E+00  0.00000000000E+00  0.54999999763E+01  0.55000000000E+01  0.51109989000E-03 0.  1.
     -623   -1    0    0    0    0  0.00000000000E+00  0.00000000000E+00  0.93234578044E-11  0.17124000000E+03  0.17124000000E+03 0. -1.
       11    1    1    2    0    0 -0.53718237323E-01  0.10339201284E-01  0.86433554567E+00  0.86606509273E+00  0.51109989000E-03 0.  1.
     -623    1    1    2    0    0 -0.23725250478E-01 -0.99476260841E-01  0.32679463467E-02  0.17124003057E+03  0.17124000000E+03 0. -1.
     -611    1    1    2    0    0  0.35140789639E-01  0.38257772927E-01  0.19509536511E+01  0.19516451886E+01  0.51109989000E-03 0.  1.
      611    1    1    2    0    0  0.42302698168E-01  0.50879286637E-01  0.26814428336E+01  0.26822591506E+01  0.51109989000E-03 0. -1.
</event>
<event>
 6   3  0.2312675E+03  0.9118800E+02  0.7818608E-02  0.1180000E+00
       11   -1    0    0    0    0  0.00000000000E+00  0.00000000000E+00  0.54999999763E+01  0.55000000000E+01  0.51109989000E-03 0. -1.
     -623   -1    0    0    0    0  0.00000000000E+00  0.00000000000E+00  0.93234578044E-11  0.17124000000E+03  0.17124000000E+03 0.  1.
       11    1    1    2    0    0  0.62548763313E-01 -0.20347066029E-01  0.71191805707E+00  0.71495030043E+00  0.51109989000E-03 0. -1.
     -623    1    1    2    0    0 -0.60249904746E-02 -0.18323967675E-01  0.35291736760E-02  0.17124000112E+03  0.17124000000E+03 0.  1.
     -611    1    1    2    0    0 -0.34834953753E-01  0.20583654060E-01  0.29821263105E+01  0.29824008372E+01  0.51109989000E-03 0.  1.
      611    1    1    2    0    0 -0.21688819088E-01  0.18087379646E-01  0.18024264352E+01  0.18026477397E+01  0.51109989000E-03 0. -1.
</event>
<event>
 6   3  0.2312675E+03  0.9118800E+02  0.7818608E-02  0.1180000E+00
       11   -1    0    0    0    0  0.00000000000E+00  0.00000000000E+00  0.54999999763E+01  0.55000000000E+01  0.51109989000E-03 0. -1.
     -623   -1    0    0    0    0  0.00000000000E+00  0.00000000000E+00  0.93234578044E-11  0.17124000000E+03  0.17124000000E+03 0. -1.
       11    1    1    2    0    0 -0.24937178713E-02 -0.26286133756E-02  0.25158849489E-01  0.25423555373E-01  0.51109989000E-03 0. -1.
     -623    1    1    2    0    0 -0.16820731372E-02  0.17537757588E-02  0.11453538251E-02  0.17124000002E+03  0.17124000000E+03 0. -1.
     -611    1    1    2    0    0  0.48003943452E-01 -0.38065050534E-02  0.19057289308E+01  0.19063372962E+01  0.51109989000E-03 0.  1.
      611    1    1    2    0    0 -0.43828152443E-01  0.46813426702E-02  0.35679668423E+01  0.35682391274E+01  0.51109989000E-03 0. -1.
</event>
<event>
 6   3  0.2312675E+03  0.9118800E+02  0.7818608E-02  0.1180000E+00
       11   -1    0    0    0    0  0.00000000000E+00  0.00000000000E+00  0.54999999763E+01  0.55000000000E+01  0.51109989000E-03 0.  1.
     -623   -1    0    0    0    0  0.00000000000E+00  0.00000000000E+00  0.93234578044E-11  0.17124000000E+03  0.17124000000E+03 0.  1.
       11    1    1    2    0    0  0.14588247987E-01 -0.21466973422E-01  0.22647181116E+00  0.22795479903E+00  0.51109989000E-03 0.  1.
     -623    1    1    2    0    0 -0.11792481907E-01 -0.63388410195E-02  0.25274395200E-02  0.17124000054E+03  0.17124000000E+03 0.  1.
     -611    1    1    2    0    0 -0.42679424996E-01 -0.15835814852E-01  0.21101837230E+01  0.21106747529E+01  0.51109989000E-03 0. -1.
      611    1    1    2    0    0  0.39883658917E-01  0.43641629293E-01  0.31608170026E+01  0.31613699061E+01  0.51109989000E-03 0.  1.
</event>
<event>
 6   3  0.2312675E+03  0.9118800E+02  0.7818608E-02  0.1180000E+00
       11   -1    0    0    0    0  0.00000000000E+00  0.00000000000E+00  0.54999999763E+01  0.55000000000E+01  0.51109989000E-03 0.  1.
     -623   -1    0    0    0    0  0.00000000000E+00  0.00000000000E+00  0.93234578044E-11  0.17124000000E+03  0.17124000000E+03 0. -1.
       11    1    1    2    0    0 -0.20433623236E-02  0.60242832751E-02  0.13610055329E+00  0.13625009779E+00  0.51109989000E-03 0.  1.
     -623    1    1    2    0    0  0.21039077009E-02  0.38691543952E-03  0.92640093931E-03  0.17124000002E+03  0.17124000000E+03 0. -1.
     -611    1    1    2    0    0 -0.40673175426E-01  0.15848062257E-02  0.14910011759E+01  0.14915567661E+01  0.51109989000E-03 0. -1.
      611    1    1    2    0    0  0.40612630048E-01 -0.79960049403E-02  0.38719718462E+01  0.38721931203E+01  0.51109989000E-03 0.  1.
</event>
<event>
 6   3  0.2312675E+03  0.9118800E+02  0.7818608E-02  0.1180000E+00
       11   -1    0    0    0    0  0.00000000000E+00  0.00000000000E+00  0.54999999763E+01  0.55000000000E+01  0.51109989000E-03 0. -1.
     -623   -1    0    0    0    0  0.00000000000E+00  0.00000000000E+00  0.93234578044E-11  0.17124000000E+03  0.17124000000E+03 0.  1.
       11    1    1    2    0    0  0.18407869882E-02  0.18254609564E-03  0.18225027347E-02  0.26466127651E-02  0.51109989000E-03 0. -1.
     -623    1    1    2    0    0 -0.22673527751E-02 -0.40580482387E-02  0.19633851016E-02  0.17124000007E+03  0.17124000000E+03 0.  1.
     -611    1    1    2    0    0 -0.40566328974E-01  0.37882298480E-01  0.34480337809E+01  0.34484805221E+01  0.51109989000E-03 0. -1.
      611    1    1    2    0    0  0.40992894761E-01 -0.34006796337E-01  0.20481803074E+01  0.20488727907E+01  0.51109989000E-03 0.  1.
</event>
<event>
 6   3  0.2312675E+03  0.9118800E+02  0.7818608E-02  0.1180000E+00
       11   -1    0    0    0    0  0.00000000000E+00  0.00000000000E+00  0.54999999763E+01  0.55000000000E+01  0.51109989000E-03 0.  1.
     -623   -1    0    0    0    0  0.00000000000E+00  0.00000000000E+00  0.93234578044E-11  0.17124000000E+03  0.17124000000E+03 0. -1.
       11    1    1    2    0    0  0.59352328393E-01  0.37684441088E-01  0.10211001705E+00  0.12397391980E+00  0.51109989000E-03 0.  1.
     -623    1    1    2    0    0 -0.21909684355E-02 -0.21621815372E-01  0.22218178373E-01  0.17124000282E+03  0.17124000000E+03 0. -1.
     -611    1    1    2    0    0 -0.43513532292E-01 -0.19025396232E-01  0.41812198164E+01  0.41814895441E+01  0.51109989000E-03 0.  1.
      611    1    1    2    0    0 -0.13647827666E-01  0.29627705157E-02  0.11944519645E+01  0.11945337157E+01  0.51109989000E-03 0. -1.
</event>
<event>
 6   3  0.2312675E+03  0.9118800E+02  0.7818608E-02  0.1180000E+00
       11   -1    0    0    0    0  0.00000000000E+00  0.00000000000E+00  0.54999999763E+01  0.55000000000E+01  0.51109989000E-03 0.  1.
     -623   -1    0    0    0    0  0.00000000000E+00  0.00000000000E+00  0.93234578044E-11  0.17124000000E+03  0.17124000000E+03 0. -1.
       11    1    1    2    0    0  0.56442044207E-01  0.44220772134E-01  0.71690673492E+00  0.72048366314E+00  0.51109989000E-03 0.  1.
     -623    1    1    2    0    0  0.34374406912E-02  0.58694539362E-03  0.41623588132E-02  0.17124000009E+03  0.17124000000E+03 0. -1.
     -611    1    1    2    0    0 -0.48868736940E-01 -0.36750901083E-01  0.39021576797E+01  0.39026367497E+01  0.51109989000E-03 0.  1.
      611    1    1    2    0    0 -0.11010747957E-01 -0.80568164430E-02  0.87677320266E+00  0.87687950084E+00  0.51109989000E-03 0.  1.
</event>
<event>
 6   3  0.2312675E+03  0.9118800E+02  0.7818608E-02  0.1180000E+00
       11   -1    0    0    0    0  0.00000000000E+00  0.00000000000E+00  0.54999999763E+01  0.55000000000E+01  0.51109989000E-03 0. -1.
     -623   -1    0    0    0    0  0.00000000000E+00  0.00000000000E+00  0.93234578044E-11  0.17124000000E+03  0.17124000000E+03 0.  1.
       11    1    1    2    0    0  0.48635600498E-02  0.15864883536E-02  0.79512827732E+00  0.79514489861E+00  0.51109989000E-03 0. -1.
     -623    1    1    2    0    0 -0.55135357149E-01 -0.35417726069E-02  0.29492638852E-03  0.17124000891E+03  0.17124000000E+03 0.  1.
     -611    1    1    2    0    0  0.24753039499E-01  0.16619473237E-02  0.22729832854E+01  0.22731187281E+01  0.51109989000E-03 0. -1.
      611    1    1    2    0    0  0.25518757742E-01  0.29333693893E-03  0.24315935014E+01  0.24317274745E+01  0.51109989000E-03 0. -1.
</event>
<event>
 6   3  0.2312675E+03  0.9118800E+02  0.7818608E-02  0.1180000E+00
       11   -1    0    0    0    0  0.00000000000E+00  0.00000000000E+00  0.54999999763E+01  0.55000000000E+01  0.51109989000E-03 0. -1.
     -623   -1    0    0    0    0  0.00000000000E+00  0.00000000000E+00  0.93234578044E-11  0.17124000000E+03  0.17124000000E+03 0. -1.
       11    1    1    2    0    0 -0.73498862879E-01  0.63339213601E-01  0.17309885394E+00  0.19843742913E+00  0.51109989000E-03 0. -1.
     -623    1    1    2    0    0 -0.21075728884E-01 -0.12251671893E-01  0.26433197951E-01  0.17124000378E+03  0.17124000000E+03 0. -1.
     -611    1    1    2    0    0  0.60645577338E-01 -0.34101991549E-01  0.33830746295E+01  0.33837900411E+01  0.51109989000E-03 0. -1.
      611    1    1    2    0    0  0.33929014404E-01 -0.16985550149E-01  0.19173932937E+01  0.19177687532E+01  0.51109989000E-03 0.  1.
</event>
<event>
 6   3  0.2312675E+03  0.9118800E+02  0.7818608E-02  0.1180000E+00
       11   -1    0    0    0    0  0.00000000000E+00  0.00000000000E+00  0.54999999763E+01  0.55000000000E+01  0.51109989000E-03 0.  1.
     -623   -1    0    0    0    0  0.00000000000E+00  0.00000000000E+00  0.93234578044E-11  0.17124000000E+03  0.17124000000E+03 0. -1.
       11    1    1    2    0    0 -0.21205527587E-01 -0.13970879139E-01  0.40266177371E+00  0.40346204914E+00  0.51109989000E-03 0.  1.
     -623    1    1    2    0    0 -0.16133174893E-02 -0.82610674833E-02  0.43515829356E-02  0.17124000026E+03  0.17124000000E+03 0. -1.
     -611    1    1    2    0    0  0.44139426313E-01 -0.49916300417E-01  0.41564348521E+01  0.41569689519E+01  0.51109989000E-03 0.  1.
      611    1    1    2    0    0 -0.21320581237E-01  0.72148247040E-01  0.93655176749E+00  0.93956873678E+00  0.51109989000E-03 0. -1.
</event>
<event>
 6   3  0.2312675E+03  0.9118800E+02  0.7818608E-02  0.1180000E+00
       11   -1    0    0    0    0  0.00000000000E+00  0.00000000000E+00  0.54999999763E+01  0.55000000000E+01  0.51109989000E-03 0.  1.
     -623   -1    0    0    0    0  0.00000000000E+00  0.00000000000E+00  0.93234578044E-11  0.17124000000E+03  0.17124000000E+03 0. -1.
       11    1    1    2    0    0  0.37411878612E-01  0.26694672902E-02  0.28834403439E+00  0.29077365443E+00  0.51109989000E-03 0.  1.
     -623    1    1    2    0    0  0.22230877650E-01  0.20084156885E-01  0.28242696881E-02  0.17124000264E+03  0.17124000000E+03 0. -1.
     -611    1    1    2    0    0 -0.17144697117E-01 -0.79126362033E-02  0.15316103926E+01  0.15317268707E+01  0.51109989000E-03 0.  1.
      611    1    1    2    0    0 -0.42498059143E-01 -0.14840987971E-01  0.36772212793E+01  0.36774968305E+01  0.51109989000E-03 0.  1.
</event>
<event>
 6   3  0.4483300E+03  0.9118800E+02  0.7818608E-02  0.1180000E+00
       11   -1    0    0    0    0  0.00000000000E+00  0.00000000000E+00  0.54999999763E+01  0.55000000000E+01  0.51109989000E-03 0.  1.
     -623   -1    0    0    0    0  0.00000000000E+00  0.00000000000E+00  0.93234578044E-11  0.17124000000E+03  0.17124000000E+03 0.  1.
       11    1    1    2    0    0  0.24224775040E-03 -0.10310431943E-02 -0.10827716542E-02  0.15985467131E-02  0.51109989000E-03 0.  1.
     -623    1    1    2    0    0 -0.17627336622E-03 -0.41665168698E-03  0.32989093213E-02  0.17124000003E+03  0.17124000000E+03 0.  1.
     -611    1    1    2    0    0  0.39333965853E-01  0.38512638563E-02  0.19682454612E+01  0.19686422859E+01  0.51109989000E-03 0. -1.
      611    1    1    2    0    0 -0.39399940237E-01 -0.24035689750E-02  0.35295383774E+01  0.35297591350E+01  0.51109989000E-03 0.  1.
</event>
<event>
 6   3  0.2312675E+03  0.9118800E+02  0.7818608E-02  0.1180000E+00
       11   -1    0    0    0    0  0.00000000000E+00  0.00000000000E+00  0.54999999763E+01  0.55000000000E+01  0.51109989000E-03 0. -1.
     -623   -1    0    0    0    0  0.00000000000E+00  0.00000000000E+00  0.93234578044E-11  0.17124000000E+03  0.17124000000E+03 0. -1.
       11    1    1    2    0    0  0.81856353396E-02  0.19126839702E-02  0.10822430536E+01  0.10822758203E+01  0.51109989000E-03 0. -1.
     -623    1    1    2    0    0 -0.55767043575E-01 -0.49897882243E-02  0.29974330125E-03  0.17124000915E+03  0.17124000000E+03 0. -1.
     -611    1    1    2    0    0  0.14989841590E-01  0.34162200493E-03  0.13347592254E+01  0.13348435351E+01  0.51109989000E-03 0. -1.
      611    1    1    2    0    0  0.32591566818E-01  0.27354822646E-02  0.30826979709E+01  0.30828715079E+01  0.51109989000E-03 0.  1.
</event>
<event>
 6   3  0.2312675E+03  0.9118800E+02  0.7818608E-02  0.1180000E+00
       11   -1    0    0    0    0  0.00000000000E+00  0.00000000000E+00  0.54999999763E+01  0.55000000000E+01  0.51109989000E-03 0.  1.
     -623   -1    0    0    0    0  0.00000000000E+00  0.00000000000E+00  0.93234578044E-11  0.17124000000E+03  0.17124000000E+03 0.  1.
       11    1    1    2    0    0  0.13212358001E-01 -0.16351639409E-01  0.19519708097E+00  0.19632652434E+00  0.51109989000E-03 0.  1.
     -623    1    1    2    0    0 -0.12767080312E-02 -0.53555389840E-02  0.20557311324E-02  0.17124000010E+03  0.17124000000E+03 0.  1.
     -611    1    1    2    0    0 -0.49130899344E-01  0.29869741133E-01  0.38401717530E+01  0.38406022184E+01  0.51109989000E-03 0.  1.
      611    1    1    2    0    0  0.37195249374E-01 -0.81625627402E-02  0.14625754112E+01  0.14630711564E+01  0.51109989000E-03 0. -1.
</event>
<event>
 6   3  0.3576423E+03  0.9118800E+02  0.7818608E-02  0.1180000E+00
       11   -1    0    0    0    0  0.00000000000E+00  0.00000000000E+00  0.54999999763E+01  0.55000000000E+01  0.51109989000E-03 0. -1.
     -623   -1    0    0    0    0  0.00000000000E+00  0.00000000000E+00  0.93234578044E-11  0.17124000000E+03  0.17124000000E+03 0.  1.
       11    1    1    2    0    0  0.19024731131E-02 -0.78292956393E-03  0.46158273244E-03  0.21694848155E-02  0.51109989000E-03 0. -1.
     -623    1    1    2    0    0 -0.23132536143E-02  0.26305259429E-03  0.25064209839E-02  0.17124000003E+03  0.17124000000E+03 0.  1.
     -611    1    1    2    0    0 -0.46060673400E-01  0.45981313880E-03  0.31676720483E+01  0.31680069861E+01  0.51109989000E-03 0. -1.
      611    1    1    2    0    0  0.46471453901E-01  0.60063830844E-04  0.23293599243E+01  0.23298234950E+01  0.51109989000E-03 0.  1.
</event>
<event>
 6   3  0.2312675E+03  0.9118800E+02  0.7818608E-02  0.1180000E+00
       11   -1    0    0    0    0  0.00000000000E+00  0.00000000000E+00  0.54999999763E+01  0.55000000000E+01  0.51109989000E-03 0. -1.
     -623   -1    0    0    0    0  0.00000000000E+00  0.00000000000E+00  0.93234578044E-11  0.17124000000E+03  0.17124000000E+03 0. -1.
       11    1    1    2    0    0 -0.73452234179E-01  0.30700971827E-01  0.10177591877E+01  0.10208681628E+01  0.51109989000E-03 0. -1.
     -623    1    1    2    0    0 -0.29367158812E-01  0.41012820240E-02  0.44309446872E-02  0.17124000262E+03  0.17124000000E+03 0. -1.
     -611    1    1    2    0    0  0.82692068002E-01 -0.30111288409E-01  0.35839548851E+01  0.35850352226E+01  0.51109989000E-03 0. -1.
      611    1    1    2    0    0  0.20127324998E-01 -0.46909654453E-02  0.89385495915E+00  0.89409399036E+00  0.51109989000E-03 0.  1.
</event>
<event>
 6   3  0.2312675E+03  0.9118800E+02  0.7818608E-02  0.1180000E+00
       11   -1    0    0    0    0  0.00000000000E+00  0.00000000000E+00  0.54999999763E+01  0.55000000000E+01  0.51109989000E-03 0. -1.
     -623   -1    0    0    0    0  0.00000000000E+00  0.00000000000E+00  0.93234578044E-11  0.17124000000E+03  0.17124000000E+03 0.  1.
       11    1    1    2    0    0  0.58793004474E-02  0.10665160629E-01  0.10163762396E+01  0.10164493265E+01  0.51109989000E-03 0. -1.
     -623    1    1    2    0    0 -0.94033773408E-03  0.19000623687E-02  0.80101987133E-03  0.17124000001E+03  0.17124000000E+03 0.  1.
     -611    1    1    2    0    0  0.34229159657E-01  0.47770446362E-02  0.26603465417E+01  0.26605710738E+01  0.51109989000E-03 0.  1.
      611    1    1    2    0    0 -0.39168122370E-01 -0.17342267633E-01  0.18224761751E+01  0.18229795847E+01  0.51109989000E-03 0. -1.
</event>
<event>
 6   3  0.2312675E+03  0.9118800E+02  0.7818608E-02  0.1180000E+00
       11   -1    0    0    0    0  0.00000000000E+00  0.00000000000E+00  0.54999999763E+01  0.55000000000E+01  0.51109989000E-03 0.  1.
     -623   -1    0    0    0    0  0.00000000000E+00  0.00000000000E+00  0.93234578044E-11  0.17124000000E+03  0.17124000000E+03 0. -1.
       11    1    1    2    0    0  0.19984939165E-02  0.45293952231E-02  0.17291579987E+00  0.17298741129E+00  0.51109989000E-03 0.  1.
     -623    1    1    2    0    0 -0.65448005378E-02 -0.14926038319E-01  0.44342789400E-03  0.17124000078E+03  0.17124000000E+03 0. -1.
     -611    1    1    2    0    0 -0.26405419248E-01 -0.69129050870E-02  0.24723561292E+01  0.24725068504E+01  0.51109989000E-03 0.  1.
      611    1    1    2    0    0  0.30951725869E-01  0.17309548182E-01  0.28542846189E+01  0.28545049618E+01  0.51109989000E-03 0. -1.
</event>
<event>
 6   3  0.2312675E+03  0.9118800E+02  0.7818608E-02  0.1180000E+00
       11   -1    0    0    0    0  0.00000000000E+00  0.00000000000E+00  0.54999999763E+01  0.55000000000E+01  0.51109989000E-03 0.  1.
     -623   -1    0    0    0    0  0.00000000000E+00  0.00000000000E+00  0.93234578044E-11  0.17124000000E+03  0.17124000000E+03 0.  1.
       11    1    1    2    0    0 -0.13712131991E-01  0.10451445326E-01  0.93295604456E-02  0.19610129891E-01  0.51109989000E-03 0.  1.
     -623    1    1    2    0    0 -0.43416945658E-01  0.16216103928E-02  0.10598645532E-01  0.17124000584E+03  0.17124000000E+03 0.  1.
     -611    1    1    2    0    0  0.43203874816E-01 -0.76236300670E-02  0.41163453064E+01  0.41165791183E+01  0.51109989000E-03 0.  1.
      611    1    1    2    0    0  0.13925202831E-01 -0.44494256511E-02  0.13637264637E+01  0.13638049119E+01  0.51109989000E-03 0. -1.
</event>
<event>
 6   3  0.2312675E+03  0.9118800E+02  0.7818608E-02  0.1180000E+00
       11   -1    0    0    0    0  0.00000000000E+00  0.00000000000E+00  0.54999999763E+01  0.55000000000E+01  0.51109989000E-03 0.  1.
     -623   -1    0    0    0    0  0.00000000000E+00  0.00000000000E+00  0.93234578044E-11  0.17124000000E+03  0.17124000000E+03 0.  1.
       11    1    1    2    0    0  0.41050447490E-03 -0.99103784063E-03  0.99758520084E-01  0.99765596387E-01  0.51109989000E-03 0.  1.
     -623    1    1    2    0    0 -0.50197383045E-03  0.20416909995E-02  0.19286807998E-02  0.17124000002E+03  0.17124000000E+03 0.  1.
     -611    1    1    2    0    0  0.37042453125E-01 -0.61383838200E-01  0.23150058223E+01  0.23161157867E+01  0.51109989000E-03 0. -1.
      611    1    1    2    0    0 -0.36950983769E-01  0.60333185041E-01  0.30833069532E+01  0.30841185932E+01  0.51109989000E-03 0.  1.
</event>
<event>
 6   3  0.2312675E+03  0.9118800E+02  0.7818608E-02  0.1180000E+00
       11   -1    0    0    0    0  0.00000000000E+00  0.00000000000E+00  0.54999999763E+01  0.55000000000E+01  0.51109989000E-03 0.  1.
     -623   -1    0    0    0    0  0.00000000000E+00  0.00000000000E+00  0.93234578044E-11  0.17124000000E+03  0.17124000000E+03 0.  1.
       11    1    1    2    0    0  0.18550994209E-01  0.19069648368E-01  0.47362500892E+00  0.47437190175E+00  0.51109989000E-03 0.  1.
     -623    1    1    2    0    0  0.33769815498E-01  0.38995707217E-02  0.16931462064E-02  0.17124000338E+03  0.17124000000E+03 0.  1.
     -611    1    1    2    0    0 -0.62921728729E-01 -0.41813698244E-01  0.40248274266E+01  0.40255364369E+01  0.51109989000E-03 0.  1.
      611    1    1    2    0    0  0.10600919021E-01  0.18844479154E-01  0.99985439456E+00  0.10000882788E+01  0.51109989000E-03 0. -1.
</event>
<event>
 6   3  0.2312675E+03  0.9118800E+02  0.7818608E-02  0.1180000E+00
       11   -1    0    0    0    0  0.00000000000E+00  0.00000000000E+00  0.54999999763E+01  0.55000000000E+01  0.51109989000E-03 0.  1.
     -623   -1    0    0    0    0  0.00000000000E+00  0.00000000000E+00  0.93234578044E-11  0.17124000000E+03  0.17124000000E+03 0.  1.
       11    1    1    2    0    0 -0.28131490544E-01  0.88901105106E-02  0.35816917981E-01  0.46406116642E-01  0.51109989000E-03 0.  1.
     -623    1    1    2    0    0  0.22355945354E-02 -0.31983970059E-02  0.14321957136E-01  0.17124000064E+03  0.17124000000E+03 0.  1.
     -611    1    1    2    0    0  0.51632906528E-01 -0.88556907675E-01  0.38644101467E+01  0.38657695646E+01  0.51109989000E-03 0. -1.
      611    1    1    2    0    0 -0.25737010520E-01  0.82865194170E-01  0.15854509544E+01  0.15878236754E+01  0.51109989000E-03 0.  1.
</event>
<event>
 6   3  0.2312675E+03  0.9118800E+02  0.7818608E-02  0.1180000E+00
       11   -1    0    0    0    0  0.00000000000E+00  0.00000000000E+00  0.54999999763E+01  0.55000000000E+01  0.51109989000E-03 0. -1.
     -623   -1    0    0    0    0  0.00000000000E+00  0.00000000000E+00  0.93234578044E-11  0.17124000000E+03  0.17124000000E+03 0. -1.
       11    1    1    2    0    0  0.70135943314E-01 -0.39872671448E-01  0.67957941349E+00  0.68435175234E+00  0.51109989000E-03 0. -1.
     -623    1    1    2    0    0  0.35008787329E-02  0.10084831624E-01  0.54491263002E-02  0.17124000042E+03  0.17124000000E+03 0. -1.
     -611    1    1    2    0    0 -0.51608951955E-01  0.26355477459E-01  0.32348564171E+01  0.32353754644E+01  0.51109989000E-03 0. -1.
      611    1    1    2    0    0 -0.22027870092E-01  0.34323623647E-02  0.15801150194E+01  0.15802723638E+01  0.51109989000E-03 0.  1.
</event>
<event>
 6   3  0.2312675E+03  0.9118800E+02  0.7818608E-02  0.1180000E+00
       11   -1    0    0    0    0  0.00000000000E+00  0.00000000000E+00  0.54999999763E+01  0.55000000000E+01  0.51109989000E-03 0.  1.
     -623   -1    0    0    0    0  0.00000000000E+00  0.00000000000E+00  0.93234578044E-11  0.17124000000E+03  0.17124000000E+03 0. -1.
       11    1    1    2    0    0  0.26929332254E-01  0.52127751243E-02  0.42872332774E+00  0.42960018032E+00  0.51109989000E-03 0.  1.
     -623    1    1    2    0    0 -0.43173787189E-02  0.15565178489E-02  0.18756778808E-02  0.17124000007E+03  0.17124000000E+03 0. -1.
     -611    1    1    2    0    0 -0.48746174925E-01 -0.30304256176E-01  0.40193591746E+01  0.40197690199E+01  0.51109989000E-03 0.  1.
      611    1    1    2    0    0  0.26134221390E-01  0.23534963203E-01  0.10500417961E+01  0.10506307281E+01  0.51109989000E-03 0. -1.
</event>
<event>
 6   3  0.2312675E+03  0.9118800E+02  0.7818608E-02  0.1180000E+00
       11   -1    0    0    0    0  0.00000000000E+00  0.00000000000E+00  0.54999999763E+01  0.55000000000E+01  0.51109989000E-03 0.  1.
     -623   -1    0    0    0    0  0.00000000000E+00  0.00000000000E+00  0.93234578044E-11  0.17124000000E+03  0.17124000000E+03 0.  1.
       11    1    1    2    0    0  0.40492941689E-01 -0.20311667216E-01  0.30538420538E+00  0.30872644246E+00  0.51109989000E-03 0.  1.
     -623    1    1    2    0    0  0.15906839520E-01  0.14733103176E-01  0.36625276015E-02  0.17124000141E+03  0.17124000000E+03 0.  1.
     -611    1    1    2    0    0 -0.16647958337E-01 -0.15568436037E-02  0.12500283901E+01  0.12501403184E+01  0.51109989000E-03 0. -1.
      611    1    1    2    0    0 -0.39751822873E-01  0.71354076437E-02  0.39409248531E+01  0.39411318274E+01  0.51109989000E-03 0.  1.
</event>
<event>
 6   3  0.2312675E+03  0.9118800E+02  0.7818608E-02  0.1180000E+00
       11   -1    0    0    0    0  0.00000000000E+00  0.00000000000E+00  0.54999999763E+01  0.55000000000E+01  0.51109989000E-03 0. -1.
     -623   -1    0    0    0    0  0.00000000000E+00  0.00000000000E+00  0.93234578044E-11  0.17124000000E+03  0.17124000000E+03 0.  1.
       11    1    1    2    0    0  0.14096471989E+00  0.58103640032E-01  0.75832927431E+00  0.77350541998E+00  0.51109989000E-03 0. -1.
     -623    1    1    2    0    0 -0.69360438944E-01  0.81107326151E-02  0.23973561980E-01  0.17124001592E+03  0.17124000000E+03 0.  1.
     -611    1    1    2    0    0  0.48761533375E-01  0.54056435112E-01  0.28801884702E+01  0.28811084100E+01  0.51109989000E-03 0.  1.
      611    1    1    2    0    0 -0.12036581432E+00 -0.12027080776E+00  0.18375086698E+01  0.18453702526E+01  0.51109989000E-03 0. -1.
</event>
<event>
 6   3  0.2312675E+03  0.9118800E+02  0.7818608E-02  0.1180000E+00
       11   -1    0    0    0    0  0.00000000000E+00  0.00000000000E+00  0.54999999763E+01  0.55000000000E+01  0.51109989000E-03 0. -1.
     -623   -1    0    0    0    0  0.00000000000E+00  0.00000000000E+00  0.93234578044E-11  0.17124000000E+03  0.17124000000E+03 0.  1.
       11    1    1    2    0    0  0.63620685945E-02 -0.12917312044E-02  0.56777213399E+00  0.56780947671E+00  0.51109989000E-03 0. -1.
     -623    1    1    2    0    0 -0.80485110198E-01  0.85265222225E-02  0.61951336988E-03  0.17124001913E+03  0.17124000000E+03 0.  1.
     -611    1    1    2    0    0  0.53898421219E-01 -0.63293815162E-02  0.36089910984E+01  0.36093991342E+01  0.51109989000E-03 0. -1.
      611    1    1    2    0    0  0.20224619933E-01 -0.90540945394E-03  0.13226171996E+01  0.13227722302E+01  0.51109989000E-03 0.  1.
</event>
<event>
 6   3  0.2312675E+03  0.9118800E+02  0.7818608E-02  0.1180000E+00
       11   -1    0    0    0    0  0.00000000000E+00  0.00000000000E+00  0.54999999763E+01  0.55000000000E+01  0.51109989000E-03 0. -1.
     -623   -1    0    0    0    0  0.00000000000E+00  0.00000000000E+00  0.93234578044E-11  0.17124000000E+03  0.17124000000E+03 0.  1.
       11    1    1    2    0    0 -0.47100633529E-01  0.32651985950E-01  0.28491319977E+00  0.29062073995E+00  0.51109989000E-03 0. -1.
     -623    1    1    2    0    0 -0.56544399364E-02 -0.47362362421E-02  0.60499559719E-02  0.17124000027E+03  0.17124000000E+03 0.  1.
     -611    1    1    2    0    0  0.45837111489E-01 -0.24420166284E-01  0.45268258082E+01  0.45271237606E+01  0.51109989000E-03 0. -1.
      611    1    1    2    0    0  0.69179619180E-02 -0.34955833930E-02  0.68221100655E+00  0.68225522789E+00  0.51109989000E-03 0. -1.
</event>
<event>
 6   3  0.2312675E+03  0.9118800E+02  0.7818608E-02  0.1180000E+00
       11   -1    0    0    0    0  0.00000000000E+00  0.00000000000E+00  0.54999999763E+01  0.55000000000E+01  0.51109989000E-03 0. -1.
     -623   -1    0    0    0    0  0.00000000000E+00  0.00000000000E+00  0.93234578044E-11  0.17124000000E+03  0.17124000000E+03 0.  1.
       11    1    1    2    0    0 -0.82840130575E-01 -0.10681296876E-01  0.89556027759E+00  0.89944707979E+00  0.51109989000E-03 0. -1.
     -623    1    1    2    0    0  0.64120400052E-02  0.53788709366E-02  0.45257325952E-02  0.17124000026E+03  0.17124000000E+03 0.  1.
     -611    1    1    2    0    0  0.47504848252E-01  0.44452620589E-02  0.28513330310E+01  0.28517322430E+01  0.51109989000E-03 0. -1.
      611    1    1    2    0    0  0.28923242322E-01  0.85716388055E-03  0.17485809354E+01  0.17488204131E+01  0.51109989000E-03 0.  1.
</event>
<event>
 6   3  0.2312675E+03  0.9118800E+02  0.7818608E-02  0.1180000E+00
       11   -1    0    0    0    0  0.00000000000E+00  0.00000000000E+00  0.54999999763E+01  0.55000000000E+01  0.51109989000E-03 0. -1.
     -623   -1    0    0    0    0  0.00000000000E+00  0.00000000000E+00  0.93234578044E-11  0.17124000000E+03  0.17124000000E+03 0. -1.
       11    1    1    2    0    0  0.17816426287E+00 -0.55460776931E-01  0.80398161742E+00  0.82535150374E+00  0.51109989000E-03 0. -1.
     -623    1    1    2    0    0 -0.87910288692E-02  0.46850712030E-01  0.24456065948E-01  0.17124000838E+03  0.17124000000E+03 0. -1.
     -611    1    1    2    0    0 -0.14804313420E+00  0.72268770511E-02  0.40931597890E+01  0.40958425650E+01  0.51109989000E-03 0. -1.
      611    1    1    2    0    0 -0.21330099724E-01  0.13831878448E-02  0.57840250150E+00  0.57879754779E+00  0.51109989000E-03 0. -1.
</event>
<event>
 6   3  0.2312675E+03  0.9118800E+02  0.7818608E-02  0.1180000E+00
       11   -1    0    0    0    0  0.00000000000E+00  0.00000000000E+00  0.54999999763E+01  0.55000000000E+01  0.51109989000E-03 0. -1.
     -623   -1    0    0    0    0  0.00000000000E+00  0.00000000000E+00  0.93234578044E-11  0.17124000000E+03  0.17124000000E+03 0. -1.
       11    1    1    2    0    0  0.11852467700E-02 -0.56480963274E-02  0.51101218441E+00  0.51104502702E+00  0.51109989000E-03 0. -1.
     -623    1    1    2    0    0  0.13193458887E-02 -0.78188415478E-03  0.67807482220E-03  0.17124000001E+03  0.17124000000E+03 0. -1.
     -611    1    1    2    0    0  0.32635663736E-01  0.23335426212E-01  0.29428015319E+01  0.29430750493E+01  0.51109989000E-03 0. -1.
      611    1    1    2    0    0 -0.35140256395E-01 -0.16905445730E-01  0.20455081852E+01  0.20458799155E+01  0.51109989000E-03 0.  1.
</event>
<event>
 6   3  0.2312675E+03  0.9118800E+02  0.7818608E-02  0.1180000E+00
       11   -1    0    0    0    0  0.00000000000E+00  0.00000000000E+00  0.54999999763E+01  0.55000000000E+01  0.51109989000E-03 0.  1.
     -623   -1    0    0    0    0  0.00000000000E+00  0.00000000000E+00  0.93234578044E-11  0.17124000000E+03  0.17124000000E+03 0. -1.
       11    1    1    2    0    0  0.45661333121E-02 -0.10135780120E-01  0.98041506651E-01  0.98671079154E-01  0.51109989000E-03 0.  1.
     -623    1    1    2    0    0 -0.72689912506E-01  0.28589931307E-01  0.11121633323E-02  0.17124001782E+03  0.17124000000E+03 0. -1.
     -611    1    1    2    0    0  0.42260372896E-01 -0.13973024221E-01  0.32636049958E+01  0.32639085487E+01  0.51109989000E-03 0.  1.
      611    1    1    2    0    0  0.25863406296E-01 -0.44811269654E-02  0.21372413103E+01  0.21374025536E+01  0.51109989000E-03 0. -1.
</event>
<event>
 6   3  0.2312675E+03  0.9118800E+02  0.7818608E-02  0.1180000E+00
       11   -1    0    0    0    0  0.00000000000E+00  0.00000000000E+00  0.54999999763E+01  0.55000000000E+01  0.51109989000E-03 0.  1.
     -623   -1    0    0    0    0  0.00000000000E+00  0.00000000000E+00  0.93234578044E-11  0.17124000000E+03  0.17124000000E+03 0.  1.
       11    1    1    2    0    0  0.67737782717E-01  0.57138913337E-02  0.75691870482E+00  0.75996529045E+00  0.51109989000E-03 0.  1.
     -623    1    1    2    0    0  0.10338170804E-01 -0.39267515891E-02  0.36911131836E-02  0.17124000040E+03  0.17124000000E+03 0.  1.
     -611    1    1    2    0    0 -0.18470968864E-01 -0.11078275130E-02  0.10780458437E+01  0.10782047609E+01  0.51109989000E-03 0.  1.
      611    1    1    2    0    0 -0.59604984651E-01 -0.67931223155E-03  0.36613443141E+01  0.36618295514E+01  0.51109989000E-03 0.  1.
</event>
<event>
 6   3  0.2312675E+03  0.9118800E+02  0.7818608E-02  0.1180000E+00
       11   -1    0    0    0    0  0.00000000000E+00  0.00000000000E+00  0.54999999763E+01  0.55000000000E+01  0.51109989000E-03 0.  1.
     -623   -1    0    0    0    0  0.00000000000E+00  0.00000000000E+00  0.93234578044E-11  0.17124000000E+03  0.17124000000E+03 0. -1.
       11    1    1    2    0    0 -0.76869153718E-02  0.47613570273E-02  0.19287346975E-01  0.21307795876E-01  0.51109989000E-03 0.  1.
     -623    1    1    2    0    0  0.40936685333E-02  0.35303834073E-02  0.30788224928E-02  0.17124000011E+03  0.17124000000E+03 0. -1.
     -611    1    1    2    0    0  0.39653628450E-01 -0.39976952087E-01  0.36207458719E+01  0.36211837149E+01  0.51109989000E-03 0.  1.
      611    1    1    2    0    0 -0.36060381612E-01  0.31685211653E-01  0.18568879349E+01  0.18575083763E+01  0.51109989000E-03 0. -1.
</event>
<event>
 6   3  0.2312675E+03  0.9118800E+02  0.7818608E-02  0.1180000E+00
       11   -1    0    0    0    0  0.00000000000E+00  0.00000000000E+00  0.54999999763E+01  0.55000000000E+01  0.51109989000E-03 0.  1.
     -623   -1    0    0    0    0  0.00000000000E+00  0.00000000000E+00  0.93234578044E-11  0.17124000000E+03  0.17124000000E+03 0. -1.
       11    1    1    2    0    0 -0.37511967068E-01  0.18787910061E-01  0.41830691726E+00  0.42040584141E+00  0.51109989000E-03 0.  1.
     -623    1    1    2    0    0  0.13382267599E-02 -0.17354490494E-01  0.10486206640E-01  0.17124000121E+03  0.17124000000E+03 0. -1.
     -611    1    1    2    0    0  0.66921268580E-01  0.10967535051E+00  0.40255927834E+01  0.40276425682E+01  0.51109989000E-03 0.  1.
      611    1    1    2    0    0 -0.30747528272E-01 -0.11110877007E+00  0.10456140690E+01  0.10519503847E+01  0.51109989000E-03 0. -1.
</event>
<event>
 6   3  0.2312675E+03  0.9118800E+02  0.7818608E-02  0.1180000E+00
       11   -1    0    0    0    0  0.00000000000E+00  0.00000000000E+00  0.54999999763E+01  0.55000000000E+01  0.51109989000E-03 0. -1.
     -623   -1    0    0    0    0  0.00000000000E+00  0.00000000000E+00  0.93234578044E-11  0.17124000000E+03  0.17124000000E+03 0. -1.
       11    1    1    2    0    0 -0.10676125316E-01  0.25370596772E-01  0.84783030521E+00  0.84827715665E+00  0.51109989000E-03 0. -1.
     -623    1    1    2    0    0  0.10863479473E-01  0.52036147338E-03  0.13804407309E-02  0.17124000035E+03  0.17124000000E+03 0. -1.
     -611    1    1    2    0    0 -0.31545844165E-01 -0.45756528738E-01  0.25546158354E+01  0.25552203678E+01  0.51109989000E-03 0. -1.
      611    1    1    2    0    0  0.31358490008E-01  0.19865570492E-01  0.20961733950E+01  0.20965021247E+01  0.51109989000E-03 0.  1.
</event>
<event>
 6   3  0.2312675E+03  0.9118800E+02  0.7818608E-02  0.1180000E+00
       11   -1    0    0    0    0  0.00000000000E+00  0.00000000000E+00  0.54999999763E+01  0.55000000000E+01  0.51109989000E-03 0. -1.
     -623   -1    0    0    0    0  0.00000000000E+00  0.00000000000E+00  0.93234578044E-11  0.17124000000E+03  0.17124000000E+03 0.  1.
       11    1    1    2    0    0  0.96024539918E-02 -0.65588192237E-01  0.52931996189E+00  0.53345468539E+00  0.51109989000E-03 0. -1.
     -623    1    1    2    0    0  0.16923925962E-01  0.89266595348E-02  0.65790166728E-02  0.17124000120E+03  0.17124000000E+03 0.  1.
     -611    1    1    2    0    0 -0.50324841900E-01  0.91342193274E-01  0.26344914061E+01  0.26365548005E+01  0.51109989000E-03 0.  1.
      611    1    1    2    0    0  0.23798461947E-01 -0.34680660571E-01  0.23296095917E+01  0.23299893188E+01  0.51109989000E-03 0. -1.
</event>
<event>
 6   3  0.2312675E+03  0.9118800E+02  0.7818608E-02  0.1180000E+00
       11   -1    0    0    0    0  0.00000000000E+00  0.00000000000E+00  0.54999999763E+01  0.55000000000E+01  0.51109989000E-03 0. -1.
     -623   -1    0    0    0    0  0.00000000000E+00  0.00000000000E+00  0.93234578044E-11  0.17124000000E+03  0.17124000000E+03 0. -1.
       11    1    1    2    0    0 -0.28231463077E-01  0.10409602856E-01  0.73314911260E-01  0.79250948103E-01  0.51109989000E-03 0. -1.
     -623    1    1    2    0    0 -0.17290193897E-01 -0.13703724122E-01  0.74514883191E-02  0.17124000158E+03  0.17124000000E+03 0. -1.
     -611    1    1    2    0    0 -0.38094686581E-01 -0.16290924480E-02  0.10123904732E+01  0.10131083805E+01  0.51109989000E-03 0.  1.
      611    1    1    2    0    0  0.83616343555E-01  0.49232137147E-02  0.44068431035E+01  0.44076390881E+01  0.51109989000E-03 0. -1.
</event>
<event>
 6   3  0.2312675E+03  0.9118800E+02  0.7818608E-02  0.1180000E+00
       11   -1    0    0    0    0  0.00000000000E+00  0.00000000000E+00  0.54999999763E+01  0.55000000000E+01  0.51109989000E-03 0.  1.
     -623   -1    0    0    0    0  0.00000000000E+00  0.00000000000E+00  0.93234578044E-11  0.17124000000E+03  0.17124000000E+03 0. -1.
       11    1    1    2    0    0  0.10951916828E-01  0.99741275688E-02  0.87719173309E+00  0.87731694702E+00  0.51109989000E-03 0.  1.
     -623    1    1    2    0    0 -0.58896624576E-01 -0.62602415059E-01  0.69532312833E-03  0.17124002157E+03  0.17124000000E+03 0. -1.
     -611    1    1    2    0    0  0.22968686941E-01  0.26217348710E-01  0.22640263103E+01  0.22642946595E+01  0.51109989000E-03 0.  1.
      611    1    1    2    0    0  0.24976020950E-01  0.26410938932E-01  0.23580866231E+01  0.23583668337E+01  0.51109989000E-03 0.  1.
</event>
<event>
 6   3  0.2312675E+03  0.9118800E+02  0.7818608E-02  0.1180000E+00
       11   -1    0    0    0    0  0.00000000000E+00  0.00000000000E+00  0.54999999763E+01  0.55000000000E+01  0.51109989000E-03 0.  1.
     -623   -1    0    0    0    0  0.00000000000E+00  0.00000000000E+00  0.93234578044E-11  0.17124000000E+03  0.17124000000E+03 0. -1.
       11    1    1    2    0    0 -0.73310999169E-02 -0.21024225818E-02  0.78969378385E+00  0.78973077608E+00  0.51109989000E-03 0.  1.
     -623    1    1    2    0    0  0.62244640399E-01 -0.13931094065E-01  0.39883631574E-03  0.17124001188E+03  0.17124000000E+03 0. -1.
     -611    1    1    2    0    0 -0.35405187833E-01  0.86397518706E-02  0.31281958759E+01  0.31284082010E+01  0.51109989000E-03 0.  1.
      611    1    1    2    0    0 -0.19508352597E-01  0.73937647649E-02  0.15817114756E+01  0.15818491384E+01  0.51109989000E-03 0.  1.
</event>
<event>
 6   3  0.2312675E+03  0.9118800E+02  0.7818608E-02  0.1180000E+00
       11   -1    0    0    0    0  0.00000000000E+00  0.00000000000E+00  0.54999999763E+01  0.55000000000E+01  0.51109989000E-03 0. -1.
     -623   -1    0    0    0    0  0.00000000000E+00  0.00000000000E+00  0.93234578044E-11  0.17124000000E+03  0.17124000000E+03 0.  1.
       11    1    1    2    0    0  0.42645298440E-01  0.29637956213E-01  0.10436014166E+01  0.10448929169E+01  0.51109989000E-03 0. -1.
     -623    1    1    2    0    0  0.56738857982E-02 -0.11832696301E-01  0.15964008736E-02  0.17124000051E+03  0.17124000000E+03 0.  1.
     -611    1    1    2    0    0 -0.24211308613E-01 -0.13024412758E-01  0.23566135067E+01  0.23567739187E+01  0.51109989000E-03 0. -1.
      611    1    1    2    0    0 -0.24107875627E-01 -0.47808471554E-02  0.20981886523E+01  0.20983326542E+01  0.51109989000E-03 0.  1.
</event>
<event>
 6   3  0.2312675E+03  0.9118800E+02  0.7818608E-02  0.1180000E+00
       11   -1    0    0    0    0  0.00000000000E+00  0.00000000000E+00  0.54999999763E+01  0.55000000000E+01  0.51109989000E-03 0. -1.
     -623   -1    0    0    0    0  0.00000000000E+00  0.00000000000E+00  0.93234578044E-11  0.17124000000E+03  0.17124000000E+03 0.  1.
       11    1    1    2    0    0 -0.31464957695E-01 -0.13767353631E-01  0.27622090440E+00  0.27834840190E+00  0.51109989000E-03 0. -1.
     -623    1    1    2    0    0 -0.37257189939E-01  0.10197407804E-01  0.25859425771E-02  0.17124000438E+03  0.17124000000E+03 0.  1.
     -611    1    1    2    0    0  0.55508449965E-01  0.20394920871E-02  0.41952800700E+01  0.41956478015E+01  0.51109989000E-03 0. -1.
      611    1    1    2    0    0  0.13213697695E-01  0.15304537409E-02  0.10259130613E+01  0.10259994223E+01  0.51109989000E-03 0.  1.
</event>
<event>
 6   3  0.2312675E+03  0.9118800E+02  0.7818608E-02  0.1180000E+00
       11   -1    0    0    0    0  0.00000000000E+00  0.00000000000E+00  0.54999999763E+01  0.55000000000E+01  0.51109989000E-03 0. -1.
     -623   -1    0    0    0    0  0.00000000000E+00  0.00000000000E+00  0.93234578044E-11  0.17124000000E+03  0.17124000000E+03 0.  1.
       11    1    1    2    0    0  0.21345346431E-01  0.29437582582E-01  0.76453408029E+00  0.76539846892E+00  0.51109989000E-03 0. -1.
     -623    1    1    2    0    0 -0.60955959606E-02 -0.47151115412E-02  0.22359035039E-02  0.17124000019E+03  0.17124000000E+03 0.  1.
     -611    1    1    2    0    0  0.46667985728E-01 -0.99655886253E-02  0.25381517764E+01  0.25386003850E+01  0.51109989000E-03 0. -1.
      611    1    1    2    0    0 -0.61917736199E-01 -0.14756882416E-01  0.21950782160E+01  0.21960009580E+01  0.51109989000E-03 0.  1.
</event>
<event>
 6   3  0.2312675E+03  0.9118800E+02  0.7818608E-02  0.1180000E+00
       11   -1    0    0    0    0  0.00000000000E+00  0.00000000000E+00  0.54999999763E+01  0.55000000000E+01  0.51109989000E-03 0. -1.
     -623   -1    0    0    0    0  0.00000000000E+00  0.00000000000E+00  0.93234578044E-11  0.17124000000E+03  0.17124000000E+03 0. -1.
       11    1    1    2    0    0 -0.25590499394E-01  0.20002086718E-01  0.35376888508E+00  0.35525714969E+00  0.51109989000E-03 0. -1.
     -623    1    1    2    0    0  0.30807390532E-01 -0.75572555280E-02  0.28762374453E-02  0.17124000296E+03  0.17124000000E+03 0. -1.
     -611    1    1    2    0    0 -0.59382051982E-01 -0.19434014248E-01  0.32361986471E+01  0.32368017940E+01  0.51109989000E-03 0. -1.
      611    1    1    2    0    0  0.54165160844E-01  0.69891830576E-02  0.19071562067E+01  0.19079380942E+01  0.51109989000E-03 0.  1.
</event>
<event>
 6   3  0.2312675E+03  0.9118800E+02  0.7818608E-02  0.1180000E+00
       11   -1    0    0    0    0  0.00000000000E+00  0.00000000000E+00  0.54999999763E+01  0.55000000000E+01  0.51109989000E-03 0.  1.
     -623   -1    0    0    0    0  0.00000000000E+00  0.00000000000E+00  0.93234578044E-11  0.17124000000E+03  0.17124000000E+03 0.  1.
       11    1    1    2    0    0 -0.15503574211E-02 -0.23536096688E-02  0.54041957543E-02  0.61163421630E-02  0.51109989000E-03 0.  1.
     -623    1    1    2    0    0  0.27273299808E-02  0.91353921317E-02  0.17461386312E-02  0.17124000027E+03  0.17124000000E+03 0.  1.
     -611    1    1    2    0    0  0.46286760087E-01 -0.12556432641E-01  0.39543437665E+01  0.39546346245E+01  0.51109989000E-03 0.  1.
      611    1    1    2    0    0 -0.47463732647E-01  0.57746501777E-02  0.15385058754E+01  0.15392487591E+01  0.51109989000E-03 0. -1.
</event>
<event>
 6   3  0.2312675E+03  0.9118800E+02  0.7818608E-02  0.1180000E+00
       11   -1    0    0    0    0  0.00000000000E+00  0.00000000000E+00  0.54999999763E+01  0.55000000000E+01  0.51109989000E-03 0.  1.
     -623   -1    0    0    0    0  0.00000000000E+00  0.00000000000E+00  0.93234578044E-11  0.17124000000E+03  0.17124000000E+03 0. -1.
       11    1    1    2    0    0 -0.18622376709E-01 -0.23981688177E-02  0.32454452224E+00  0.32508760707E+00  0.51109989000E-03 0.  1.
     -623    1    1    2    0    0 -0.80764008322E-01  0.14957969463E-01  0.15325963408E-02  0.17124001971E+03  0.17124000000E+03 0. -1.
     -611    1    1    2    0    0  0.37178444795E-01 -0.46698264805E-02  0.19416121774E+01  0.19419737776E+01  0.51109989000E-03 0.  1.
      611    1    1    2    0    0  0.62207940022E-01 -0.78899741374E-02  0.32323106691E+01  0.32329188982E+01  0.51109989000E-03 0.  1.
</event>
<event>
 6   3  0.2312675E+03  0.9118800E+02  0.7818608E-02  0.1180000E+00
       11   -1    0    0    0    0  0.00000000000E+00  0.00000000000E+00  0.54999999763E+01  0.55000000000E+01  0.51109989000E-03 0.  1.
     -623   -1    0    0    0    0  0.00000000000E+00  0.00000000000E+00  0.93234578044E-11  0.17124000000E+03  0.17124000000E+03 0.  1.
       11    1    1    2    0    0 -0.98611741111E-02 -0.11488267020E-01  0.32461321031E+00  0.32496649144E+00  0.51109989000E-03 0.  1.
     -623    1    1    2    0    0  0.14022607014E-02 -0.33282796770E-03  0.79422912182E-03  0.17124000001E+03  0.17124000000E+03 0.  1.
     -611    1    1    2    0    0 -0.27529059483E-01  0.14539928854E-01  0.21456496845E+01  0.21458755995E+01  0.51109989000E-03 0. -1.
      611    1    1    2    0    0  0.35987972893E-01 -0.27188338668E-02  0.30289428523E+01  0.30291579011E+01  0.51109989000E-03 0.  1.
</event>
<event>
 6   3  0.2312675E+03  0.9118800E+02  0.7818608E-02  0.1180000E+00
       11   -1    0    0    0    0  0.00000000000E+00  0.00000000000E+00  0.54999999763E+01  0.55000000000E+01  0.51109989000E-03 0. -1.
     -623   -1    0    0    0    0  0.00000000000E+00  0.00000000000E+00  0.93234578044E-11  0.17124000000E+03  0.17124000000E+03 0.  1.
       11    1    1    2    0    0 -0.20400104845E-02  0.13944836281E-01  0.32181422726E+00  0.32212307926E+00  0.51109989000E-03 0. -1.
     -623    1    1    2    0    0 -0.13109189242E-02 -0.72562400857E-03  0.93860473205E-03  0.17124000001E+03  0.17124000000E+03 0.  1.
     -611    1    1    2    0    0 -0.38116872474E-01 -0.46256087822E-02  0.24404346181E+01  0.24407367082E+01  0.51109989000E-03 0.  1.
      611    1    1    2    0    0  0.41467801883E-01 -0.85936034906E-02  0.27368125262E+01  0.27371402035E+01  0.51109989000E-03 0. -1.
</event>
<event>
 6   3  0.2312675E+03  0.9118800E+02  0.7818608E-02  0.1180000E+00
       11   -1    0    0    0    0  0.00000000000E+00  0.00000000000E+00  0.54999999763E+01  0.55000000000E+01  0.51109989000E-03 0. -1.
     -623   -1    0    0    0    0  0.00000000000E+00  0.00000000000E+00  0.93234578044E-11  0.17124000000E+03  0.17124000000E+03 0. -1.
       11    1    1    2    0    0 -0.65018072256E-02  0.37713480263E-02  0.54408776030E+00  0.54413991647E+00  0.51109989000E-03 0. -1.
     -623    1    1    2    0    0  0.45650796830E-02  0.55384071740E-02  0.71271277547E-03  0.17124000015E+03  0.17124000000E+03 0. -1.
     -611    1    1    2    0    0  0.35273556856E-01  0.15710987126E-01  0.20828859507E+01  0.20832439137E+01  0.51109989000E-03 0. -1.
      611    1    1    2    0    0 -0.33336829313E-01 -0.25020742326E-01  0.28723135523E+01  0.28726160178E+01  0.51109989000E-03 0.  1.
</event>
<event>
 6   3  0.2312675E+03  0.9118800E+02  0.7818608E-02  0.1180000E+00
       11   -1    0    0    0    0  0.00000000000E+00  0.00000000000E+00  0.54999999763E+01  0.55000000000E+01  0.51109989000E-03 0. -1.
     -623   -1    0    0    0    0  0.00000000000E+00  0.00000000000E+00  0.93234578044E-11  0.17124000000E+03  0.17124000000E+03 0.  1.
       11    1    1    2    0    0 -0.20529487286E-02  0.30074531572E-02  0.69103686550E-01  0.69201445728E-01  0.51109989000E-03 0. -1.
     -623    1    1    2    0    0  0.16647764886E-02 -0.33285784639E-02  0.97104656269E-03  0.17124000004E+03  0.17124000000E+03 0.  1.
     -611    1    1    2    0    0 -0.36035282614E-01  0.31836627959E-01  0.22998599015E+01  0.23003625671E+01  0.51109989000E-03 0. -1.
      611    1    1    2    0    0  0.36423454854E-01 -0.31515502652E-01  0.31300653416E+01  0.31304359439E+01  0.51109989000E-03 0.  1.
</event>
<event>
 6   3  0.2312675E+03  0.9118800E+02  0.7818608E-02  0.1180000E+00
       11   -1    0    0    0    0  0.00000000000E+00  0.00000000000E+00  0.54999999763E+01  0.55000000000E+01  0.51109989000E-03 0.  1.
     -623   -1    0    0    0    0  0.00000000000E+00  0.00000000000E+00  0.93234578044E-11  0.17124000000E+03  0.17124000000E+03 0. -1.
       11    1    1    2    0    0  0.62445673916E-02 -0.52733962397E-02  0.32363397495E+00  0.32373757010E+00  0.51109989000E-03 0.  1.
     -623    1    1    2    0    0 -0.62485217305E-02  0.13486593951E-02  0.77260606830E-03  0.17124000012E+03  0.17124000000E+03 0. -1.
     -611    1    1    2    0    0  0.40373732900E-01  0.10782295465E-01  0.23389813717E+01  0.23393547005E+01  0.51109989000E-03 0.  1.
      611    1    1    2    0    0 -0.40369778561E-01 -0.68575586209E-02  0.28366120234E+01  0.28369076083E+01  0.51109989000E-03 0. -1.
</event>
<event>
 6   3  0.2312675E+03  0.9118800E+02  0.7818608E-02  0.1180000E+00
       11   -1    0    0    0    0  0.00000000000E+00  0.00000000000E+00  0.54999999763E+01  0.55000000000E+01  0.51109989000E-03 0. -1.
     -623   -1    0    0    0    0  0.00000000000E+00  0.00000000000E+00  0.93234578044E-11  0.17124000000E+03  0.17124000000E+03 0. -1.
       11    1    1    2    0    0 -0.15967070236E-01  0.15123722302E-01  0.95840772196E+00  0.95866015722E+00  0.51109989000E-03 0. -1.
     -623    1    1    2    0    0 -0.71382239270E-03 -0.52903539464E-04  0.97733185222E-03  0.17124000000E+03  0.17124000000E+03 0. -1.
     -611    1    1    2    0    0  0.46482469579E-01 -0.59051114438E-02  0.33018584906E+01  0.33021909762E+01  0.51109989000E-03 0. -1.
      611    1    1    2    0    0 -0.29801576950E-01 -0.91657073186E-02  0.12387564317E+01  0.12391488621E+01  0.51109989000E-03 0.  1.
</event>
<event>
 6   3  0.2312675E+03  0.9118800E+02  0.7818608E-02  0.1180000E+00
       11   -1    0    0    0    0  0.00000000000E+00  0.00000000000E+00  0.54999999763E+01  0.55000000000E+01  0.51109989000E-03 0.  1.
     -623   -1    0    0    0    0  0.00000000000E+00  0.00000000000E+00  0.93234578044E-11  0.17124000000E+03  0.17124000000E+03 0.  1.
       11    1    1    2    0    0 -0.96616813133E-03 -0.31109860880E-03  0.18643811850E-02  0.21834384587E-02  0.51109989000E-03 0. -1.
     -623    1    1    2    0    0 -0.13835129596E-02 -0.11289360630E-02  0.73458749856E-03  0.17124000001E+03  0.17124000000E+03 0.  1.
     -611    1    1    2    0    0 -0.27532127968E-01  0.18477677824E-01  0.26151215199E+01  0.26153317701E+01  0.51109989000E-03 0.  1.
      611    1    1    2    0    0  0.29881809059E-01 -0.17037643152E-01  0.28822794877E+01  0.28824847806E+01  0.51109989000E-03 0. -1.
</event>
<event>
 6   3  0.2312675E+03  0.9118800E+02  0.7818608E-02  0.1180000E+00
       11   -1    0    0    0    0  0.00000000000E+00  0.00000000000E+00  0.54999999763E+01  0.55000000000E+01  0.51109989000E-03 0.  1.
     -623   -1    0    0    0    0  0.00000000000E+00  0.00000000000E+00  0.93234578044E-11  0.17124000000E+03  0.17124000000E+03 0.  1.
       11    1    1    2    0    0  0.10721122663E-01  0.10543820418E-02  0.54774781946E+00  0.54785398524E+00  0.51109989000E-03 0.  1.
     -623    1    1    2    0    0 -0.19961356227E-01  0.10351262399E-01  0.62089637436E-03  0.17124000148E+03  0.17124000000E+03 0.  1.
     -611    1    1    2    0    0 -0.30499836107E-01 -0.30418588691E-02  0.20607899366E+01  0.20610179322E+01  0.51109989000E-03 0.  1.
      611    1    1    2    0    0  0.39740069672E-01 -0.83637855722E-02  0.28908413240E+01  0.28911266053E+01  0.51109989000E-03 0. -1.
</event>
<event>
 6   3  0.2312675E+03  0.9118800E+02  0.7818608E-02  0.1180000E+00
       11   -1    0    0    0    0  0.00000000000E+00  0.00000000000E+00  0.54999999763E+01  0.55000000000E+01  0.51109989000E-03 0. -1.
     -623   -1    0    0    0    0  0.00000000000E+00  0.00000000000E+00  0.93234578044E-11  0.17124000000E+03  0.17124000000E+03 0.  1.
       11    1    1    2    0    0 -0.81439952097E-02  0.12531562393E-01  0.99569662526E-02  0.17965720526E-01  0.51109989000E-03 0. -1.
     -623    1    1    2    0    0 -0.52271814698E-01  0.69611889655E-01  0.95883741830E-02  0.17124002240E+03  0.17124000000E+03 0.  1.
     -611    1    1    2    0    0  0.71015661305E-01 -0.89864194785E-01  0.44505006443E+01  0.44519742860E+01  0.51109989000E-03 0. -1.
      611    1    1    2    0    0 -0.10599851397E-01  0.77207427376E-02  0.10299539916E+01  0.10300375977E+01  0.51109989000E-03 0.  1.
</event>
<event>
 6   3  0.2312675E+03  0.9118800E+02  0.7818608E-02  0.1180000E+00
       11   -1    0    0    0    0  0.00000000000E+00  0.00000000000E+00  0.54999999763E+01  0.55000000000E+01  0.51109989000E-03 0. -1.
     -623   -1    0    0    0    0  0.00000000000E+00  0.00000000000E+00  0.93234578044E-11  0.17124000000E+03  0.17124000000E+03 0.  1.
       11    1    1    2    0    0 -0.78309158675E-03 -0.48001778864E-02  0.10637248966E-01  0.11707571432E-01  0.51109989000E-03 0. -1.
     -623    1    1    2    0    0  0.25861662118E-02  0.18465854299E-02  0.22276468244E-02  0.17124000004E+03  0.17124000000E+03 0.  1.
     -611    1    1    2    0    0 -0.40700533762E-01  0.40906066656E-01  0.31186111858E+01  0.31191450478E+01  0.51109989000E-03 0.  1.
      611    1    1    2    0    0  0.38897459136E-01 -0.37952474199E-01  0.23685238947E+01  0.23691473368E+01  0.51109989000E-03 0. -1.
</event>
<event>
 6   3  0.2312675E+03  0.9118800E+02  0.7818608E-02  0.1180000E+00
       11   -1    0    0    0    0  0.00000000000E+00  0.00000000000E+00  0.54999999763E+01  0.55000000000E+01  0.51109989000E-03 0.  1.
     -623   -1    0    0    0    0  0.00000000000E+00  0.00000000000E+00  0.93234578044E-11  0.17124000000E+03  0.17124000000E+03 0.  1.
       11    1    1    2    0    0 -0.45298259757E-02  0.79693313179E-02  0.48434381980E-02  0.10380254414E-01  0.51109989000E-03 0.  1.
     -623    1    1    2    0    0 -0.10382392547E-02 -0.27470400196E-02  0.63145390337E-02  0.17124000014E+03  0.17124000000E+03 0.  1.
     -611    1    1    2    0    0  0.42241741916E-01  0.17064955893E-01  0.20292929571E+01  0.20298043611E+01  0.51109989000E-03 0.  1.
      611    1    1    2    0    0 -0.36673676686E-01 -0.22287247191E-01  0.34595490419E+01  0.34598152429E+01  0.51109989000E-03 0. -1.
</event>
<event>
 6   3  0.2312675E+03  0.9118800E+02  0.7818608E-02  0.1180000E+00
       11   -1    0    0    0    0  0.00000000000E+00  0.00000000000E+00  0.54999999763E+01  0.55000000000E+01  0.51109989000E-03 0. -1.
     -623   -1    0    0    0    0  0.00000000000E+00  0.00000000000E+00  0.93234578044E-11  0.17124000000E+03  0.17124000000E+03 0. -1.
       11    1    1    2    0    0  0.41031519793E-02 -0.10191168346E-01  0.95207911485E+00  0.95214263529E+00  0.51109989000E-03 0. -1.
     -623    1    1    2    0    0 -0.63435549735E-01  0.47314801506E-01  0.64131171648E-03  0.17124001829E+03  0.17124000000E+03 0. -1.
     -611    1    1    2    0    0  0.28193147083E-01 -0.10114493047E-01  0.20638328634E+01  0.20640502673E+01  0.51109989000E-03 0. -1.
      611    1    1    2    0    0  0.31139250634E-01 -0.27009140084E-01  0.24834466829E+01  0.24837888063E+01  0.51109989000E-03 0.  1.
</event>
<event>
 6   3  0.2312675E+03  0.9118800E+02  0.7818608E-02  0.1180000E+00
       11   -1    0    0    0    0  0.00000000000E+00  0.00000000000E+00  0.54999999763E+01  0.55000000000E+01  0.51109989000E-03 0. -1.
     -623   -1    0    0    0    0  0.00000000000E+00  0.00000000000E+00  0.93234578044E-11  0.17124000000E+03  0.17124000000E+03 0. -1.
       11    1    1    2    0    0  0.22316299140E-02 -0.14549568609E-02  0.49560090424E-02  0.56498070999E-02  0.51109989000E-03 0. -1.
     -623    1    1    2    0    0 -0.13213796385E-02 -0.11339103600E-03  0.16865697766E-02  0.17124000001E+03  0.17124000000E+03 0. -1.
     -611    1    1    2    0    0  0.48876317439E-01 -0.11575642293E-01  0.33368336115E+01  0.33372116657E+01  0.51109989000E-03 0. -1.
      611    1    1    2    0    0 -0.49786567714E-01  0.13143990190E-01  0.21565237859E+01  0.21571385137E+01  0.51109989000E-03 0.  1.
</event>
<event>
 6   3  0.2312675E+03  0.9118800E+02  0.7818608E-02  0.1180000E+00
       11   -1    0    0    0    0  0.00000000000E+00  0.00000000000E+00  0.54999999763E+01  0.55000000000E+01  0.51109989000E-03 0.  1.
     -623   -1    0    0    0    0  0.00000000000E+00  0.00000000000E+00  0.93234578044E-11  0.17124000000E+03  0.17124000000E+03 0.  1.
       11    1    1    2    0    0 -0.99171212779E-03 -0.59883767594E-02  0.16786929903E-01  0.17857950269E-01  0.51109989000E-03 0.  1.
     -623    1    1    2    0    0 -0.33403342234E-02  0.98875864459E-03  0.37874814023E-02  0.17124000008E+03  0.17124000000E+03 0.  1.
     -611    1    1    2    0    0  0.56211846209E-01  0.16396146701E-01  0.70700018024E+00  0.70942097612E+00  0.51109989000E-03 0. -1.
      611    1    1    2    0    0 -0.51879799858E-01 -0.11396528586E-01  0.47724253847E+01  0.47727209963E+01  0.51109989000E-03 0.  1.
</event>
<event>
 6   3  0.2312675E+03  0.9118800E+02  0.7818608E-02  0.1180000E+00
       11   -1    0    0    0    0  0.00000000000E+00  0.00000000000E+00  0.54999999763E+01  0.55000000000E+01  0.51109989000E-03 0.  1.
     -623   -1    0    0    0    0  0.00000000000E+00  0.00000000000E+00  0.93234578044E-11  0.17124000000E+03  0.17124000000E+03 0.  1.
       11    1    1    2    0    0  0.86853135583E-02 -0.46471591742E-01  0.28957941267E+00  0.29341360053E+00  0.51109989000E-03 0.  1.
     -623    1    1    2    0    0  0.77738551600E-01  0.98466513230E-03  0.47680408809E-02  0.17124001771E+03  0.17124000000E+03 0.  1.
     -611    1    1    2    0    0 -0.49274686522E-01  0.25900894479E-01  0.29739144535E+01  0.29744354572E+01  0.51109989000E-03 0.  1.
      611    1    1    2    0    0 -0.37149178541E-01  0.19586032081E-01  0.22317380635E+01  0.22321332217E+01  0.51109989000E-03 0.  1.
</event>
<event>
 6   3  0.2312675E+03  0.9118800E+02  0.7818608E-02  0.1180000E+00
       11   -1    0    0    0    0  0.00000000000E+00  0.00000000000E+00  0.54999999763E+01  0.55000000000E+01  0.51109989000E-03 0.  1.
     -623   -1    0    0    0    0  0.00000000000E+00  0.00000000000E+00  0.93234578044E-11  0.17124000000E+03  0.17124000000E+03 0. -1.
       11    1    1    2    0    0 -0.13071092081E-01 -0.66622486008E-02  0.40576047901E-01  0.43149923418E-01  0.51109989000E-03 0.  1.
     -623    1    1    2    0    0 -0.45211708565E-01  0.24591097433E-01  0.29224871902E-02  0.17124000776E+03  0.17124000000E+03 0. -1.
     -611    1    1    2    0    0  0.36821465140E-01 -0.11007993035E-01  0.34168816594E+01  0.34170978229E+01  0.51109989000E-03 0.  1.
      611    1    1    2    0    0  0.21461335517E-01 -0.69208557999E-02  0.20396197828E+01  0.20397444955E+01  0.51109989000E-03 0.  1.
</event>
<event>
 6   3  0.2312675E+03  0.9118800E+02  0.7818608E-02  0.1180000E+00
       11   -1    0    0    0    0  0.00000000000E+00  0.00000000000E+00  0.54999999763E+01  0.55000000000E+01  0.51109989000E-03 0.  1.
     -623   -1    0    0    0    0  0.00000000000E+00  0.00000000000E+00  0.93234578044E-11  0.17124000000E+03  0.17124000000E+03 0.  1.
       11    1    1    2    0    0 -0.22355686582E-01 -0.27275593882E-01  0.13660907894E+00  0.14108875368E+00  0.51109989000E-03 0.  1.
     -623    1    1    2    0    0 -0.15985298300E-01 -0.16310116564E-01  0.61727163714E-02  0.17124000163E+03  0.17124000000E+03 0.  1.
     -611    1    1    2    0    0 -0.34350580099E-01  0.13898132352E-02  0.29935478680E+01  0.29937453120E+01  0.51109989000E-03 0.  1.
      611    1    1    2    0    0  0.72691564981E-01  0.42195897210E-01  0.23636703129E+01  0.23651643001E+01  0.51109989000E-03 0. -1.
</event>
<event>
 6   3  0.2312675E+03  0.9118800E+02  0.7818608E-02  0.1180000E+00
       11   -1    0    0    0    0  0.00000000000E+00  0.00000000000E+00  0.54999999763E+01  0.55000000000E+01  0.51109989000E-03 0.  1.
     -623   -1    0    0    0    0  0.00000000000E+00  0.00000000000E+00  0.93234578044E-11  0.17124000000E+03  0.17124000000E+03 0.  1.
       11    1    1    2    0    0 -0.16827569672E-01  0.24278004567E-01  0.55718446970E+00  0.55796718820E+00  0.51109989000E-03 0.  1.
     -623    1    1    2    0    0 -0.38491188918E-01 -0.96504357040E-02  0.11260701120E-02  0.17124000460E+03  0.17124000000E+03 0.  1.
     -611    1    1    2    0    0  0.43994712291E-01 -0.12494872321E-01  0.42009564994E+01  0.42012054731E+01  0.51109989000E-03 0.  1.
      611    1    1    2    0    0  0.11324046298E-01 -0.21326965425E-02  0.74073293699E+00  0.74082273695E+00  0.51109989000E-03 0. -1.
</event>
<event>
 6   3  0.2312675E+03  0.9118800E+02  0.7818608E-02  0.1180000E+00
       11   -1    0    0    0    0  0.00000000000E+00  0.00000000000E+00  0.54999999763E+01  0.55000000000E+01  0.51109989000E-03 0. -1.
     -623   -1    0    0    0    0  0.00000000000E+00  0.00000000000E+00  0.93234578044E-11  0.17124000000E+03  0.17124000000E+03 0.  1.
       11    1    1    2    0    0  0.58443673533E-02 -0.72185642919E-02  0.21727842453E-01  0.23635241927E-01  0.51109989000E-03 0. -1.
     -623    1    1    2    0    0 -0.69867201093E-03  0.16482121798E-01  0.41443177973E-02  0.17124000084E+03  0.17124000000E+03 0.  1.
     -611    1    1    2    0    0 -0.58716152396E-01 -0.32259592112E-01  0.12210925908E+01  0.12229291248E+01  0.51109989000E-03 0. -1.
      611    1    1    2    0    0  0.53570457054E-01  0.22996034606E-01  0.42530352252E+01  0.42534347884E+01  0.51109989000E-03 0.  1.
</event>
<event>
 6   3  0.2312675E+03  0.9118800E+02  0.7818608E-02  0.1180000E+00
       11   -1    0    0    0    0  0.00000000000E+00  0.00000000000E+00  0.54999999763E+01  0.55000000000E+01  0.51109989000E-03 0. -1.
     -623   -1    0    0    0    0  0.00000000000E+00  0.00000000000E+00  0.93234578044E-11  0.17124000000E+03  0.17124000000E+03 0. -1.
       11    1    1    2    0    0  0.98919772818E-01 -0.49218720684E-01  0.97674199560E+00  0.98297140910E+00  0.51109989000E-03 0. -1.
     -623    1    1    2    0    0 -0.77309634305E-03 -0.47924667516E-02  0.76191817495E-02  0.17124000024E+03  0.17124000000E+03 0. -1.
     -611    1    1    2    0    0 -0.41691349288E-01  0.22869170350E-01  0.19056696434E+01  0.19062628933E+01  0.51109989000E-03 0. -1.
      611    1    1    2    0    0 -0.56455327076E-01  0.31142017024E-01  0.26099691505E+01  0.26107654542E+01  0.51109989000E-03 0. -1.
</event>
<event>
 6   3  0.2312675E+03  0.9118800E+02  0.7818608E-02  0.1180000E+00
       11   -1    0    0    0    0  0.00000000000E+00  0.00000000000E+00  0.54999999763E+01  0.55000000000E+01  0.51109989000E-03 0. -1.
     -623   -1    0    0    0    0  0.00000000000E+00  0.00000000000E+00  0.93234578044E-11  0.17124000000E+03  0.17124000000E+03 0. -1.
       11    1    1    2    0    0 -0.21210361146E-01  0.18785960868E-01  0.95263846285E-01  0.99389402744E-01  0.51109989000E-03 0. -1.
     -623    1    1    2    0    0  0.63905580761E-02  0.72633477448E-02  0.73535885751E-02  0.17124000043E+03  0.17124000000E+03 0. -1.
     -611    1    1    2    0    0  0.64090221199E-01  0.24301016111E-01  0.44808110312E+01  0.44813352758E+01  0.51109989000E-03 0. -1.
      611    1    1    2    0    0 -0.49270418129E-01 -0.50350324724E-01  0.91657151020E+00  0.91927489025E+00  0.51109989000E-03 0.  1.
</event>
<event>
 6   3  0.2312675E+03  0.9118800E+02  0.7818608E-02  0.1180000E+00
       11   -1    0    0    0    0  0.00000000000E+00  0.00000000000E+00  0.54999999763E+01  0.55000000000E+01  0.51109989000E-03 0.  1.
     -623   -1    0    0    0    0  0.00000000000E+00  0.00000000000E+00  0.93234578044E-11  0.17124000000E+03  0.17124000000E+03 0. -1.
       11    1    1    2    0    0 -0.11351967927E-02  0.20466934196E-02  0.69950026061E-01  0.69991035103E-01  0.51109989000E-03 0.  1.
     -623    1    1    2    0    0 -0.50278922101E-02  0.29274774433E-03  0.36802362712E-02  0.17124000011E+03  0.17124000000E+03 0. -1.
     -611    1    1    2    0    0 -0.47454052484E-01 -0.83287233332E-01  0.33484813030E+01  0.33498531234E+01  0.51109989000E-03 0.  1.
      611    1    1    2    0    0  0.53617141487E-01  0.80947792168E-01  0.20778884109E+01  0.20801557279E+01  0.51109989000E-03 0. -1.
</event>
<event>
 6   3  0.2312675E+03  0.9118800E+02  0.7818608E-02  0.1180000E+00
       11   -1    0    0    0    0  0.00000000000E+00  0.00000000000E+00  0.54999999763E+01  0.55000000000E+01  0.51109989000E-03 0.  1.
     -623   -1    0    0    0    0  0.00000000000E+00  0.00000000000E+00  0.93234578044E-11  0.17124000000E+03  0.17124000000E+03 0.  1.
       11    1    1    2    0    0  0.10506685351E-01  0.30213937813E-01  0.21951126086E+00  0.22183040221E+00  0.51109989000E-03 0.  1.
     -623    1    1    2    0    0 -0.63543163774E-01 -0.42781492283E-01  0.26178577351E-02  0.17124001715E+03  0.17124000000E+03 0.  1.
     -611    1    1    2    0    0  0.36380398181E-01  0.89145607017E-02  0.36334330353E+01  0.36336261346E+01  0.51109989000E-03 0.  1.
      611    1    1    2    0    0  0.16656080185E-01  0.36529937556E-02  0.16444378167E+01  0.16445263037E+01  0.51109989000E-03 0.  1.
</event>
<event>
 6   3  0.2312675E+03  0.9118800E+02  0.7818608E-02  0.1180000E+00
       11   -1    0    0    0    0  0.00000000000E+00  0.00000000000E+00  0.54999999763E+01  0.55000000000E+01  0.51109989000E-03 0.  1.
     -623   -1    0    0    0    0  0.00000000000E+00  0.00000000000E+00  0.93234578044E-11  0.17124000000E+03  0.17124000000E+03 0. -1.
       11    1    1    2    0    0  0.46482583689E-02  0.22089608188E-01  0.65654658304E+00  0.65693472585E+00  0.51109989000E-03 0.  1.
     -623    1    1    2    0    0  0.48196798437E-01 -0.38478223420E-01  0.71637481090E-03  0.17124001111E+03  0.17124000000E+03 0. -1.
     -611    1    1    2    0    0 -0.36445347210E-01  0.12615784415E-01  0.33141777431E+01  0.33144021777E+01  0.51109989000E-03 0.  1.
      611    1    1    2    0    0 -0.16399709582E-01  0.37728308108E-02  0.15285592739E+01  0.15286519878E+01  0.51109989000E-03 0. -1.
</event>
<event>
 6   3  0.3803551E+03  0.9118800E+02  0.7818608E-02  0.1180000E+00
       11   -1    0    0    0    0  0.00000000000E+00  0.00000000000E+00  0.54999999763E+01  0.55000000000E+01  0.51109989000E-03 0.  1.
     -623   -1    0    0    0    0  0.00000000000E+00  0.00000000000E+00  0.93234578044E-11  0.17124000000E+03  0.17124000000E+03 0. -1.
       11    1    1    2    0    0  0.51073684313E-02 -0.71362419319E-02  0.99891693783E+00  0.99895561516E+00  0.51109989000E-03 0.  1.
     -623    1    1    2    0    0  0.89471162554E-03  0.62522544914E-03  0.36878593989E-03  0.17124000000E+03  0.17124000000E+03 0. -1.
     -611    1    1    2    0    0 -0.29147728475E-01 -0.30494464802E-02  0.25947823013E+01  0.25949478494E+01  0.51109989000E-03 0.  1.
      611    1    1    2    0    0  0.23145648418E-01  0.95604629630E-02  0.19059319510E+01  0.19060965313E+01  0.51109989000E-03 0. -1.
</event>
<event>
 6   3  0.2312675E+03  0.9118800E+02  0.7818608E-02  0.1180000E+00
       11   -1    0    0    0    0  0.00000000000E+00  0.00000000000E+00  0.54999999763E+01  0.55000000000E+01  0.51109989000E-03 0.  1.
     -623   -1    0    0    0    0  0.00000000000E+00  0.00000000000E+00  0.93234578044E-11  0.17124000000E+03  0.17124000000E+03 0. -1.
       11    1    1    2    0    0  0.44018949146E-01 -0.87666655189E-02  0.36478595835E+00  0.36753718035E+00  0.51109989000E-03 0.  1.
     -623    1    1    2    0    0  0.96230218307E-02  0.20072692438E-02  0.30427783969E-02  0.17124000031E+03  0.17124000000E+03 0. -1.
     -611    1    1    2    0    0 -0.17617485458E-01 -0.15816540754E-02  0.16395366805E+01  0.16396321738E+01  0.51109989000E-03 0. -1.
      611    1    1    2    0    0 -0.36024485519E-01  0.83410503505E-02  0.34926345589E+01  0.34928303366E+01  0.51109989000E-03 0.  1.
</event>
<event>
 6   3  0.2312675E+03  0.9118800E+02  0.7818608E-02  0.1180000E+00
       11   -1    0    0    0    0  0.00000000000E+00  0.00000000000E+00  0.54999999763E+01  0.55000000000E+01  0.51109989000E-03 0. -1.
     -623   -1    0    0    0    0  0.00000000000E+00  0.00000000000E+00  0.93234578044E-11  0.17124000000E+03  0.17124000000E+03 0.  1.
       11    1    1    2    0    0  0.25913465568E-02 -0.10278681361E-01  0.15297133726E+00  0.15333902835E+00  0.51109989000E-03 0. -1.
     -623    1    1    2    0    0  0.25303771957E-02 -0.17304662998E-02  0.19302990656E-02  0.17124000004E+03  0.17124000000E+03 0.  1.
     -611    1    1    2    0    0 -0.49313644936E-01  0.61507784816E-02  0.45770523748E+01  0.45773221834E+01  0.51109989000E-03 0. -1.
      611    1    1    2    0    0  0.44191921184E-01  0.58583691795E-02  0.76804596519E+00  0.76933875000E+00  0.51109989000E-03 0.  1.
</event>
<event>
 6   3  0.2312675E+03  0.9118800E+02  0.7818608E-02  0.1180000E+00
       11   -1    0    0    0    0  0.00000000000E+00  0.00000000000E+00  0.54999999763E+01  0.55000000000E+01  0.51109989000E-03 0.  1.
     -623   -1    0    0    0    0  0.00000000000E+00  0.00000000000E+00  0.93234578044E-11  0.17124000000E+03  0.17124000000E+03 0. -1.
       11    1    1    2    0    0 -0.68709687734E-01  0.86875431006E-01  0.83740839999E+00  0.84470198963E+00  0.51109989000E-03 0.  1.
     -623    1    1    2    0    0 -0.53950955323E-02 -0.54576128556E-02  0.86988277222E-02  0.17124000039E+03  0.17124000000E+03 0. -1.
     -611    1    1    2    0    0  0.16447541569E-01 -0.68309368393E-02  0.11450530992E+01  0.11451917065E+01  0.51109989000E-03 0. -1.
      611    1    1    2    0    0  0.57657241697E-01 -0.74586881311E-01  0.35088396493E+01  0.35101059110E+01  0.51109989000E-03 0.  1.
</event>
<event>
 6   3  0.2312675E+03  0.9118800E+02  0.7818608E-02  0.1180000E+00
       11   -1    0    0    0    0  0.00000000000E+00  0.00000000000E+00  0.54999999763E+01  0.55000000000E+01  0.51109989000E-03 0.  1.
     -623   -1    0    0    0    0  0.00000000000E+00  0.00000000000E+00  0.93234578044E-11  0.17124000000E+03  0.17124000000E+03 0. -1.
       11    1    1    2    0    0 -0.17061735835E-01  0.12827068165E-01  0.99379428200E+00  0.99402362782E+00  0.51109989000E-03 0.  1.
     -623    1    1    2    0    0  0.10050051537E+00 -0.20094277175E-01  0.11506103510E-02  0.17124003067E+03  0.17124000000E+03 0. -1.
     -611    1    1    2    0    0 -0.10325101941E-01  0.12029917831E-01  0.64274791422E+00  0.64294359714E+00  0.51109989000E-03 0. -1.
      611    1    1    2    0    0 -0.73113677569E-01 -0.47627088258E-02  0.38623071685E+01  0.38630020992E+01  0.51109989000E-03 0.  1.
</event>
<event>
 6   3  0.2312675E+03  0.9118800E+02  0.7818608E-02  0.1180000E+00
       11   -1    0    0    0    0  0.00000000000E+00  0.00000000000E+00  0.54999999763E+01  0.55000000000E+01  0.51109989000E-03 0. -1.
     -623   -1    0    0    0    0  0.00000000000E+00  0.00000000000E+00  0.93234578044E-11  0.17124000000E+03  0.17124000000E+03 0. -1.
       11    1    1    2    0    0  0.43540711219E-01 -0.37267454129E-01  0.16226524895E+00  0.17208988614E+00  0.51109989000E-03 0. -1.
     -623    1    1    2    0    0  0.67543607857E-01  0.50168101764E-01  0.11063036903E-01  0.17124002103E+03  0.17124000000E+03 0. -1.
     -611    1    1    2    0    0 -0.85934146351E-01 -0.10121164499E-01  0.36447866214E+01  0.36458136118E+01  0.51109989000E-03 0.  1.
      611    1    1    2    0    0 -0.25150172724E-01 -0.27794831351E-02  0.16818850690E+01  0.16820754749E+01  0.51109989000E-03 0. -1.
</event>
<event>
 6   3  0.2312675E+03  0.9118800E+02  0.7818608E-02  0.1180000E+00
       11   -1    0    0    0    0  0.00000000000E+00  0.00000000000E+00  0.54999999763E+01  0.55000000000E+01  0.51109989000E-03 0. -1.
     -623   -1    0    0    0    0  0.00000000000E+00  0.00000000000E+00  0.93234578044E-11  0.17124000000E+03  0.17124000000E+03 0. -1.
       11    1    1    2    0    0 -0.29979408223E-01  0.74218576638E-01  0.79821681583E+00  0.80222036146E+00  0.51109989000E-03 0. -1.
     -623    1    1    2    0    0 -0.21412116739E-01 -0.37124662208E-02  0.48165255956E-02  0.17124000145E+03  0.17124000000E+03 0. -1.
     -611    1    1    2    0    0  0.17788308831E-01 -0.22085549713E-01  0.14865935601E+01  0.14868641060E+01  0.51109989000E-03 0.  1.
      611    1    1    2    0    0  0.33603216135E-01 -0.48420560710E-01  0.32103730751E+01  0.32109140863E+01  0.51109989000E-03 0. -1.
</event>
<event>
 6   3  0.2312675E+03  0.9118800E+02  0.7818608E-02  0.1180000E+00
       11   -1    0    0    0    0  0.00000000000E+00  0.00000000000E+00  0.54999999763E+01  0.55000000000E+01  0.51109989000E-03 0. -1.
     -623   -1    0    0    0    0  0.00000000000E+00  0.00000000000E+00  0.93234578044E-11  0.17124000000E+03  0.17124000000E+03 0.  1.
       11    1    1    2    0    0  0.77568273008E-01 -0.13064354868E-01  0.54364614003E+00  0.54930765618E+00  0.51109989000E-03 0. -1.
     -623    1    1    2    0    0  0.24894079005E-03  0.39801704730E-02  0.62834857733E-02  0.17124000016E+03  0.17124000000E+03 0.  1.
     -611    1    1    2    0    0 -0.59970423740E-01  0.57921422159E-02  0.37221058128E+01  0.37225934433E+01  0.51109989000E-03 0. -1.
      611    1    1    2    0    0 -0.17846790051E-01  0.32920421783E-02  0.12279645372E+01  0.12280987384E+01  0.51109989000E-03 0.  1.
</event>
<event>
 6   3  0.2312675E+03  0.9118800E+02  0.7818608E-02  0.1180000E+00
       11   -1    0    0    0    0  0.00000000000E+00  0.00000000000E+00  0.54999999763E+01  0.55000000000E+01  0.51109989000E-03 0. -1.
     -623   -1    0    0    0    0  0.00000000000E+00  0.00000000000E+00  0.93234578044E-11  0.17124000000E+03  0.17124000000E+03 0.  1.
       11    1    1    2    0    0  0.15811573430E-02 -0.44191324324E-02 -0.63398619905E-03  0.47636069944E-02  0.51109989000E-03 0. -1.
     -623    1    1    2    0    0  0.35251753402E-02  0.40205800885E-02  0.98359726570E-02  0.17124000037E+03  0.17124000000E+03 0.  1.
     -611    1    1    2    0    0 -0.68598901691E-01 -0.80518763046E-01  0.18801187780E+01  0.18830921276E+01  0.51109989000E-03 0.  1.
      611    1    1    2    0    0  0.63492569008E-01  0.80917315390E-01  0.36106792118E+01  0.36121438995E+01  0.51109989000E-03 0. -1.
</event>
<event>
 6   3  0.2312675E+03  0.9118800E+02  0.7818608E-02  0.1180000E+00
       11   -1    0    0    0    0  0.00000000000E+00  0.00000000000E+00  0.54999999763E+01  0.55000000000E+01  0.51109989000E-03 0.  1.
     -623   -1    0    0    0    0  0.00000000000E+00  0.00000000000E+00  0.93234578044E-11  0.17124000000E+03  0.17124000000E+03 0.  1.
       11    1    1    2    0    0 -0.18090362356E-02  0.58276855192E-03  0.19934200517E-01  0.20031120903E-01  0.51109989000E-03 0.  1.
     -623    1    1    2    0    0  0.21484699035E-04 -0.10866984677E-02  0.76516565704E-03  0.17124000001E+03  0.17124000000E+03 0.  1.
     -611    1    1    2    0    0  0.42573407253E-01 -0.74349525820E-02  0.24180256548E+01  0.24184118967E+01  0.51109989000E-03 0.  1.
      611    1    1    2    0    0 -0.40785855716E-01  0.79388824978E-02  0.30612749553E+01  0.30615569773E+01  0.51109989000E-03 0. -1.
</event>
<event>
 6   3  0.2312675E+03  0.9118800E+02  0.7818608E-02  0.1180000E+00
       11   -1    0    0    0    0  0.00000000000E+00  0.00000000000E+00  0.54999999763E+01  0.55000000000E+01  0.51109989000E-03 0. -1.
     -623   -1    0    0    0    0  0.00000000000E+00  0.00000000000E+00  0.93234578044E-11  0.17124000000E+03  0.17124000000E+03 0. -1.
       11    1    1    2    0    0  0.89903204722E-01  0.25391745083E-01  0.94556498019E+00  0.95016878496E+00  0.51109989000E-03 0. -1.
     -623    1    1    2    0    0 -0.20338011066E-01 -0.12533163572E-01  0.51560072571E-02  0.17124000174E+03  0.17124000000E+03 0. -1.
     -611    1    1    2    0    0 -0.51627261466E-01 -0.10207218018E-01  0.33607962840E+01  0.33612083370E+01  0.51109989000E-03 0.  1.
      611    1    1    2    0    0 -0.17937932159E-01 -0.26513634872E-02  0.11884827028E+01  0.11886211319E+01  0.51109989000E-03 0. -1.
</event>
<event>
 6   3  0.2312675E+03  0.9118800E+02  0.7818608E-02  0.1180000E+00
       11   -1    0    0    0    0  0.00000000000E+00  0.00000000000E+00  0.54999999763E+01  0.55000000000E+01  0.51109989000E-03 0.  1.
     -623   -1    0    0    0    0  0.00000000000E+00  0.00000000000E+00  0.93234578044E-11  0.17124000000E+03  0.17124000000E+03 0. -1.
       11    1    1    2    0    0 -0.59511366633E-01 -0.28971604039E-01  0.61823286781E+00  0.62176611090E+00  0.51109989000E-03 0.  1.
     -623    1    1    2    0    0  0.69434498472E-02 -0.32437380559E-02  0.39235234076E-02  0.17124000022E+03  0.17124000000E+03 0. -1.
     -611    1    1    2    0    0  0.43327820216E-01  0.26114984921E-01  0.39598392935E+01  0.39601624694E+01  0.51109989000E-03 0.  1.
      611    1    1    2    0    0  0.92400965821E-02  0.61003571814E-02  0.91800429270E+00  0.91807120442E+00  0.51109989000E-03 0.  1.
</event>
<event>
 6   3  0.2312675E+03  0.9118800E+02  0.7818608E-02  0.1180000E+00
       11   -1    0    0    0    0  0.00000000000E+00  0.00000000000E+00  0.54999999763E+01  0.55000000000E+01  0.51109989000E-03 0. -1.
     -623   -1    0    0    0    0  0.00000000000E+00  0.00000000000E+00  0.93234578044E-11  0.17124000000E+03  0.17124000000E+03 0. -1.
       11    1    1    2    0    0  0.42382664310E-01 -0.31260421129E-01  0.62363660194E+00  0.62585651444E+00  0.51109989000E-03 0. -1.
     -623    1    1    2    0    0  0.13197684068E-03 -0.34864312196E-02  0.32004926725E-02  0.17124000007E+03  0.17124000000E+03 0. -1.
     -611    1    1    2    0    0  0.12962648335E-01  0.26987645321E-01  0.74648454928E+00  0.74708487255E+00  0.51109989000E-03 0.  1.
      611    1    1    2    0    0 -0.55477289485E-01  0.77592070272E-02  0.41266783324E+01  0.41270585476E+01  0.51109989000E-03 0. -1.
</event>
<event>
 6   3  0.2312675E+03  0.9118800E+02  0.7818608E-02  0.1180000E+00
       11   -1    0    0    0    0  0.00000000000E+00  0.00000000000E+00  0.54999999763E+01  0.55000000000E+01  0.51109989000E-03 0.  1.
     -623   -1    0    0    0    0  0.00000000000E+00  0.00000000000E+00  0.93234578044E-11  0.17124000000E+03  0.17124000000E+03 0. -1.
       11    1    1    2    0    0  0.25806640035E-01  0.40057134013E-02  0.29210984033E+00  0.29327537989E+00  0.51109989000E-03 0.  1.
     -623    1    1    2    0    0  0.61377310384E-01  0.37024465178E-02  0.20429107744E-02  0.17124001105E+03  0.17124000000E+03 0. -1.
     -611    1    1    2    0    0 -0.64758400721E-01  0.11060032734E-01  0.36645737997E+01  0.36651626662E+01  0.51109989000E-03 0.  1.
      611    1    1    2    0    0 -0.22425549699E-01 -0.18768192653E-01  0.15412734254E+01  0.15415509020E+01  0.51109989000E-03 0. -1.
</event>
<event>
 6   3  0.2312675E+03  0.9118800E+02  0.7818608E-02  0.1180000E+00
       11   -1    0    0    0    0  0.00000000000E+00  0.00000000000E+00  0.54999999763E+01  0.55000000000E+01  0.51109989000E-03 0.  1.
     -623   -1    0    0    0    0  0.00000000000E+00  0.00000000000E+00  0.93234578044E-11  0.17124000000E+03  0.17124000000E+03 0. -1.
       11    1    1    2    0    0  0.38651137679E-01  0.22092761916E-01  0.56795234893E+00  0.56969477130E+00  0.51109989000E-03 0.  1.
     -623    1    1    2    0    0 -0.47480682352E-02  0.23105552567E-03  0.26156279422E-02  0.17124000009E+03  0.17124000000E+03 0. -1.
     -611    1    1    2    0    0  0.25564233845E-01 -0.55985149403E-02  0.84314615839E+00  0.84355235703E+00  0.51109989000E-03 0. -1.
      611    1    1    2    0    0 -0.59467303289E-01 -0.16725302501E-01  0.40862858410E+01  0.40867527857E+01  0.51109989000E-03 0.  1.
</event>
<event>
 6   3  0.2312675E+03  0.9118800E+02  0.7818608E-02  0.1180000E+00
       11   -1    0    0    0    0  0.00000000000E+00  0.00000000000E+00  0.54999999763E+01  0.55000000000E+01  0.51109989000E-03 0.  1.
     -623   -1    0    0    0    0  0.00000000000E+00  0.00000000000E+00  0.93234578044E-11  0.17124000000E+03  0.17124000000E+03 0. -1.
       11    1    1    2    0    0  0.24163361093E+00 -0.44988086009E-02  0.10621369836E+01  0.10892852126E+01  0.51109989000E-03 0.  1.
     -623    1    1    2    0    0 -0.63654278968E-01 -0.39993005652E-01  0.31026790807E-01  0.17124001931E+03  0.17124000000E+03 0. -1.
     -611    1    1    2    0    0 -0.11024326875E+00  0.29216620550E-01  0.25130441755E+01  0.25156308311E+01  0.51109989000E-03 0.  1.
      611    1    1    2    0    0 -0.67736063215E-01  0.15275193703E-01  0.18937920263E+01  0.18950646442E+01  0.51109989000E-03 0. -1.
</event>
<event>
 6   3  0.2312675E+03  0.9118800E+02  0.7818608E-02  0.1180000E+00
       11   -1    0    0    0    0  0.00000000000E+00  0.00000000000E+00  0.54999999763E+01  0.55000000000E+01  0.51109989000E-03 0. -1.
     -623   -1    0    0    0    0  0.00000000000E+00  0.00000000000E+00  0.93234578044E-11  0.17124000000E+03  0.17124000000E+03 0. -1.
       11    1    1    2    0    0  0.10494368413E-01  0.31302476598E-02  0.25137645098E+00  0.25161540404E+00  0.51109989000E-03 0. -1.
     -623    1    1    2    0    0 -0.14079024835E-02 -0.42791832633E-02  0.17394531757E-02  0.17124000007E+03  0.17124000000E+03 0. -1.
     -611    1    1    2    0    0  0.56523393990E-01 -0.94292639532E-02  0.20024125573E+01  0.20032324168E+01  0.51109989000E-03 0.  1.
      611    1    1    2    0    0 -0.65609859920E-01  0.10578199557E-01  0.32444715149E+01  0.32451521111E+01  0.51109989000E-03 0. -1.
</event>
<event>
 6   3  0.2312675E+03  0.9118800E+02  0.7818608E-02  0.1180000E+00
       11   -1    0    0    0    0  0.00000000000E+00  0.00000000000E+00  0.54999999763E+01  0.55000000000E+01  0.51109989000E-03 0.  1.
     -623   -1    0    0    0    0  0.00000000000E+00  0.00000000000E+00  0.93234578044E-11  0.17124000000E+03  0.17124000000E+03 0. -1.
       11    1    1    2    0    0  0.35926347283E-01  0.44598771406E-01  0.73918178376E+00  0.74139714291E+00  0.51109989000E-03 0.  1.
     -623    1    1    2    0    0  0.16382668697E-01 -0.42811449911E-02  0.28898565540E-02  0.17124000086E+03  0.17124000000E+03 0. -1.
     -611    1    1    2    0    0 -0.28009706406E-01  0.13862974553E-02  0.25026102632E+01  0.25027674395E+01  0.51109989000E-03 0. -1.
      611    1    1    2    0    0 -0.24299309574E-01 -0.41703923870E-01  0.22553180727E+01  0.22558345560E+01  0.51109989000E-03 0.  1.
</event>
<event>
 6   3  0.2312675E+03  0.9118800E+02  0.7818608E-02  0.1180000E+00
       11   -1    0    0    0    0  0.00000000000E+00  0.00000000000E+00  0.54999999763E+01  0.55000000000E+01  0.51109989000E-03 0. -1.
     -623   -1    0    0    0    0  0.00000000000E+00  0.00000000000E+00  0.93234578044E-11  0.17124000000E+03  0.17124000000E+03 0.  1.
       11    1    1    2    0    0  0.19454154270E-01 -0.32263663829E-02  0.77922722155E+00  0.77947687431E+00  0.51109989000E-03 0. -1.
     -623    1    1    2    0    0 -0.69218625169E-01  0.18690342988E-02  0.52639381273E-03  0.17124001400E+03  0.17124000000E+03 0.  1.
     -611    1    1    2    0    0  0.33207356573E-01  0.63603206117E-03  0.31893250649E+01  0.31894980426E+01  0.51109989000E-03 0.  1.
      611    1    1    2    0    0  0.16557114318E-01  0.72130002169E-03  0.15309212950E+01  0.15310110813E+01  0.51109989000E-03 0. -1.
</event>
<event>
 6   3  0.2312675E+03  0.9118800E+02  0.7818608E-02  0.1180000E+00
       11   -1    0    0    0    0  0.00000000000E+00  0.00000000000E+00  0.54999999763E+01  0.55000000000E+01  0.51109989000E-03 0.  1.
     -623   -1    0    0    0    0  0.00000000000E+00  0.00000000000E+00  0.93234578044E-11  0.17124000000E+03  0.17124000000E+03 0. -1.
       11    1    1    2    0    0  0.65214882524E-01  0.12225664025E-01  0.98024569169E+00  0.98248884221E+00  0.51109989000E-03 0.  1.
     -623    1    1    2    0    0  0.16082792573E-02  0.51903380723E-02  0.27727388604E-02  0.17124000011E+03  0.17124000000E+03 0. -1.
     -611    1    1    2    0    0 -0.10235006717E-01 -0.40243405747E-02  0.70667098981E+00  0.70675674722E+00  0.51109989000E-03 0.  1.
      611    1    1    2    0    0 -0.56588155061E-01 -0.13391661522E-01  0.38103105557E+01  0.38107543017E+01  0.51109989000E-03 0.  1.
</event>
<event>
 6   3  0.2312675E+03  0.9118800E+02  0.7818608E-02  0.1180000E+00
       11   -1    0    0    0    0  0.00000000000E+00  0.00000000000E+00  0.54999999763E+01  0.55000000000E+01  0.51109989000E-03 0. -1.
     -623   -1    0    0    0    0  0.00000000000E+00  0.00000000000E+00  0.93234578044E-11  0.17124000000E+03  0.17124000000E+03 0.  1.
       11    1    1    2    0    0  0.15654491800E-02 -0.24043047726E-02  0.11820550148E+00  0.11824141878E+00  0.51109989000E-03 0. -1.
     -623    1    1    2    0    0 -0.84983975838E-01  0.33000555355E-01  0.79430965743E-03  0.17124002427E+03  0.17124000000E+03 0.  1.
     -611    1    1    2    0    0  0.10588446184E-01 -0.33585408232E-02  0.64522253074E+00  0.64531834809E+00  0.51109989000E-03 0. -1.
      611    1    1    2    0    0  0.72830080365E-01 -0.27237709717E-01  0.47357776273E+01  0.47364159562E+01  0.51109989000E-03 0. -1.
</event>
<event>
 6   3  0.2312675E+03  0.9118800E+02  0.7818608E-02  0.1180000E+00
       11   -1    0    0    0    0  0.00000000000E+00  0.00000000000E+00  0.54999999763E+01  0.55000000000E+01  0.51109989000E-03 0. -1.
     -623   -1    0    0    0    0  0.00000000000E+00  0.00000000000E+00  0.93234578044E-11  0.17124000000E+03  0.17124000000E+03 0. -1.
       11    1    1    2    0    0 -0.10699646379E-02 -0.28618165431E-01  0.53067733462E+00  0.53144975201E+00  0.51109989000E-03 0. -1.
     -623    1    1    2    0    0  0.17394889605E-01  0.54079637012E-02  0.30913214248E-02  0.17124000100E+03  0.17124000000E+03 0. -1.
     -611    1    1    2    0    0  0.41723601018E-01  0.36646794331E-01  0.40508523208E+01  0.40512329768E+01  0.51109989000E-03 0. -1.
      611    1    1    2    0    0 -0.58048525985E-01 -0.13436592601E-01  0.91537899951E+00  0.91731627444E+00  0.51109989000E-03 0.  1.
</event>
<event>
 6   3  0.2312675E+03  0.9118800E+02  0.7818608E-02  0.1180000E+00
       11   -1    0    0    0    0  0.00000000000E+00  0.00000000000E+00  0.54999999763E+01  0.55000000000E+01  0.51109989000E-03 0. -1.
     -623   -1    0    0    0    0  0.00000000000E+00  0.00000000000E+00  0.93234578044E-11  0.17124000000E+03  0.17124000000E+03 0.  1.
       11    1    1    2    0    0  0.67221064741E-03 -0.10273226505E-01  0.10633516221E-01  0.14809589471E-01  0.51109989000E-03 0. -1.
     -623    1    1    2    0    0 -0.27865224356E-01  0.14294894405E-01  0.54923296829E-02  0.17124000295E+03  0.17124000000E+03 0.  1.
     -611    1    1    2    0    0 -0.46038058417E-01  0.40351937886E-02  0.22409352586E+01  0.22414118051E+01  0.51109989000E-03 0. -1.
      611    1    1    2    0    0  0.73231072126E-01 -0.80568616894E-02  0.32429388718E+01  0.32437756535E+01  0.51109989000E-03 0.  1.
</event>
<event>
 6   3  0.2312675E+03  0.9118800E+02  0.7818608E-02  0.1180000E+00
       11   -1    0    0    0    0  0.00000000000E+00  0.00000000000E+00  0.54999999763E+01  0.55000000000E+01  0.51109989000E-03 0.  1.
     -623   -1    0    0    0    0  0.00000000000E+00  0.00000000000E+00  0.93234578044E-11  0.17124000000E+03  0.17124000000E+03 0.  1.
       11    1    1    2    0    0 -0.18182358607E-01  0.30511919688E-01  0.13610738518E+00  0.14066647408E+00  0.51109989000E-03 0.  1.
     -623    1    1    2    0    0 -0.11549584169E-01  0.28150000478E-01  0.61887648925E-02  0.17124000282E+03  0.17124000000E+03 0.  1.
     -611    1    1    2    0    0  0.61885860464E-01 -0.51344936775E-01  0.47865983931E+01  0.47872738172E+01  0.51109989000E-03 0.  1.
      611    1    1    2    0    0 -0.32153917687E-01 -0.73169833904E-02  0.57110543307E+00  0.57205689365E+00  0.51109989000E-03 0. -1.
</event>
<event>
 6   3  0.2312675E+03  0.9118800E+02  0.7818608E-02  0.1180000E+00
       11   -1    0    0    0    0  0.00000000000E+00  0.00000000000E+00  0.54999999763E+01  0.55000000000E+01  0.51109989000E-03 0.  1.
     -623   -1    0    0    0    0  0.00000000000E+00  0.00000000000E+00  0.93234578044E-11  0.17124000000E+03  0.17124000000E+03 0.  1.
       11    1    1    2    0    0 -0.17091388593E-02  0.25680571446E-02  0.19292756828E+00  0.19295290590E+00  0.51109989000E-03 0.  1.
     -623    1    1    2    0    0 -0.52592590478E-02  0.44877697129E-02  0.48761900138E-02  0.17124000021E+03  0.17124000000E+03 0.  1.
     -611    1    1    2    0    0  0.39664495442E-01 -0.10160505009E+00  0.37760764140E+01  0.37776514138E+01  0.51109989000E-03 0.  1.
      611    1    1    2    0    0 -0.32696097535E-01  0.94549223236E-01  0.15261198040E+01  0.15293954714E+01  0.51109989000E-03 0. -1.
</event>
<event>
 6   3  0.2312675E+03  0.9118800E+02  0.7818608E-02  0.1180000E+00
       11   -1    0    0    0    0  0.00000000000E+00  0.00000000000E+00  0.54999999763E+01  0.55000000000E+01  0.51109989000E-03 0.  1.
     -623   -1    0    0    0    0  0.00000000000E+00  0.00000000000E+00  0.93234578044E-11  0.17124000000E+03  0.17124000000E+03 0. -1.
       11    1    1    2    0    0  0.56395780051E-01 -0.40296114936E-01  0.61476620713E+00  0.61866146763E+00  0.51109989000E-03 0.  1.
     -623    1    1    2    0    0  0.29238886407E-02 -0.88872687033E-02  0.45053130979E-02  0.17124000031E+03  0.17124000000E+03 0. -1.
     -611    1    1    2    0    0 -0.24038937202E-01  0.20250600196E-01  0.21056112049E+01  0.21058458549E+01  0.51109989000E-03 0. -1.
      611    1    1    2    0    0 -0.35280731497E-01  0.28932783449E-01  0.27751172517E+01  0.27754923631E+01  0.51109989000E-03 0.  1.
</event>
<event>
 6   3  0.2312675E+03  0.9118800E+02  0.7818608E-02  0.1180000E+00
       11   -1    0    0    0    0  0.00000000000E+00  0.00000000000E+00  0.54999999763E+01  0.55000000000E+01  0.51109989000E-03 0. -1.
     -623   -1    0    0    0    0  0.00000000000E+00  0.00000000000E+00  0.93234578044E-11  0.17124000000E+03  0.17124000000E+03 0. -1.
       11    1    1    2    0    0 -0.39665191086E-02 -0.93826775065E-02  0.94412099420E+00  0.94417608571E+00  0.51109989000E-03 0. -1.
     -623    1    1    2    0    0 -0.64648081001E-03 -0.45323395850E-03  0.62299077028E-03  0.17124000000E+03  0.17124000000E+03 0. -1.
     -611    1    1    2    0    0  0.36656559093E-01  0.13242317076E-01  0.21677265354E+01  0.21680769488E+01  0.51109989000E-03 0.  1.
      611    1    1    2    0    0 -0.32043559174E-01 -0.34064056106E-02  0.23875294558E+01  0.23877469625E+01  0.51109989000E-03 0. -1.
</event>
<event>
 6   3  0.2312675E+03  0.9118800E+02  0.7818608E-02  0.1180000E+00
       11   -1    0    0    0    0  0.00000000000E+00  0.00000000000E+00  0.54999999763E+01  0.55000000000E+01  0.51109989000E-03 0.  1.
     -623   -1    0    0    0    0  0.00000000000E+00  0.00000000000E+00  0.93234578044E-11  0.17124000000E+03  0.17124000000E+03 0.  1.
       11    1    1    2    0    0  0.49312409178E-01 -0.10134552061E-01  0.51598740970E+00  0.51843774075E+00  0.51109989000E-03 0.  1.
     -623    1    1    2    0    0  0.27239155646E-02  0.46848839903E-02  0.27256773546E-02  0.17124000011E+03  0.17124000000E+03 0.  1.
     -611    1    1    2    0    0 -0.64520789687E-02  0.45937525341E-03  0.57356371701E+00  0.57360041757E+00  0.51109989000E-03 0.  1.
      611    1    1    2    0    0 -0.45584245771E-01  0.49902928170E-02  0.44077231719E+01  0.44079617339E+01  0.51109989000E-03 0.  1.
</event>
<event>
 6   3  0.2312675E+03  0.9118800E+02  0.7818608E-02  0.1180000E+00
       11   -1    0    0    0    0  0.00000000000E+00  0.00000000000E+00  0.54999999763E+01  0.55000000000E+01  0.51109989000E-03 0.  1.
     -623   -1    0    0    0    0  0.00000000000E+00  0.00000000000E+00  0.93234578044E-11  0.17124000000E+03  0.17124000000E+03 0.  1.
       11    1    1    2    0    0 -0.11618843314E-02 -0.38126113004E-02  0.33022368095E-02  0.52011509467E-02  0.51109989000E-03 0. -1.
     -623    1    1    2    0    0 -0.93060064116E-03 -0.12620577393E-02  0.31930376087E-02  0.17124000004E+03  0.17124000000E+03 0.  1.
     -611    1    1    2    0    0 -0.44631913331E-01  0.29173319808E-01  0.40251133909E+01  0.40254665769E+01  0.51109989000E-03 0.  1.
      611    1    1    2    0    0  0.46724398303E-01 -0.24098650768E-01  0.14683913110E+01  0.14693322353E+01  0.51109989000E-03 0. -1.
</event>
<event>
 6   3  0.2312675E+03  0.9118800E+02  0.7818608E-02  0.1180000E+00
       11   -1    0    0    0    0  0.00000000000E+00  0.00000000000E+00  0.54999999763E+01  0.55000000000E+01  0.51109989000E-03 0. -1.
     -623   -1    0    0    0    0  0.00000000000E+00  0.00000000000E+00  0.93234578044E-11  0.17124000000E+03  0.17124000000E+03 0.  1.
       11    1    1    2    0    0  0.55898436284E-01 -0.23438943001E-01  0.95452623195E+00  0.95644895731E+00  0.51109989000E-03 0. -1.
     -623    1    1    2    0    0 -0.39382409850E-03  0.76081805132E-02  0.22918418831E-02  0.17124000018E+03  0.17124000000E+03 0.  1.
     -611    1    1    2    0    0 -0.35533893562E-01  0.10991607016E-01  0.27673765982E+01  0.27676265952E+01  0.51109989000E-03 0. -1.
      611    1    1    2    0    0 -0.19970718623E-01  0.48391554717E-02  0.17758053042E+01  0.17759242627E+01  0.51109989000E-03 0.  1.
</event>
<event>
 6   3  0.2312675E+03  0.9118800E+02  0.7818608E-02  0.1180000E+00
       11   -1    0    0    0    0  0.00000000000E+00  0.00000000000E+00  0.54999999763E+01  0.55000000000E+01  0.51109989000E-03 0.  1.
     -623   -1    0    0    0    0  0.00000000000E+00  0.00000000000E+00  0.93234578044E-11  0.17124000000E+03  0.17124000000E+03 0.  1.
       11    1    1    2    0    0  0.21365949281E+00 -0.75446365276E-02  0.73034709470E+00  0.76099569011E+00  0.51109989000E-03 0.  1.
     -623    1    1    2    0    0 -0.72591595753E-01 -0.44887382803E-02  0.32782817169E-01  0.17124001858E+03  0.17124000000E+03 0.  1.
     -611    1    1    2    0    0 -0.62002786850E-01  0.57891042042E-02  0.20696494380E+01  0.20705861288E+01  0.51109989000E-03 0. -1.
      611    1    1    2    0    0 -0.79065110348E-01  0.62442706160E-02  0.26672206312E+01  0.26683996026E+01  0.51109989000E-03 0.  1.
</event>
<event>
 6   3  0.2312675E+03  0.9118800E+02  0.7818608E-02  0.1180000E+00
       11   -1    0    0    0    0  0.00000000000E+00  0.00000000000E+00  0.54999999763E+01  0.55000000000E+01  0.51109989000E-03 0.  1.
     -623   -1    0    0    0    0  0.00000000000E+00  0.00000000000E+00  0.93234578044E-11  0.17124000000E+03  0.17124000000E+03 0.  1.
       11    1    1    2    0    0 -0.84642304055E-01  0.27864712408E-01  0.41274206077E+00  0.42225233188E+00  0.51109989000E-03 0.  1.
     -623    1    1    2    0    0  0.17284836064E-01  0.97923335327E-02  0.10101156789E-01  0.17124000145E+03  0.17124000000E+03 0.  1.
     -611    1    1    2    0    0  0.41234253996E-01 -0.20088629708E-01  0.30560969963E+01  0.30564412196E+01  0.51109989000E-03 0.  1.
      611    1    1    2    0    0  0.26123213998E-01 -0.17568416234E-01  0.20210597626E+01  0.20213049984E+01  0.51109989000E-03 0. -1.
</event>
<event>
 6   3  0.2312675E+03  0.9118800E+02  0.7818608E-02  0.1180000E+00
       11   -1    0    0    0    0  0.00000000000E+00  0.00000000000E+00  0.54999999763E+01  0.55000000000E+01  0.51109989000E-03 0. -1.
     -623   -1    0    0    0    0  0.00000000000E+00  0.00000000000E+00  0.93234578044E-11  0.17124000000E+03  0.17124000000E+03 0. -1.
       11    1    1    2    0    0 -0.22978187711E-03  0.10517566096E-01  0.11851107063E+00  0.11897817902E+00  0.51109989000E-03 0. -1.
     -623    1    1    2    0    0  0.20755447834E-02 -0.47668668332E-02  0.12030519926E-02  0.17124000008E+03  0.17124000000E+03 0. -1.
     -611    1    1    2    0    0 -0.41042283227E-01 -0.21914192764E-01  0.29123103511E+01  0.29126820189E+01  0.51109989000E-03 0.  1.
      611    1    1    2    0    0  0.39196520320E-01  0.16163493501E-01  0.24679755027E+01  0.24683397191E+01  0.51109989000E-03 0. -1.
</event>
<event>
 6   3  0.2312675E+03  0.9118800E+02  0.7818608E-02  0.1180000E+00
       11   -1    0    0    0    0  0.00000000000E+00  0.00000000000E+00  0.54999999763E+01  0.55000000000E+01  0.51109989000E-03 0.  1.
     -623   -1    0    0    0    0  0.00000000000E+00  0.00000000000E+00  0.93234578044E-11  0.17124000000E+03  0.17124000000E+03 0.  1.
       11    1    1    2    0    0 -0.38656585400E-03  0.28426616837E-02 -0.62547182403E-02  0.69002088353E-02  0.51109989000E-03 0.  1.
     -623    1    1    2    0    0  0.21790976563E-04 -0.85807529081E-02  0.13900964142E-01  0.17124000078E+03  0.17124000000E+03 0.  1.
     -611    1    1    2    0    0  0.39478674412E-01  0.20838230713E-01  0.20267395711E+01  0.20272312024E+01  0.51109989000E-03 0. -1.
      611    1    1    2    0    0 -0.39113899534E-01 -0.15100139489E-01  0.34656141592E+01  0.34658678095E+01  0.51109989000E-03 0.  1.
</event>
<event>
 6   3  0.2312675E+03  0.9118800E+02  0.7818608E-02  0.1180000E+00
       11   -1    0    0    0    0  0.00000000000E+00  0.00000000000E+00  0.54999999763E+01  0.55000000000E+01  0.51109989000E-03 0.  1.
     -623   -1    0    0    0    0  0.00000000000E+00  0.00000000000E+00  0.93234578044E-11  0.17124000000E+03  0.17124000000E+03 0. -1.
       11    1    1    2    0    0  0.96136295771E-01 -0.64591199611E-01  0.10043130301E+01  0.10109694031E+01  0.51109989000E-03 0.  1.
     -623    1    1    2    0    0 -0.18894110394E-01  0.15922575858E-01  0.75873882850E-02  0.17124000195E+03  0.17124000000E+03 0. -1.
     -611    1    1    2    0    0 -0.17251160674E-01  0.11080092532E-01  0.10490758141E+01  0.10492762724E+01  0.51109989000E-03 0.  1.
      611    1    1    2    0    0 -0.59991024715E-01  0.37588531230E-01  0.34390237445E+01  0.34397523744E+01  0.51109989000E-03 0. -1.
</event>
<event>
 6   3  0.2312675E+03  0.9118800E+02  0.7818608E-02  0.1180000E+00
       11   -1    0    0    0    0  0.00000000000E+00  0.00000000000E+00  0.54999999763E+01  0.55000000000E+01  0.51109989000E-03 0.  1.
     -623   -1    0    0    0    0  0.00000000000E+00  0.00000000000E+00  0.93234578044E-11  0.17124000000E+03  0.17124000000E+03 0. -1.
       11    1    1    2    0    0 -0.90530476714E-01  0.35202578430E-01  0.83288832502E+00  0.83853336959E+00  0.51109989000E-03 0.  1.
     -623    1    1    2    0    0  0.43929576473E-02 -0.28677843657E-01  0.64486583147E-02  0.17124000258E+03  0.17124000000E+03 0. -1.
     -611    1    1    2    0    0  0.61190643676E-01 -0.48924133285E-02  0.32639386109E+01  0.32645158519E+01  0.51109989000E-03 0.  1.
      611    1    1    2    0    0  0.24946875396E-01 -0.16323214447E-02  0.13967243823E+01  0.13969481996E+01  0.51109989000E-03 0. -1.
</event>
<event>
 6   3  0.2312675E+03  0.9118800E+02  0.7818608E-02  0.1180000E+00
       11   -1    0    0    0    0  0.00000000000E+00  0.00000000000E+00  0.54999999763E+01  0.55000000000E+01  0.51109989000E-03 0.  1.
     -623   -1    0    0    0    0  0.00000000000E+00  0.00000000000E+00  0.93234578044E-11  0.17124000000E+03  0.17124000000E+03 0.  1.
       11    1    1    2    0    0  0.91953759958E-03 -0.12640569137E-01  0.85810822891E+00  0.85820197115E+00  0.51109989000E-03 0.  1.
     -623    1    1    2    0    0  0.24416566149E-03  0.67597225622E-02  0.43216539012E-03  0.17124000013E+03  0.17124000000E+03 0.  1.
     -611    1    1    2    0    0 -0.27554328668E-01  0.99686856170E-02  0.24969046366E+01  0.24970766190E+01  0.51109989000E-03 0.  1.
      611    1    1    2    0    0  0.26390625407E-01 -0.40878390423E-02  0.21445549456E+01  0.21447212759E+01  0.51109989000E-03 0. -1.
</event>
<event>
 6   3  0.2312675E+03  0.9118800E+02  0.7818608E-02  0.1180000E+00
       11   -1    0    0    0    0  0.00000000000E+00  0.00000000000E+00  0.54999999763E+01  0.55000000000E+01  0.51109989000E-03 0. -1.
     -623   -1    0    0    0    0  0.00000000000E+00  0.00000000000E+00  0.93234578044E-11  0.17124000000E+03  0.17124000000E+03 0.  1.
       11    1    1    2    0    0  0.67140120766E-02  0.38789043445E-03  0.64111425566E-02  0.93055031639E-02  0.51109989000E-03 0. -1.
     -623    1    1    2    0    0 -0.19849367300E-01  0.11927990640E-01  0.59669294609E-02  0.17124000167E+03  0.17124000000E+03 0.  1.
     -611    1    1    2    0    0 -0.37812775020E-01 -0.81146484734E-01  0.19761609770E+01  0.19781878137E+01  0.51109989000E-03 0.  1.
      611    1    1    2    0    0  0.50948130243E-01  0.68830603660E-01  0.35114609272E+01  0.35125050133E+01  0.51109989000E-03 0. -1.
</event>
<event>
 6   3  0.2312675E+03  0.9118800E+02  0.7818608E-02  0.1180000E+00
       11   -1    0    0    0    0  0.00000000000E+00  0.00000000000E+00  0.54999999763E+01  0.55000000000E+01  0.51109989000E-03 0. -1.
     -623   -1    0    0    0    0  0.00000000000E+00  0.00000000000E+00  0.93234578044E-11  0.17124000000E+03  0.17124000000E+03 0.  1.
       11    1    1    2    0    0 -0.41445788202E-01  0.31206982785E-01  0.51767641824E+00  0.52026989569E+00  0.51109989000E-03 0. -1.
     -623    1    1    2    0    0 -0.17444338713E-01 -0.17235414503E-01  0.29638287832E-02  0.17124000178E+03  0.17124000000E+03 0.  1.
     -611    1    1    2    0    0  0.52058186017E-01 -0.12162370430E-01  0.44517854811E+01  0.44521064912E+01  0.51109989000E-03 0. -1.
      611    1    1    2    0    0  0.68319409045E-02 -0.18091978528E-02  0.52757424874E+00  0.52762183216E+00  0.51109989000E-03 0.  1.
</event>
<event>
 6   3  0.2312675E+03  0.9118800E+02  0.7818608E-02  0.1180000E+00
       11   -1    0    0    0    0  0.00000000000E+00  0.00000000000E+00  0.54999999763E+01  0.55000000000E+01  0.51109989000E-03 0.  1.
     -623   -1    0    0    0    0  0.00000000000E+00  0.00000000000E+00  0.93234578044E-11  0.17124000000E+03  0.17124000000E+03 0.  1.
       11    1    1    2    0    0  0.65268581771E-02 -0.16420627216E-01  0.19298047940E-01  0.26170837840E-01  0.51109989000E-03 0.  1.
     -623    1    1    2    0    0 -0.64553621119E-02  0.17146141741E-01  0.76256946341E-02  0.17124000115E+03  0.17124000000E+03 0.  1.
     -611    1    1    2    0    0 -0.41563832351E-01 -0.17504310625E-01  0.23717457257E+01  0.23721745302E+01  0.51109989000E-03 0.  1.
      611    1    1    2    0    0  0.41492336286E-01  0.16778796101E-01  0.31013305080E+01  0.31016534821E+01  0.51109989000E-03 0. -1.
</event>
<event>
 6   3  0.2312675E+03  0.9118800E+02  0.7818608E-02  0.1180000E+00
       11   -1    0    0    0    0  0.00000000000E+00  0.00000000000E+00  0.54999999763E+01  0.55000000000E+01  0.51109989000E-03 0.  1.
     -623   -1    0    0    0    0  0.00000000000E+00  0.00000000000E+00  0.93234578044E-11  0.17124000000E+03  0.17124000000E+03 0.  1.
       11    1    1    2    0    0 -0.30300837801E-01  0.99016223785E-02  0.93306029285E+00  0.93360481694E+00  0.51109989000E-03 0.  1.
     -623    1    1    2    0    0 -0.14553632390E-02 -0.52396201798E-02  0.26136579261E-02  0.17124000011E+03  0.17124000000E+03 0.  1.
     -611    1    1    2    0    0  0.78007234955E-01  0.16040997146E-02  0.36893160392E+01  0.36901410272E+01  0.51109989000E-03 0. -1.
      611    1    1    2    0    0 -0.46251033915E-01 -0.62661019132E-02  0.87500998631E+00  0.87625404965E+00  0.51109989000E-03 0.  1.
</event>
<event>
 6   3  0.2312675E+03  0.9118800E+02  0.7818608E-02  0.1180000E+00
       11   -1    0    0    0    0  0.00000000000E+00  0.00000000000E+00  0.54999999763E+01  0.55000000000E+01  0.51109989000E-03 0.  1.
     -623   -1    0    0    0    0  0.00000000000E+00  0.00000000000E+00  0.93234578044E-11  0.17124000000E+03  0.17124000000E+03 0.  1.
       11    1    1    2    0    0 -0.12037587945E-01 -0.93953187610E-02  0.12559992646E+00  0.12652580088E+00  0.51109989000E-03 0.  1.
     -623    1    1    2    0    0 -0.61067496526E-01 -0.41477216379E-02  0.14617942944E-02  0.17124001095E+03  0.17124000000E+03 0.  1.
     -611    1    1    2    0    0  0.59201950650E-01  0.13662637160E-01  0.45789353124E+01  0.45793384233E+01  0.51109989000E-03 0.  1.
      611    1    1    2    0    0  0.13903133821E-01 -0.11959676129E-03  0.79400294311E+00  0.79412483044E+00  0.51109989000E-03 0. -1.
</event>
<event>
 6   3  0.2338991E+03  0.9118800E+02  0.7818608E-02  0.1180000E+00
       11   -1    0    0    0    0  0.00000000000E+00  0.00000000000E+00  0.54999999763E+01  0.55000000000E+01  0.51109989000E-03 0. -1.
     -623   -1    0    0    0    0  0.00000000000E+00  0.00000000000E+00  0.93234578044E-11  0.17124000000E+03  0.17124000000E+03 0. -1.
       11    1    1    2    0    0  0.25229379940E-02 -0.47457520860E-02  0.98994728663E+00  0.98996200882E+00  0.51109989000E-03 0. -1.
     -623    1    1    2    0    0  0.22954933997E-02  0.50341937611E-02  0.34622991160E-03  0.17124000009E+03  0.17124000000E+03 0. -1.
     -611    1    1    2    0    0 -0.27761608593E-01  0.94734386811E-02  0.27062465246E+01  0.27064055435E+01  0.51109989000E-03 0. -1.
      611    1    1    2    0    0  0.22943177199E-01 -0.97618803568E-02  0.18034599356E+01  0.18036323584E+01  0.51109989000E-03 0.  1.
</event>
<event>
 6   3  0.2312675E+03  0.9118800E+02  0.7818608E-02  0.1180000E+00
       11   -1    0    0    0    0  0.00000000000E+00  0.00000000000E+00  0.54999999763E+01  0.55000000000E+01  0.51109989000E-03 0.  1.
     -623   -1    0    0    0    0  0.00000000000E+00  0.00000000000E+00  0.93234578044E-11  0.17124000000E+03  0.17124000000E+03 0.  1.
       11    1    1    2    0    0  0.15592364795E-02 -0.21933864146E-02  0.36523778139E-02  0.45654407406E-02  0.51109989000E-03 0.  1.
     -623    1    1    2    0    0 -0.72159861932E-02 -0.29755593470E-02  0.13804777356E-02  0.17124000018E+03  0.17124000000E+03 0.  1.
     -611    1    1    2    0    0  0.33679190583E-01  0.20659091207E-01  0.31951480578E+01  0.31953923794E+01  0.51109989000E-03 0. -1.
      611    1    1    2    0    0 -0.28022440869E-01 -0.15490145446E-01  0.22998190629E+01  0.23000419964E+01  0.51109989000E-03 0.  1.
</event>
<event>
 6   3  0.2312675E+03  0.9118800E+02  0.7818608E-02  0.1180000E+00
       11   -1    0    0    0    0  0.00000000000E+00  0.00000000000E+00  0.54999999763E+01  0.55000000000E+01  0.51109989000E-03 0.  1.
     -623   -1    0    0    0    0  0.00000000000E+00  0.00000000000E+00  0.93234578044E-11  0.17124000000E+03  0.17124000000E+03 0. -1.
       11    1    1    2    0    0 -0.21335406825E-01  0.37401289307E-02  0.62711334654E+00  0.62748752878E+00  0.51109989000E-03 0.  1.
     -623    1    1    2    0    0 -0.34735384269E-01 -0.13228906942E-01  0.71028361324E-03  0.17124000404E+03  0.17124000000E+03 0. -1.
     -611    1    1    2    0    0  0.44611765512E-01  0.72935662985E-02  0.38850895482E+01  0.38853525535E+01  0.51109989000E-03 0.  1.
      611    1    1    2    0    0  0.11459025614E-01  0.21952117177E-02  0.98708680064E+00  0.98715588508E+00  0.51109989000E-03 0.  1.
</event>
<event>
 6   3  0.2312675E+03  0.9118800E+02  0.7818608E-02  0.1180000E+00
       11   -1    0    0    0    0  0.00000000000E+00  0.00000000000E+00  0.54999999763E+01  0.55000000000E+01  0.51109989000E-03 0. -1.
     -623   -1    0    0    0    0  0.00000000000E+00  0.00000000000E+00  0.93234578044E-11  0.17124000000E+03  0.17124000000E+03 0.  1.
       11    1    1    2    0    0  0.13974495043E-01 -0.99770726443E-01  0.10446957218E+01  0.10495422320E+01  0.51109989000E-03 0. -1.
     -623    1    1    2    0    0 -0.82319519034E-02 -0.17969989704E-01  0.68134691113E-02  0.17124000128E+03  0.17124000000E+03 0.  1.
     -611    1    1    2    0    0  0.27131068192E-01  0.49553820367E-01  0.18332717573E+01  0.18341421083E+01  0.51109989000E-03 0.  1.
      611    1    1    2    0    0 -0.32873611332E-01  0.68186895780E-01  0.26152190281E+01  0.26163143835E+01  0.51109989000E-03 0. -1.
</event>
<event>
 6   3  0.2312675E+03  0.9118800E+02  0.7818608E-02  0.1180000E+00
       11   -1    0    0    0    0  0.00000000000E+00  0.00000000000E+00  0.54999999763E+01  0.55000000000E+01  0.51109989000E-03 0.  1.
     -623   -1    0    0    0    0  0.00000000000E+00  0.00000000000E+00  0.93234578044E-11  0.17124000000E+03  0.17124000000E+03 0.  1.
       11    1    1    2    0    0  0.16455865940E-01  0.20163598802E-01  0.38877337383E+00  0.38964389340E+00  0.51109989000E-03 0.  1.
     -623    1    1    2    0    0  0.56724748127E-01  0.45323714201E-01  0.19605645438E-02  0.17124001540E+03  0.17124000000E+03 0.  1.
     -611    1    1    2    0    0 -0.48048509930E-01 -0.61637817856E-01  0.34899669054E+01  0.34908418958E+01  0.51109989000E-03 0.  1.
      611    1    1    2    0    0 -0.25132104135E-01 -0.38494951466E-02  0.16192991324E+01  0.16194988060E+01  0.51109989000E-03 0. -1.
</event>
<event>
 6   3  0.2312675E+03  0.9118800E+02  0.7818608E-02  0.1180000E+00
       11   -1    0    0    0    0  0.00000000000E+00  0.00000000000E+00  0.54999999763E+01  0.55000000000E+01  0.51109989000E-03 0. -1.
     -623   -1    0    0    0    0  0.00000000000E+00  0.00000000000E+00  0.93234578044E-11  0.17124000000E+03  0.17124000000E+03 0. -1.
       11    1    1    2    0    0  0.10729789106E-01 -0.13112114224E-01  0.13391619820E-01  0.21602143833E-01  0.51109989000E-03 0. -1.
     -623    1    1    2    0    0  0.16815583869E-01  0.11976009922E-01  0.11482035370E-01  0.17124000163E+03  0.17124000000E+03 0. -1.
     -611    1    1    2    0    0 -0.77191513859E-01 -0.50909367260E-01  0.43446492150E+01  0.43456331364E+01  0.51109989000E-03 0. -1.
      611    1    1    2    0    0  0.49646140884E-01  0.52045471562E-01  0.11304771061E+01  0.11327630904E+01  0.51109989000E-03 0.  1.
</event>
<event>
 6   3  0.2312675E+03  0.9118800E+02  0.7818608E-02  0.1180000E+00
       11   -1    0    0    0    0  0.00000000000E+00  0.00000000000E+00  0.54999999763E+01  0.55000000000E+01  0.51109989000E-03 0. -1.
     -623   -1    0    0    0    0  0.00000000000E+00  0.00000000000E+00  0.93234578044E-11  0.17124000000E+03  0.17124000000E+03 0. -1.
       11    1    1    2    0    0  0.46103976753E-02  0.13003073252E-02  0.12630844943E+00  0.12640028555E+00  0.51109989000E-03 0. -1.
     -623    1    1    2    0    0 -0.84028544020E-03 -0.29215365537E-02  0.11527289721E-02  0.17124000003E+03  0.17124000000E+03 0. -1.
     -611    1    1    2    0    0  0.51337035624E-01  0.12317119839E-03  0.23889849695E+01  0.23895365560E+01  0.51109989000E-03 0.  1.
      611    1    1    2    0    0 -0.55107147859E-01  0.14980580301E-02  0.29835538284E+01  0.29840631277E+01  0.51109989000E-03 0. -1.
</event>
<event>
 6   3  0.2312675E+03  0.9118800E+02  0.7818608E-02  0.1180000E+00
       11   -1    0    0    0    0  0.00000000000E+00  0.00000000000E+00  0.54999999763E+01  0.55000000000E+01  0.51109989000E-03 0. -1.
     -623   -1    0    0    0    0  0.00000000000E+00  0.00000000000E+00  0.93234578044E-11  0.17124000000E+03  0.17124000000E+03 0.  1.
       11    1    1    2    0    0 -0.99247217662E-02  0.19696282563E-01  0.28032818368E+00  0.28119494206E+00  0.51109989000E-03 0. -1.
     -623    1    1    2    0    0 -0.68603003897E-01 -0.61692696840E-01  0.16519161189E-02  0.17124002486E+03  0.17124000000E+03 0.  1.
     -611    1    1    2    0    0  0.23961955863E-01  0.12091577608E-01  0.15366600509E+01  0.15368945165E+01  0.51109989000E-03 0. -1.
      611    1    1    2    0    0  0.54565769838E-01  0.29904836689E-01  0.36813598280E+01  0.36818856809E+01  0.51109989000E-03 0.  1.
</event>
<event>
 6   3  0.2312675E+03  0.9118800E+02  0.7818608E-02  0.1180000E+00
       11   -1    0    0    0    0  0.00000000000E+00  0.00000000000E+00  0.54999999763E+01  0.55000000000E+01  0.51109989000E-03 0.  1.
     -623   -1    0    0    0    0  0.00000000000E+00  0.00000000000E+00  0.93234578044E-11  0.17124000000E+03  0.17124000000E+03 0. -1.
       11    1    1    2    0    0  0.15013929725E-02 -0.22265827814E-01  0.36038847784E-01  0.42391992661E-01  0.51109989000E-03 0.  1.
     -623    1    1    2    0    0  0.84700792558E-01 -0.71619431355E-02  0.71367684856E-02  0.17124002125E+03  0.17124000000E+03 0. -1.
     -611    1    1    2    0    0 -0.83130205274E-02  0.31208618643E-02  0.61884995623E+00  0.61891386771E+00  0.51109989000E-03 0. -1.
      611    1    1    2    0    0 -0.77889165002E-01  0.26306909086E-01  0.48379744037E+01  0.48386728933E+01  0.51109989000E-03 0.  1.
</event>
<event>
 6   3  0.2312675E+03  0.9118800E+02  0.7818608E-02  0.1180000E+00
       11   -1    0    0    0    0  0.00000000000E+00  0.00000000000E+00  0.54999999763E+01  0.55000000000E+01  0.51109989000E-03 0. -1.
     -623   -1    0    0    0    0  0.00000000000E+00  0.00000000000E+00  0.93234578044E-11  0.17124000000E+03  0.17124000000E+03 0. -1.
       11    1    1    2    0    0 -0.24788781048E-01  0.50344906432E-02  0.29315017760E+00  0.29423989806E+00  0.51109989000E-03 0. -1.
     -623    1    1    2    0    0 -0.11453650462E-01  0.37147913078E-01  0.18631483289E-02  0.17124000442E+03  0.17124000000E+03 0. -1.
     -611    1    1    2    0    0  0.54524557268E-01 -0.36567474308E-01  0.45951841363E+01  0.45956531217E+01  0.51109989000E-03 0. -1.
      611    1    1    2    0    0 -0.18282125758E-01 -0.56149294135E-02  0.60980251407E+00  0.61010255773E+00  0.51109989000E-03 0.  1.
</event>
<event>
 6   3  0.2312675E+03  0.9118800E+02  0.7818608E-02  0.1180000E+00
       11   -1    0    0    0    0  0.00000000000E+00  0.00000000000E+00  0.54999999763E+01  0.55000000000E+01  0.51109989000E-03 0. -1.
     -623   -1    0    0    0    0  0.00000000000E+00  0.00000000000E+00  0.93234578044E-11  0.17124000000E+03  0.17124000000E+03 0.  1.
       11    1    1    2    0    0  0.48479171971E-01 -0.34418927450E-02  0.73211693800E+00  0.73372852532E+00  0.51109989000E-03 0. -1.
     -623    1    1    2    0    0  0.98585418026E-02  0.13180033511E-01  0.19797335337E-02  0.17124000080E+03  0.17124000000E+03 0.  1.
     -611    1    1    2    0    0 -0.38715366124E-01 -0.62961400896E-02  0.31008409545E+01  0.31010890680E+01  0.51109989000E-03 0. -1.
      611    1    1    2    0    0 -0.19622347616E-01 -0.34420006708E-02  0.16650623474E+01  0.16651816015E+01  0.51109989000E-03 0.  1.
</event>
<event>
 6   3  0.2312675E+03  0.9118800E+02  0.7818608E-02  0.1180000E+00
       11   -1    0    0    0    0  0.00000000000E+00  0.00000000000E+00  0.54999999763E+01  0.55000000000E+01  0.51109989000E-03 0. -1.
     -623   -1    0    0    0    0  0.00000000000E+00  0.00000000000E+00  0.93234578044E-11  0.17124000000E+03  0.17124000000E+03 0. -1.
       11    1    1    2    0    0 -0.23787488852E-01 -0.36485411747E-01  0.44272812117E+00  0.44486568804E+00  0.51109989000E-03 0. -1.
     -623    1    1    2    0    0 -0.26582771300E-02  0.32913818142E-02  0.38840570353E-02  0.17124000010E+03  0.17124000000E+03 0. -1.
     -611    1    1    2    0    0  0.74179101393E-01  0.31050701095E-02  0.24066648355E+01  0.24078098082E+01  0.51109989000E-03 0.  1.
      611    1    1    2    0    0 -0.47733335411E-01  0.30088959824E-01  0.26467229625E+01  0.26473244075E+01  0.51109989000E-03 0. -1.
</event>
<event>
 6   3  0.2312675E+03  0.9118800E+02  0.7818608E-02  0.1180000E+00
       11   -1    0    0    0    0  0.00000000000E+00  0.00000000000E+00  0.54999999763E+01  0.55000000000E+01  0.51109989000E-03 0. -1.
     -623   -1    0    0    0    0  0.00000000000E+00  0.00000000000E+00  0.93234578044E-11  0.17124000000E+03  0.17124000000E+03 0.  1.
       11    1    1    2    0    0 -0.98805222021E-03  0.98571803361E-03  0.35317306755E-03  0.15276915739E-02  0.51109989000E-03 0. -1.
     -623    1    1    2    0    0 -0.11560720003E-02 -0.60704800384E-02  0.25999851454E-02  0.17124000013E+03  0.17124000000E+03 0.  1.
     -611    1    1    2    0    0 -0.40176132002E-01  0.40939801733E-01  0.15950690572E+01  0.15961001684E+01  0.51109989000E-03 0.  1.
      611    1    1    2    0    0  0.42320256223E-01 -0.35855039728E-01  0.39019777609E+01  0.39023720089E+01  0.51109989000E-03 0. -1.
</event>
<event>
 6   3  0.2312675E+03  0.9118800E+02  0.7818608E-02  0.1180000E+00
       11   -1    0    0    0    0  0.00000000000E+00  0.00000000000E+00  0.54999999763E+01  0.55000000000E+01  0.51109989000E-03 0. -1.
     -623   -1    0    0    0    0  0.00000000000E+00  0.00000000000E+00  0.93234578044E-11  0.17124000000E+03  0.17124000000E+03 0.  1.
       11    1    1    2    0    0  0.46619465169E-01 -0.83327796388E-03  0.87699135052E+00  0.87823012872E+00  0.51109989000E-03 0. -1.
     -623    1    1    2    0    0 -0.20313255328E-01 -0.10942272108E-03  0.47933043418E-02  0.17124000127E+03  0.17124000000E+03 0.  1.
     -611    1    1    2    0    0  0.58152891603E-01 -0.51367887277E-01  0.25326805992E+01  0.25338689187E+01  0.51109989000E-03 0. -1.
      611    1    1    2    0    0 -0.84459101445E-01  0.52310587962E-01  0.20855347222E+01  0.20878996806E+01  0.51109989000E-03 0.  1.
</event>
<event>
 6   3  0.2312675E+03  0.9118800E+02  0.7818608E-02  0.1180000E+00
       11   -1    0    0    0    0  0.00000000000E+00  0.00000000000E+00  0.54999999763E+01  0.55000000000E+01  0.51109989000E-03 0. -1.
     -623   -1    0    0    0    0  0.00000000000E+00  0.00000000000E+00  0.93234578044E-11  0.17124000000E+03  0.17124000000E+03 0. -1.
       11    1    1    2    0    0  0.34492407912E-02 -0.27809002063E-02  0.36742008171E-01  0.37011715112E-01  0.51109989000E-03 0. -1.
     -623    1    1    2    0    0  0.22493641475E-04 -0.31263121389E-02  0.11323782178E-02  0.17124000003E+03  0.17124000000E+03 0. -1.
     -611    1    1    2    0    0 -0.41050627574E-01  0.29883707570E-01  0.23910478714E+01  0.23915869992E+01  0.51109989000E-03 0. -1.
      611    1    1    2    0    0  0.37578893142E-01 -0.23976495225E-01  0.30710777187E+01  0.30714012536E+01  0.51109989000E-03 0.  1.
</event>
<event>
 6   3  0.2312675E+03  0.9118800E+02  0.7818608E-02  0.1180000E+00
       11   -1    0    0    0    0  0.00000000000E+00  0.00000000000E+00  0.54999999763E+01  0.55000000000E+01  0.51109989000E-03 0.  1.
     -623   -1    0    0    0    0  0.00000000000E+00  0.00000000000E+00  0.93234578044E-11  0.17124000000E+03  0.17124000000E+03 0.  1.
       11    1    1    2    0    0 -0.11746181484E+00  0.10659215838E+00  0.10543197449E+01  0.10661845768E+01  0.51109989000E-03 0.  1.
     -623    1    1    2    0    0  0.25822298730E-02 -0.16330298760E-01  0.14274673076E-01  0.17124000139E+03  0.17124000000E+03 0.  1.
     -611    1    1    2    0    0  0.95063132940E-01 -0.75681317169E-01  0.36741577146E+01  0.36761664590E+01  0.51109989000E-03 0.  1.
      611    1    1    2    0    0  0.19816452033E-01 -0.14580542459E-01  0.75724784391E+00  0.75764757132E+00  0.51109989000E-03 0.  1.
</event>
<event>
 6   3  0.2312675E+03  0.9118800E+02  0.7818608E-02  0.1180000E+00
       11   -1    0    0    0    0  0.00000000000E+00  0.00000000000E+00  0.54999999763E+01  0.55000000000E+01  0.51109989000E-03 0. -1.
     -623   -1    0    0    0    0  0.00000000000E+00  0.00000000000E+00  0.93234578044E-11  0.17124000000E+03  0.17124000000E+03 0. -1.
       11    1    1    2    0    0 -0.28076221573E-01 -0.59319928092E-01  0.16374573454E+00  0.17640877215E+00  0.51109989000E-03 0. -1.
     -623    1    1    2    0    0  0.11071458229E-01  0.35729997464E-01  0.13948892169E-01  0.17124000465E+03  0.17124000000E+03 0. -1.
     -611    1    1    2    0    0 -0.31031026729E-01  0.39148724532E-01  0.12928948841E+01  0.12938597257E+01  0.51109989000E-03 0.  1.
      611    1    1    2    0    0  0.48035790073E-01 -0.15558793904E-01  0.40294104655E+01  0.40297268485E+01  0.51109989000E-03 0. -1.
</event>
<event>
 6   3  0.2312675E+03  0.9118800E+02  0.7818608E-02  0.1180000E+00
       11   -1    0    0    0    0  0.00000000000E+00  0.00000000000E+00  0.54999999763E+01  0.55000000000E+01  0.51109989000E-03 0.  1.
     -623   -1    0    0    0    0  0.00000000000E+00  0.00000000000E+00  0.93234578044E-11  0.17124000000E+03  0.17124000000E+03 0.  1.
       11    1    1    2    0    0  0.11409609991E-01  0.20418528432E-02  0.23034370067E-01  0.25791312310E-01  0.51109989000E-03 0.  1.
     -623    1    1    2    0    0 -0.31482154479E-01 -0.24179221113E-01  0.44936276992E-02  0.17124000466E+03  0.17124000000E+03 0.  1.
     -611    1    1    2    0    0  0.68180975681E-01  0.35519130921E-01  0.21836348671E+01  0.21849878142E+01  0.51109989000E-03 0. -1.
      611    1    1    2    0    0 -0.48108431193E-01 -0.13381762651E-01  0.32888371114E+01  0.32892162135E+01  0.51109989000E-03 0.  1.
</event>
<event>
 6   3  0.2312675E+03  0.9118800E+02  0.7818608E-02  0.1180000E+00
       11   -1    0    0    0    0  0.00000000000E+00  0.00000000000E+00  0.54999999763E+01  0.55000000000E+01  0.51109989000E-03 0. -1.
     -623   -1    0    0    0    0  0.00000000000E+00  0.00000000000E+00  0.93234578044E-11  0.17124000000E+03  0.17124000000E+03 0.  1.
       11    1    1    2    0    0  0.93368540675E-02  0.13163837560E-01  0.90407845843E+00  0.90422264055E+00  0.51109989000E-03 0. -1.
     -623    1    1    2    0    0 -0.83969109351E-02  0.40763327314E-02  0.99770304806E-03  0.17124000026E+03  0.17124000000E+03 0.  1.
     -611    1    1    2    0    0 -0.38528675955E-01  0.72030297079E-02  0.28816387800E+01  0.28819053874E+01  0.51109989000E-03 0. -1.
      611    1    1    2    0    0  0.37588732823E-01 -0.24443199999E-01  0.17132850347E+01  0.17138717147E+01  0.51109989000E-03 0.  1.
</event>
<event>
 6   3  0.2312675E+03  0.9118800E+02  0.7818608E-02  0.1180000E+00
       11   -1    0    0    0    0  0.00000000000E+00  0.00000000000E+00  0.54999999763E+01  0.55000000000E+01  0.51109989000E-03 0. -1.
     -623   -1    0    0    0    0  0.00000000000E+00  0.00000000000E+00  0.93234578044E-11  0.17124000000E+03  0.17124000000E+03 0.  1.
       11    1    1    2    0    0 -0.12430181011E-02  0.61696485070E-02  0.24339048772E-01  0.25144784249E-01  0.51109989000E-03 0. -1.
     -623    1    1    2    0    0 -0.70212087952E-02 -0.20824197492E-01  0.17766397659E-02  0.17124000142E+03  0.17124000000E+03 0.  1.
     -611    1    1    2    0    0  0.55026801634E-01  0.54865876513E-02  0.28385584309E+01  0.28390970886E+01  0.51109989000E-03 0. -1.
      611    1    1    2    0    0 -0.46762574738E-01  0.91679613340E-02  0.26353258568E+01  0.26357567078E+01  0.51109989000E-03 0.  1.
</event>
<event>
 6   3  0.2312675E+03  0.9118800E+02  0.7818608E-02  0.1180000E+00
       11   -1    0    0    0    0  0.00000000000E+00  0.00000000000E+00  0.54999999763E+01  0.55000000000E+01  0.51109989000E-03 0.  1.
     -623   -1    0    0    0    0  0.00000000000E+00  0.00000000000E+00  0.93234578044E-11  0.17124000000E+03  0.17124000000E+03 0. -1.
       11    1    1    2    0    0  0.10613977261E+00  0.66255187244E-01  0.87647317441E+00  0.88535918578E+00  0.51109989000E-03 0.  1.
     -623    1    1    2    0    0 -0.56796026416E-01 -0.73022299965E-02  0.95377639316E-02  0.17124000984E+03  0.17124000000E+03 0. -1.
     -611    1    1    2    0    0 -0.35657499969E-01 -0.42896674815E-01  0.32509952745E+01  0.32514738379E+01  0.51109989000E-03 0. -1.
      611    1    1    2    0    0 -0.13686246232E-01 -0.16056282441E-01  0.13629937641E+01  0.13631571368E+01  0.51109989000E-03 0. -1.
</event>
<event>
 6   3  0.2312675E+03  0.9118800E+02  0.7818608E-02  0.1180000E+00
       11   -1    0    0    0    0  0.00000000000E+00  0.00000000000E+00  0.54999999763E+01  0.55000000000E+01  0.51109989000E-03 0. -1.
     -623   -1    0    0    0    0  0.00000000000E+00  0.00000000000E+00  0.93234578044E-11  0.17124000000E+03  0.17124000000E+03 0.  1.
       11    1    1    2    0    0 -0.16153782937E-02  0.84539094741E-02  0.73040171121E-01  0.73547303505E-01  0.51109989000E-03 0. -1.
     -623    1    1    2    0    0 -0.33618368406E-02 -0.19090189400E-02  0.14763935493E-02  0.17124000005E+03  0.17124000000E+03 0.  1.
     -611    1    1    2    0    0 -0.39372450561E-01  0.12366575718E-01  0.38748358362E+01  0.38750556307E+01  0.51109989000E-03 0. -1.
      611    1    1    2    0    0  0.44349665695E-01 -0.18911466253E-01  0.15506475753E+01  0.15513970157E+01  0.51109989000E-03 0.  1.
</event>
<event>
 6   3  0.2312675E+03  0.9118800E+02  0.7818608E-02  0.1180000E+00
       11   -1    0    0    0    0  0.00000000000E+00  0.00000000000E+00  0.54999999763E+01  0.55000000000E+01  0.51109989000E-03 0.  1.
     -623   -1    0    0    0    0  0.00000000000E+00  0.00000000000E+00  0.93234578044E-11  0.17124000000E+03  0.17124000000E+03 0.  1.
       11    1    1    2    0    0 -0.77183955611E-02 -0.13311346358E-02  0.16501331452E+00  0.16519988118E+00  0.51109989000E-03 0.  1.
     -623    1    1    2    0    0 -0.19128163015E-02  0.58577979403E-02  0.62359191252E-03  0.17124000011E+03  0.17124000000E+03 0.  1.
     -611    1    1    2    0    0 -0.26613517366E-01  0.11053409370E-01  0.22486487688E+01  0.22488334762E+01  0.51109989000E-03 0. -1.
      611    1    1    2    0    0  0.36244729228E-01 -0.15580072675E-01  0.30857143011E+01  0.30859665307E+01  0.51109989000E-03 0.  1.
</event>
<event>
 6   3  0.2312675E+03  0.9118800E+02  0.7818608E-02  0.1180000E+00
       11   -1    0    0    0    0  0.00000000000E+00  0.00000000000E+00  0.54999999763E+01  0.55000000000E+01  0.51109989000E-03 0.  1.
     -623   -1    0    0    0    0  0.00000000000E+00  0.00000000000E+00  0.93234578044E-11  0.17124000000E+03  0.17124000000E+03 0.  1.
       11    1    1    2    0    0  0.38501680031E-01 -0.73819349135E-03  0.26747370527E+00  0.27023206422E+00  0.51109989000E-03 0.  1.
     -623    1    1    2    0    0  0.15536150663E-01  0.12760792948E-01  0.30529324101E-02  0.17124000121E+03  0.17124000000E+03 0.  1.
     -611    1    1    2    0    0 -0.10811788696E-01 -0.29409093535E-02  0.10277432925E+01  0.10278044951E+01  0.51109989000E-03 0. -1.
      611    1    1    2    0    0 -0.43226041982E-01 -0.90816900999E-02  0.42017300445E+01  0.42019622316E+01  0.51109989000E-03 0.  1.
</event>
<event>
 6   3  0.2312675E+03  0.9118800E+02  0.7818608E-02  0.1180000E+00
       11   -1    0    0    0    0  0.00000000000E+00  0.00000000000E+00  0.54999999763E+01  0.55000000000E+01  0.51109989000E-03 0.  1.
     -623   -1    0    0    0    0  0.00000000000E+00  0.00000000000E+00  0.93234578044E-11  0.17124000000E+03  0.17124000000E+03 0. -1.
       11    1    1    2    0    0  0.14658162260E-01 -0.15494072426E-01  0.59956531042E+00  0.59994478969E+00  0.51109989000E-03 0.  1.
     -623    1    1    2    0    0 -0.16514436938E-01  0.61211444178E-02  0.41602571662E-02  0.17124000096E+03  0.17124000000E+03 0. -1.
     -611    1    1    2    0    0 -0.57252417590E-01 -0.71405995687E-01  0.21157536730E+01  0.21177324008E+01  0.51109989000E-03 0. -1.
      611    1    1    2    0    0  0.59108692268E-01  0.80778923695E-01  0.27805207357E+01  0.27823218533E+01  0.51109989000E-03 0.  1.
</event>
<event>
 6   3  0.2312675E+03  0.9118800E+02  0.7818608E-02  0.1180000E+00
       11   -1    0    0    0    0  0.00000000000E+00  0.00000000000E+00  0.54999999763E+01  0.55000000000E+01  0.51109989000E-03 0. -1.
     -623   -1    0    0    0    0  0.00000000000E+00  0.00000000000E+00  0.93234578044E-11  0.17124000000E+03  0.17124000000E+03 0. -1.
       11    1    1    2    0    0 -0.32944101638E-01  0.18412119119E+00  0.60171308148E+00  0.63011492644E+00  0.51109989000E-03 0. -1.
     -623    1    1    2    0    0 -0.12048788004E-01 -0.81220861017E-01  0.30751714345E-01  0.17124002245E+03  0.17124000000E+03 0. -1.
     -611    1    1    2    0    0  0.69548207728E-01 -0.34076477001E-01  0.24659890884E+01  0.24672050188E+01  0.51109989000E-03 0.  1.
      611    1    1    2    0    0 -0.24555318087E-01 -0.68823853170E-01  0.24015460921E+01  0.24026576077E+01  0.51109989000E-03 0. -1.
</event>
<event>
 6   3  0.2312675E+03  0.9118800E+02  0.7818608E-02  0.1180000E+00
       11   -1    0    0    0    0  0.00000000000E+00  0.00000000000E+00  0.54999999763E+01  0.55000000000E+01  0.51109989000E-03 0.  1.
     -623   -1    0    0    0    0  0.00000000000E+00  0.00000000000E+00  0.93234578044E-11  0.17124000000E+03  0.17124000000E+03 0. -1.
       11    1    1    2    0    0 -0.26309586511E-02 -0.72356640965E-02  0.10809520926E+01  0.10809796319E+01  0.51109989000E-03 0.  1.
     -623    1    1    2    0    0 -0.50224314233E-01 -0.71290347192E-01  0.10645667240E-02  0.17124002221E+03  0.17124000000E+03 0. -1.
     -611    1    1    2    0    0  0.21480928527E-01  0.30372311710E-01  0.16910668720E+01  0.16914760815E+01  0.51109989000E-03 0. -1.
      611    1    1    2    0    0  0.31374344375E-01  0.48153699606E-01  0.27269164465E+01  0.27275220798E+01  0.51109989000E-03 0.  1.
</event>
<event>
 6   3  0.2312675E+03  0.9118800E+02  0.7818608E-02  0.1180000E+00
       11   -1    0    0    0    0  0.00000000000E+00  0.00000000000E+00  0.54999999763E+01  0.55000000000E+01  0.51109989000E-03 0.  1.
     -623   -1    0    0    0    0  0.00000000000E+00  0.00000000000E+00  0.93234578044E-11  0.17124000000E+03  0.17124000000E+03 0. -1.
       11    1    1    2    0    0  0.16772144446E-02  0.77775894915E-02  0.69408769295E+00  0.69413348188E+00  0.51109989000E-03 0.  1.
     -623    1    1    2    0    0 -0.22599931591E-02  0.25976501822E-02  0.45199539624E-03  0.17124000004E+03  0.17124000000E+03 0. -1.
     -611    1    1    2    0    0  0.30812246113E-01 -0.85469807052E-02  0.22689936088E+01  0.22692189633E+01  0.51109989000E-03 0. -1.
      611    1    1    2    0    0 -0.30229467398E-01 -0.18282589684E-02  0.25364666791E+01  0.25366475196E+01  0.51109989000E-03 0.  1.
</event>
<event>
 6   3  0.2312675E+03  0.9118800E+02  0.7818608E-02  0.1180000E+00
       11   -1    0    0    0    0  0.00000000000E+00  0.00000000000E+00  0.54999999763E+01  0.55000000000E+01  0.51109989000E-03 0.  1.
     -623   -1    0    0    0    0  0.00000000000E+00  0.00000000000E+00  0.93234578044E-11  0.17124000000E+03  0.17124000000E+03 0. -1.
       11    1    1    2    0    0 -0.21924940269E-01 -0.12103725212E-01  0.98285088458E+00  0.98317003906E+00  0.51109989000E-03 0. -1.
     -623    1    1    2    0    0  0.11831756151E+00  0.80919415869E-01  0.19328301978E-02  0.17124006001E+03  0.17124000000E+03 0. -1.
     -611    1    1    2    0    0 -0.35547193116E-01 -0.26664827610E-01  0.16923014895E+01  0.16928848775E+01  0.51109989000E-03 0. -1.
      611    1    1    2    0    0 -0.60845427443E-01 -0.42150862580E-01  0.28229147403E+01  0.28238850461E+01  0.51109989000E-03 0.  1.
</event>
<event>
 6   3  0.2312675E+03  0.9118800E+02  0.7818608E-02  0.1180000E+00
       11   -1    0    0    0    0  0.00000000000E+00  0.00000000000E+00  0.54999999763E+01  0.55000000000E+01  0.51109989000E-03 0. -1.
     -623   -1    0    0    0    0  0.00000000000E+00  0.00000000000E+00  0.93234578044E-11  0.17124000000E+03  0.17124000000E+03 0. -1.
       11    1    1    2    0    0  0.19113304724E-01  0.10019468215E-01  0.35562398362E+00  0.35627852463E+00  0.51109989000E-03 0. -1.
     -623    1    1    2    0    0 -0.10163327086E+00  0.60458745888E-02  0.13734974190E-02  0.17124003027E+03  0.17124000000E+03 0. -1.
     -611    1    1    2    0    0  0.62933709518E-01 -0.12944028527E-01  0.40202859940E+01  0.40207994149E+01  0.51109989000E-03 0. -1.
      611    1    1    2    0    0  0.19586256627E-01 -0.31213142785E-02  0.11227165015E+01  0.11228917882E+01  0.51109989000E-03 0.  1.
</event>
<event>
 6   3  0.2312675E+03  0.9118800E+02  0.7818608E-02  0.1180000E+00
       11   -1    0    0    0    0  0.00000000000E+00  0.00000000000E+00  0.54999999763E+01  0.55000000000E+01  0.51109989000E-03 0. -1.
     -623   -1    0    0    0    0  0.00000000000E+00  0.00000000000E+00  0.93234578044E-11  0.17124000000E+03  0.17124000000E+03 0. -1.
       11    1    1    2    0    0 -0.26034230514E-01 -0.25911172484E-02  0.96413992041E+00  0.96449496753E+00  0.51109989000E-03 0. -1.
     -623    1    1    2    0    0 -0.43410492698E-01 -0.74932842243E-01  0.15716210855E-02  0.17124002190E+03  0.17124000000E+03 0. -1.
     -611    1    1    2    0    0  0.28489180231E-01  0.32838561396E-01  0.18904157189E+01  0.18909156132E+01  0.51109989000E-03 0. -1.
      611    1    1    2    0    0  0.40955542985E-01  0.44685398101E-01  0.26438727161E+01  0.26445675151E+01  0.51109989000E-03 0.  1.
</event>
<event>
 6   3  0.2312675E+03  0.9118800E+02  0.7818608E-02  0.1180000E+00
       11   -1    0    0    0    0  0.00000000000E+00  0.00000000000E+00  0.54999999763E+01  0.55000000000E+01  0.51109989000E-03 0. -1.
     -623   -1    0    0    0    0  0.00000000000E+00  0.00000000000E+00  0.93234578044E-11  0.17124000000E+03  0.17124000000E+03 0. -1.
       11    1    1    2    0    0 -0.58552873323E-01  0.18108239006E-01  0.85268267601E+00  0.85488265539E+00  0.51109989000E-03 0. -1.
     -623    1    1    2    0    0  0.30092498585E-02 -0.67103818311E-02  0.25465432243E-02  0.17124000018E+03  0.17124000000E+03 0. -1.
     -611    1    1    2    0    0  0.31807470632E-01 -0.59766580238E-02  0.26880429702E+01  0.26882378441E+01  0.51109989000E-03 0. -1.
      611    1    1    2    0    0  0.23736152863E-01 -0.54211991574E-02  0.19567277895E+01  0.19568793263E+01  0.51109989000E-03 0.  1.
</event>
<event>
 6   3  0.2312675E+03  0.9118800E+02  0.7818608E-02  0.1180000E+00
       11   -1    0    0    0    0  0.00000000000E+00  0.00000000000E+00  0.54999999763E+01  0.55000000000E+01  0.51109989000E-03 0.  1.
     -623   -1    0    0    0    0  0.00000000000E+00  0.00000000000E+00  0.93234578044E-11  0.17124000000E+03  0.17124000000E+03 0. -1.
       11    1    1    2    0    0 -0.21312482671E-01  0.12559775001E-01  0.10248635634E+01  0.10251622089E+01  0.51109989000E-03 0.  1.
     -623    1    1    2    0    0  0.17297592959E-02  0.50263024906E-02  0.82708143672E-03  0.17124000008E+03  0.17124000000E+03 0. -1.
     -611    1    1    2    0    0 -0.18981490701E-01 -0.61932843315E-02  0.62663014743E+00  0.62694836840E+00  0.51109989000E-03 0. -1.
      611    1    1    2    0    0  0.38564214076E-01 -0.11392793160E-01  0.38476791839E+01  0.38478893381E+01  0.51109989000E-03 0.  1.
</event>
<event>
 6   3  0.2312675E+03  0.9118800E+02  0.7818608E-02  0.1180000E+00
       11   -1    0    0    0    0  0.00000000000E+00  0.00000000000E+00  0.54999999763E+01  0.55000000000E+01  0.51109989000E-03 0. -1.
     -623   -1    0    0    0    0  0.00000000000E+00  0.00000000000E+00  0.93234578044E-11  0.17124000000E+03  0.17124000000E+03 0.  1.
       11    1    1    2    0    0 -0.86197903778E-03  0.75938025432E-02  0.99485295985E+00  0.99488244622E+00  0.51109989000E-03 0. -1.
     -623    1    1    2    0    0  0.46682492547E-01 -0.39546948352E-01  0.38694440731E-03  0.17124001093E+03  0.17124000000E+03 0.  1.
     -611    1    1    2    0    0 -0.29907928055E-01  0.21331868848E-01  0.29679414056E+01  0.29681687926E+01  0.51109989000E-03 0. -1.
      611    1    1    2    0    0 -0.15912585424E-01  0.10621276936E-01  0.15368186629E+01  0.15369378275E+01  0.51109989000E-03 0. -1.
</event>
<event>
 6   3  0.2312675E+03  0.9118800E+02  0.7818608E-02  0.1180000E+00
       11   -1    0    0    0    0  0.00000000000E+00  0.00000000000E+00  0.54999999763E+01  0.55000000000E+01  0.51109989000E-03 0.  1.
     -623   -1    0    0    0    0  0.00000000000E+00  0.00000000000E+00  0.93234578044E-11  0.17124000000E+03  0.17124000000E+03 0. -1.
       11    1    1    2    0    0  0.27688142316E-02  0.74217386650E-02  0.41558215578E+00  0.41565795790E+00  0.51109989000E-03 0.  1.
     -623    1    1    2    0    0 -0.28459016750E-01  0.14198049441E-01  0.15401686772E-02  0.17124000296E+03  0.17124000000E+03 0. -1.
     -611    1    1    2    0    0  0.69567222119E-01  0.15554531904E-03  0.35414409471E+01  0.35421242024E+01  0.51109989000E-03 0. -1.
      611    1    1    2    0    0 -0.43877019600E-01 -0.21775333425E-01  0.15414367047E+01  0.15422148793E+01  0.51109989000E-03 0.  1.
</event>
<event>
 6   3  0.2312675E+03  0.9118800E+02  0.7818608E-02  0.1180000E+00
       11   -1    0    0    0    0  0.00000000000E+00  0.00000000000E+00  0.54999999763E+01  0.55000000000E+01  0.51109989000E-03 0. -1.
     -623   -1    0    0    0    0  0.00000000000E+00  0.00000000000E+00  0.93234578044E-11  0.17124000000E+03  0.17124000000E+03 0.  1.
       11    1    1    2    0    0 -0.18847565030E-02  0.15351790999E-01  0.35372330044E-01  0.38609490411E-01  0.51109989000E-03 0. -1.
     -623    1    1    2    0    0 -0.23275576072E-02 -0.14379481216E-01  0.43028336581E-02  0.17124000067E+03  0.17124000000E+03 0.  1.
     -611    1    1    2    0    0 -0.51573237436E-01 -0.21917655096E-02  0.23820408401E+01  0.23826001402E+01  0.51109989000E-03 0.  1.
      611    1    1    2    0    0  0.55785551546E-01  0.12194557258E-02  0.30782839724E+01  0.30787896958E+01  0.51109989000E-03 0. -1.
</event>
<event>
 6   3  0.2312675E+03  0.9118800E+02  0.7818608E-02  0.1180000E+00
       11   -1    0    0    0    0  0.00000000000E+00  0.00000000000E+00  0.54999999763E+01  0.55000000000E+01  0.51109989000E-03 0. -1.
     -623   -1    0    0    0    0  0.00000000000E+00  0.00000000000E+00  0.93234578044E-11  0.17124000000E+03  0.17124000000E+03 0.  1.
       11    1    1    2    0    0  0.46304353961E-01  0.38507524814E-01  0.78879524276E+00  0.79109109393E+00  0.51109989000E-03 0. -1.
     -623    1    1    2    0    0  0.20518214655E-01  0.15527580803E-02  0.29424149577E-02  0.17124000126E+03  0.17124000000E+03 0.  1.
     -611    1    1    2    0    0 -0.53395185994E-01 -0.33048185923E-01  0.37789520016E+01  0.37794737358E+01  0.51109989000E-03 0. -1.
      611    1    1    2    0    0 -0.13427382614E-01 -0.70120969669E-02  0.92931031637E+00  0.92943390805E+00  0.51109989000E-03 0. -1.
</event>
<event>
 6   3  0.2312675E+03  0.9118800E+02  0.7818608E-02  0.1180000E+00
       11   -1    0    0    0    0  0.00000000000E+00  0.00000000000E+00  0.54999999763E+01  0.55000000000E+01  0.51109989000E-03 0.  1.
     -623   -1    0    0    0    0  0.00000000000E+00  0.00000000000E+00  0.93234578044E-11  0.17124000000E+03  0.17124000000E+03 0. -1.
       11    1    1    2    0    0  0.14041131679E-01  0.29053785471E-01  0.31153347021E+00  0.31320063875E+00  0.51109989000E-03 0.  1.
     -623    1    1    2    0    0  0.39832152825E-02 -0.17312992834E-01  0.21195695629E-02  0.17124000093E+03  0.17124000000E+03 0. -1.
     -611    1    1    2    0    0  0.19620517485E-01 -0.19052804210E-01  0.14773632985E+01  0.14776165101E+01  0.51109989000E-03 0. -1.
      611    1    1    2    0    0 -0.37644864447E-01  0.73120115732E-02  0.37089836380E+01  0.37091819164E+01  0.51109989000E-03 0.  1.
</event>
<event>
 6   3  0.2312675E+03  0.9118800E+02  0.7818608E-02  0.1180000E+00
       11   -1    0    0    0    0  0.00000000000E+00  0.00000000000E+00  0.54999999763E+01  0.55000000000E+01  0.51109989000E-03 0.  1.
     -623   -1    0    0    0    0  0.00000000000E+00  0.00000000000E+00  0.93234578044E-11  0.17124000000E+03  0.17124000000E+03 0.  1.
       11    1    1    2    0    0  0.26766103212E-02  0.14002507760E-03  0.12373504101E+00  0.12376512210E+00  0.51109989000E-03 0.  1.
     -623    1    1    2    0    0 -0.67748605555E-01  0.88642649284E-01  0.11951704073E-02  0.17124003635E+03  0.17124000000E+03 0.  1.
     -611    1    1    2    0    0  0.55213905600E-01 -0.73769333572E-01  0.45555206739E+01  0.45564524974E+01  0.51109989000E-03 0.  1.
      611    1    1    2    0    0  0.98580896928E-02 -0.15013340866E-01  0.81954909574E+00  0.81974603621E+00  0.51109989000E-03 0.  1.
</event>
<event>
 6   3  0.2312675E+03  0.9118800E+02  0.7818608E-02  0.1180000E+00
       11   -1    0    0    0    0  0.00000000000E+00  0.00000000000E+00  0.54999999763E+01  0.55000000000E+01  0.51109989000E-03 0.  1.
     -623   -1    0    0    0    0  0.00000000000E+00  0.00000000000E+00  0.93234578044E-11  0.17124000000E+03  0.17124000000E+03 0.  1.
       11    1    1    2    0    0 -0.56776503332E-02 -0.74984238158E-03  0.31803572148E+00  0.31808769127E+00  0.51109989000E-03 0.  1.
     -623    1    1    2    0    0  0.59447237872E-01  0.22722831162E-01  0.40556022524E-03  0.17124001183E+03  0.17124000000E+03 0.  1.
     -611    1    1    2    0    0 -0.62153756991E-02 -0.64695528346E-02  0.57479368380E+00  0.57486391970E+00  0.51109989000E-03 0. -1.
      611    1    1    2    0    0 -0.47554211906E-01 -0.15503435971E-01  0.46067650168E+01  0.46070365683E+01  0.51109989000E-03 0.  1.
</event>
<event>
 6   3  0.2312675E+03  0.9118800E+02  0.7818608E-02  0.1180000E+00
       11   -1    0    0    0    0  0.00000000000E+00  0.00000000000E+00  0.54999999763E+01  0.55000000000E+01  0.51109989000E-03 0. -1.
     -623   -1    0    0    0    0  0.00000000000E+00  0.00000000000E+00  0.93234578044E-11  0.17124000000E+03  0.17124000000E+03 0. -1.
       11    1    1    2    0    0 -0.60135168396E-01 -0.21204328737E-01  0.42113115150E+00  0.42593141469E+00  0.51109989000E-03 0. -1.
     -623    1    1    2    0    0 -0.17608175697E-01  0.15724264240E-01  0.54037550921E-02  0.17124000171E+03  0.17124000000E+03 0. -1.
     -611    1    1    2    0    0  0.81978580996E-02  0.22287111214E-02  0.52549969606E+00  0.52556860999E+00  0.51109989000E-03 0.  1.
      611    1    1    2    0    0  0.69545485988E-01  0.32513533749E-02  0.45479653733E+01  0.45484982625E+01  0.51109989000E-03 0. -1.
</event>
<event>
 6   3  0.2312675E+03  0.9118800E+02  0.7818608E-02  0.1180000E+00
       11   -1    0    0    0    0  0.00000000000E+00  0.00000000000E+00  0.54999999763E+01  0.55000000000E+01  0.51109989000E-03 0. -1.
     -623   -1    0    0    0    0  0.00000000000E+00  0.00000000000E+00  0.93234578044E-11  0.17124000000E+03  0.17124000000E+03 0.  1.
       11    1    1    2    0    0  0.45904073290E-01  0.14913803940E-01  0.67405778490E+00  0.67578381462E+00  0.51109989000E-03 0. -1.
     -623    1    1    2    0    0  0.40246597711E-02 -0.54794478571E-01  0.21585957182E-02  0.17124000883E+03  0.17124000000E+03 0.  1.
     -611    1    1    2    0    0 -0.37816332859E-01  0.29745369128E-01  0.36867881078E+01  0.36871020700E+01  0.51109989000E-03 0. -1.
      611    1    1    2    0    0 -0.12112400201E-01  0.10135305502E-01  0.11369954877E+01  0.11371052875E+01  0.51109989000E-03 0.  1.
</event>
<event>
 6   3  0.2312675E+03  0.9118800E+02  0.7818608E-02  0.1180000E+00
       11   -1    0    0    0    0  0.00000000000E+00  0.00000000000E+00  0.54999999763E+01  0.55000000000E+01  0.51109989000E-03 0. -1.
     -623   -1    0    0    0    0  0.00000000000E+00  0.00000000000E+00  0.93234578044E-11  0.17124000000E+03  0.17124000000E+03 0.  1.
       11    1    1    2    0    0  0.19430005884E-01  0.72491689347E-02  0.41193078130E+00  0.41245279171E+00  0.51109989000E-03 0. -1.
     -623    1    1    2    0    0 -0.38790647738E-02 -0.56818352575E-02  0.13571862994E-02  0.17124000014E+03  0.17124000000E+03 0.  1.
     -611    1    1    2    0    0  0.34158684037E-01 -0.12582764587E-01  0.13598771268E+01  0.13603643640E+01  0.51109989000E-03 0.  1.
      611    1    1    2    0    0 -0.49709625147E-01  0.11015430910E-01  0.37268348817E+01  0.37271827006E+01  0.51109989000E-03 0. -1.
</event>
<event>
 6   3  0.2312675E+03  0.9118800E+02  0.7818608E-02  0.1180000E+00
       11   -1    0    0    0    0  0.00000000000E+00  0.00000000000E+00  0.54999999763E+01  0.55000000000E+01  0.51109989000E-03 0.  1.
     -623   -1    0    0    0    0  0.00000000000E+00  0.00000000000E+00  0.93234578044E-11  0.17124000000E+03  0.17124000000E+03 0.  1.
       11    1    1    2    0    0  0.24781495739E-01  0.78843486253E-02  0.67029902924E+00  0.67080349978E+00  0.51109989000E-03 0.  1.
     -623    1    1    2    0    0 -0.15776600246E-01 -0.56664642387E-01  0.14041982526E-02  0.17124001011E+03  0.17124000000E+03 0.  1.
     -611    1    1    2    0    0 -0.42192794782E-01  0.14443225138E-01  0.25372414601E+01  0.25376334106E+01  0.51109989000E-03 0.  1.
      611    1    1    2    0    0  0.33187899288E-01  0.34337068624E-01  0.22910552888E+01  0.22915529818E+01  0.51109989000E-03 0. -1.
</event>
<event>
 6   3  0.2312675E+03  0.9118800E+02  0.7818608E-02  0.1180000E+00
       11   -1    0    0    0    0  0.00000000000E+00  0.00000000000E+00  0.54999999763E+01  0.55000000000E+01  0.51109989000E-03 0. -1.
     -623   -1    0    0    0    0  0.00000000000E+00  0.00000000000E+00  0.93234578044E-11  0.17124000000E+03  0.17124000000E+03 0.  1.
       11    1    1    2    0    0 -0.69329164816E-01 -0.41730930870E-01  0.34096421803E+00  0.35043524778E+00  0.51109989000E-03 0. -1.
     -623    1    1    2    0    0 -0.43667357965E-01 -0.44368388568E-02  0.11318886325E-01  0.17124000600E+03  0.17124000000E+03 0.  1.
     -611    1    1    2    0    0  0.51941366806E-01  0.34773238419E-01  0.14846466288E+01  0.14859619636E+01  0.51109989000E-03 0.  1.
      611    1    1    2    0    0  0.61055155975E-01  0.11394531307E-01  0.36630702431E+01  0.36635967893E+01  0.51109989000E-03 0. -1.
</event>
<event>
 6   3  0.2312675E+03  0.9118800E+02  0.7818608E-02  0.1180000E+00
       11   -1    0    0    0    0  0.00000000000E+00  0.00000000000E+00  0.54999999763E+01  0.55000000000E+01  0.51109989000E-03 0. -1.
     -623   -1    0    0    0    0  0.00000000000E+00  0.00000000000E+00  0.93234578044E-11  0.17124000000E+03  0.17124000000E+03 0.  1.
       11    1    1    2    0    0  0.70330423304E-01  0.31948026515E-01  0.10050773101E+01  0.10080415197E+01  0.51109989000E-03 0. -1.
     -623    1    1    2    0    0 -0.39741679028E-02 -0.54222406863E-01  0.35254277424E-02  0.17124000867E+03  0.17124000000E+03 0.  1.
     -611    1    1    2    0    0 -0.10835907790E-01  0.67729993261E-02  0.77434228423E+00  0.77444788384E+00  0.51109989000E-03 0.  1.
      611    1    1    2    0    0 -0.55520347610E-01  0.15501381021E-01  0.37170549541E+01  0.37175019293E+01  0.51109989000E-03 0. -1.
</event>
<event>
 6   3  0.2312675E+03  0.9118800E+02  0.7818608E-02  0.1180000E+00
       11   -1    0    0    0    0  0.00000000000E+00  0.00000000000E+00  0.54999999763E+01  0.55000000000E+01  0.51109989000E-03 0.  1.
     -623   -1    0    0    0    0  0.00000000000E+00  0.00000000000E+00  0.93234578044E-11  0.17124000000E+03  0.17124000000E+03 0. -1.
       11    1    1    2    0    0  0.41055148559E-02  0.15477515222E-01  0.41886522597E+00  0.41917150127E+00  0.51109989000E-03 0.  1.
     -623    1    1    2    0    0  0.63989819018E-02 -0.66368975646E-02  0.19901814522E-02  0.17124000026E+03  0.17124000000E+03 0. -1.
     -611    1    1    2    0    0  0.31543531654E-01 -0.57935841578E-01  0.24322859915E+01  0.24331804211E+01  0.51109989000E-03 0. -1.
      611    1    1    2    0    0 -0.42048028412E-01  0.49095223921E-01  0.26468585773E+01  0.26476478179E+01  0.51109989000E-03 0.  1.
</event>
<event>
 6   3  0.2312675E+03  0.9118800E+02  0.7818608E-02  0.1180000E+00
       11   -1    0    0    0    0  0.00000000000E+00  0.00000000000E+00  0.54999999763E+01  0.55000000000E+01  0.51109989000E-03 0. -1.
     -623   -1    0    0    0    0  0.00000000000E+00  0.00000000000E+00  0.93234578044E-11  0.17124000000E+03  0.17124000000E+03 0. -1.
       11    1    1    2    0    0  0.56443565858E-01  0.24723154378E-02  0.10694271283E+01  0.10709185928E+01  0.51109989000E-03 0. -1.
     -623    1    1    2    0    0 -0.50942323618E-02 -0.20383839992E-01  0.18268087612E-02  0.17124000130E+03  0.17124000000E+03 0. -1.
     -611    1    1    2    0    0 -0.12797310336E-01  0.45226920341E-02  0.10927236368E+01  0.10928080497E+01  0.51109989000E-03 0. -1.
      611    1    1    2    0    0 -0.38552023115E-01  0.13388832503E-01  0.33360223984E+01  0.33362720547E+01  0.51109989000E-03 0. -1.
</event>
<event>
 6   3  0.2363179E+03  0.9118800E+02  0.7818608E-02  0.1180000E+00
       11   -1    0    0    0    0  0.00000000000E+00  0.00000000000E+00  0.54999999763E+01  0.55000000000E+01  0.51109989000E-03 0. -1.
     -623   -1    0    0    0    0  0.00000000000E+00  0.00000000000E+00  0.93234578044E-11  0.17124000000E+03  0.17124000000E+03 0.  1.
       11    1    1    2    0    0 -0.16353124034E-02  0.46390913149E-02  0.39642009678E-02  0.63381012374E-02  0.51109989000E-03 0. -1.
     -623    1    1    2    0    0  0.48023778959E-02 -0.60701531077E-02  0.42726020947E-02  0.17124000023E+03  0.17124000000E+03 0.  1.
     -611    1    1    2    0    0  0.64553013521E-01 -0.11758548919E-01  0.16914956211E+01  0.16927678673E+01  0.51109989000E-03 0.  1.
      611    1    1    2    0    0 -0.67720079013E-01  0.13189610712E-01  0.38002675521E+01  0.38008938033E+01  0.51109989000E-03 0. -1.
</event>
<event>
 6   3  0.2312675E+03  0.9118800E+02  0.7818608E-02  0.1180000E+00
       11   -1    0    0    0    0  0.00000000000E+00  0.00000000000E+00  0.54999999763E+01  0.55000000000E+01  0.51109989000E-03 0. -1.
     -623   -1    0    0    0    0  0.00000000000E+00  0.00000000000E+00  0.93234578044E-11  0.17124000000E+03  0.17124000000E+03 0. -1.
       11    1    1    2    0    0 -0.53274535622E-01 -0.17989232262E-01  0.69269340750E+00  0.69497209055E+00  0.51109989000E-03 0. -1.
     -623    1    1    2    0    0 -0.28976339278E-02  0.15588874147E-02  0.26371517416E-02  0.17124000005E+03  0.17124000000E+03 0. -1.
     -611    1    1    2    0    0  0.33187665382E-01  0.10628470942E-01  0.30125529706E+01  0.30127545614E+01  0.51109989000E-03 0. -1.
      611    1    1    2    0    0  0.22984504166E-01  0.58018739051E-02  0.17921164464E+01  0.17922732961E+01  0.51109989000E-03 0.  1.
</event>
<event>
 6   3  0.2312675E+03  0.9118800E+02  0.7818608E-02  0.1180000E+00
       11   -1    0    0    0    0  0.00000000000E+00  0.00000000000E+00  0.54999999763E+01  0.55000000000E+01  0.51109989000E-03 0.  1.
     -623   -1    0    0    0    0  0.00000000000E+00  0.00000000000E+00  0.93234578044E-11  0.17124000000E+03  0.17124000000E+03 0.  1.
       11    1    1    2    0    0 -0.83186160506E-01  0.93136785311E-02  0.33154441313E+00  0.34194830166E+00  0.51109989000E-03 0.  1.
     -623    1    1    2    0    0  0.92617599464E-02 -0.88026981659E-03  0.10942067735E-01  0.17124000060E+03  0.17124000000E+03 0.  1.
     -611    1    1    2    0    0  0.21582047757E-01 -0.28271995827E-02  0.15985795532E+01  0.15987278152E+01  0.51109989000E-03 0.  1.
      611    1    1    2    0    0  0.52342352812E-01 -0.56062091328E-02  0.35589339429E+01  0.35593232815E+01  0.51109989000E-03 0. -1.
</event>
<event>
 6   3  0.2312675E+03  0.9118800E+02  0.7818608E-02  0.1180000E+00
       11   -1    0    0    0    0  0.00000000000E+00  0.00000000000E+00  0.54999999763E+01  0.55000000000E+01  0.51109989000E-03 0. -1.
     -623   -1    0    0    0    0  0.00000000000E+00  0.00000000000E+00  0.93234578044E-11  0.17124000000E+03  0.17124000000E+03 0. -1.
       11    1    1    2    0    0  0.55568716512E-01 -0.21407077684E-01  0.58873830493E+00  0.59174251001E+00  0.51109989000E-03 0. -1.
     -623    1    1    2    0    0  0.27790132976E-01 -0.20240767021E-01  0.39542771935E-02  0.17124000350E+03  0.17124000000E+03 0. -1.
     -611    1    1    2    0    0 -0.26762157745E-01  0.26813619404E-02  0.16777127305E+01  0.16779283865E+01  0.51109989000E-03 0.  1.
      611    1    1    2    0    0 -0.56596691743E-01  0.38966482765E-01  0.32295946636E+01  0.32303256067E+01  0.51109989000E-03 0. -1.
</event>
<event>
 6   3  0.2312675E+03  0.9118800E+02  0.7818608E-02  0.1180000E+00
       11   -1    0    0    0    0  0.00000000000E+00  0.00000000000E+00  0.54999999763E+01  0.55000000000E+01  0.51109989000E-03 0.  1.
     -623   -1    0    0    0    0  0.00000000000E+00  0.00000000000E+00  0.93234578044E-11  0.17124000000E+03  0.17124000000E+03 0.  1.
       11    1    1    2    0    0  0.41487680730E-01  0.49358088821E-01  0.82899158459E+00  0.83149549435E+00  0.51109989000E-03 0.  1.
     -623    1    1    2    0    0  0.19439987205E-01 -0.43882385052E-02  0.31194480607E-02  0.17124000119E+03  0.17124000000E+03 0.  1.
     -611    1    1    2    0    0 -0.33204216395E-01 -0.24121819887E-01  0.25187513312E+01  0.25190857293E+01  0.51109989000E-03 0.  1.
      611    1    1    2    0    0 -0.27723451507E-01 -0.20848030405E-01  0.21491376100E+01  0.21494175857E+01  0.51109989000E-03 0.  1.
</event>
<event>
 6   3  0.2312675E+03  0.9118800E+02  0.7818608E-02  0.1180000E+00
       11   -1    0    0    0    0  0.00000000000E+00  0.00000000000E+00  0.54999999763E+01  0.55000000000E+01  0.51109989000E-03 0. -1.
     -623   -1    0    0    0    0  0.00000000000E+00  0.00000000000E+00  0.93234578044E-11  0.17124000000E+03  0.17124000000E+03 0. -1.
       11    1    1    2    0    0 -0.74774862750E-01 -0.46142765137E-01  0.83971108016E+00  0.84429579783E+00  0.51109989000E-03 0. -1.
     -623    1    1    2    0    0 -0.18119051156E-01  0.13175826694E-01  0.57536259388E-02  0.17124000156E+03  0.17124000000E+03 0. -1.
     -611    1    1    2    0    0  0.37106316663E-01  0.23318600318E-01  0.14336371430E+01  0.14343069249E+01  0.51109989000E-03 0.  1.
      611    1    1    2    0    0  0.55787597243E-01  0.96483381251E-02  0.32208981271E+01  0.32213957151E+01  0.51109989000E-03 0. -1.
</event>
<event>
 6   3  0.6005910E+03  0.9118800E+02  0.7818608E-02  0.1180000E+00
       11   -1    0    0    0    0  0.00000000000E+00  0.00000000000E+00  0.54999999763E+01  0.55000000000E+01  0.51109989000E-03 0.  1.
     -623   -1    0    0    0    0  0.00000000000E+00  0.00000000000E+00  0.93234578044E-11  0.17124000000E+03  0.17124000000E+03 0.  1.
       11    1    1    2    0    0 -0.17025648184E-01 -0.45840956086E-02  0.26160953299E+00  0.26220353850E+00  0.51109989000E-03 0.  1.
     -623    1    1    2    0    0  0.63384146949E-01 -0.11038290852E-01  0.18139860923E-01  0.17124001305E+03  0.17124000000E+03 0.  1.
     -611    1    1    2    0    0  0.70702534003E-01 -0.16242648269E+00  0.34848728632E+01  0.34893724858E+01  0.51109989000E-03 0.  1.
      611    1    1    2    0    0 -0.11706103277E+00  0.17804886915E+00  0.17353777192E+01  0.17484109284E+01  0.51109989000E-03 0. -1.
</event>
<event>
 6   3  0.2312675E+03  0.9118800E+02  0.7818608E-02  0.1180000E+00
       11   -1    0    0    0    0  0.00000000000E+00  0.00000000000E+00  0.54999999763E+01  0.55000000000E+01  0.51109989000E-03 0.  1.
     -623   -1    0    0    0    0  0.00000000000E+00  0.00000000000E+00  0.93234578044E-11  0.17124000000E+03  0.17124000000E+03 0.  1.
       11    1    1    2    0    0  0.96708777969E-02  0.13749281353E-01  0.57155354782E+00  0.57180091628E+00  0.51109989000E-03 0.  1.
     -623    1    1    2    0    0 -0.74088686981E-01  0.44331981583E-02  0.71878290891E-03  0.17124001609E+03  0.17124000000E+03 0.  1.
     -611    1    1    2    0    0  0.56761055197E-01 -0.16773357303E-01  0.43543836827E+01  0.43547859511E+01  0.51109989000E-03 0.  1.
      611    1    1    2    0    0  0.76567539656E-02 -0.14091222023E-02  0.57334396120E+00  0.57339704444E+00  0.51109989000E-03 0.  1.
</event>
<event>
 6   3  0.2312675E+03  0.9118800E+02  0.7818608E-02  0.1180000E+00
       11   -1    0    0    0    0  0.00000000000E+00  0.00000000000E+00  0.54999999763E+01  0.55000000000E+01  0.51109989000E-03 0.  1.
     -623   -1    0    0    0    0  0.00000000000E+00  0.00000000000E+00  0.93234578044E-11  0.17124000000E+03  0.17124000000E+03 0. -1.
       11    1    1    2    0    0 -0.22340282102E-01  0.36577474971E-02  0.59080760162E+00  0.59124136414E+00  0.51109989000E-03 0.  1.
     -623    1    1    2    0    0 -0.33913241366E-02 -0.50872218462E-02  0.10804013678E-02  0.17124000011E+03  0.17124000000E+03 0. -1.
     -611    1    1    2    0    0 -0.13380650717E-01  0.27004829872E-01  0.13309656658E+01  0.13313069396E+01  0.51109989000E-03 0. -1.
      611    1    1    2    0    0  0.39112256956E-01 -0.25575355523E-01  0.35771463076E+01  0.35774515838E+01  0.51109989000E-03 0.  1.
</event>
<event>
 6   3  0.2312675E+03  0.9118800E+02  0.7818608E-02  0.1180000E+00
       11   -1    0    0    0    0  0.00000000000E+00  0.00000000000E+00  0.54999999763E+01  0.55000000000E+01  0.51109989000E-03 0. -1.
     -623   -1    0    0    0    0  0.00000000000E+00  0.00000000000E+00  0.93234578044E-11  0.17124000000E+03  0.17124000000E+03 0.  1.
       11    1    1    2    0    0  0.26274395157E-02 -0.76593069282E-02  0.76501402843E-01  0.76930450935E-01  0.51109989000E-03 0. -1.
     -623    1    1    2    0    0  0.37382645860E-04  0.25261893204E-02  0.17678828239E-02  0.17124000003E+03  0.17124000000E+03 0.  1.
     -611    1    1    2    0    0 -0.56148363917E-01 -0.71929539551E-02  0.17186211229E+01  0.17195531986E+01  0.51109989000E-03 0.  1.
      611    1    1    2    0    0  0.53483541755E-01  0.12326071563E-01  0.37031095676E+01  0.37035163227E+01  0.51109989000E-03 0. -1.
</event>
<event>
 6   3  0.2312675E+03  0.9118800E+02  0.7818608E-02  0.1180000E+00
       11   -1    0    0    0    0  0.00000000000E+00  0.00000000000E+00  0.54999999763E+01  0.55000000000E+01  0.51109989000E-03 0. -1.
     -623   -1    0    0    0    0  0.00000000000E+00  0.00000000000E+00  0.93234578044E-11  0.17124000000E+03  0.17124000000E+03 0.  1.
       11    1    1    2    0    0 -0.58714718343E-01  0.85360536986E-02  0.83951096652E+00  0.84160513692E+00  0.51109989000E-03 0. -1.
     -623    1    1    2    0    0 -0.46373076346E-03  0.20668272592E-02  0.24844033765E-02  0.17124000003E+03  0.17124000000E+03 0.  1.
     -611    1    1    2    0    0  0.22512943204E-01 -0.25108564571E-02  0.16344108283E+01  0.16345678799E+01  0.51109989000E-03 0. -1.
      611    1    1    2    0    0  0.36665505906E-01 -0.80920245015E-02  0.30235937784E+01  0.30238269524E+01  0.51109989000E-03 0.  1.
</event>
<event>
 6   3  0.2312675E+03  0.9118800E+02  0.7818608E-02  0.1180000E+00
       11   -1    0    0    0    0  0.00000000000E+00  0.00000000000E+00  0.54999999763E+01  0.55000000000E+01  0.51109989000E-03 0. -1.
     -623   -1    0    0    0    0  0.00000000000E+00  0.00000000000E+00  0.93234578044E-11  0.17124000000E+03  0.17124000000E+03 0.  1.
       11    1    1    2    0    0 -0.65029013703E-02  0.50251394241E-02  0.31614313039E-01  0.32669033724E-01  0.51109989000E-03 0. -1.
     -623    1    1    2    0    0  0.45159854936E-02 -0.59199946985E-02  0.23650533247E-02  0.17124000018E+03  0.17124000000E+03 0.  1.
     -611    1    1    2    0    0 -0.36863500978E-01  0.39600153369E-01  0.15859931675E+01  0.15869157755E+01  0.51109989000E-03 0. -1.
      611    1    1    2    0    0  0.38850416855E-01 -0.38705298095E-01  0.38800274424E+01  0.38804150126E+01  0.51109989000E-03 0.  1.
</event>
<event>
 6   3  0.2312675E+03  0.9118800E+02  0.7818608E-02  0.1180000E+00
       11   -1    0    0    0    0  0.00000000000E+00  0.00000000000E+00  0.54999999763E+01  0.55000000000E+01  0.51109989000E-03 0.  1.
     -623   -1    0    0    0    0  0.00000000000E+00  0.00000000000E+00  0.93234578044E-11  0.17124000000E+03  0.17124000000E+03 0.  1.
       11    1    1    2    0    0 -0.19154921388E-01  0.50473940722E-01  0.66152392922E+00  0.66372336094E+00  0.51109989000E-03 0.  1.
     -623    1    1    2    0    0 -0.59573950312E-01 -0.27439876994E-02  0.31526572851E-02  0.17124001041E+03  0.17124000000E+03 0.  1.
     -611    1    1    2    0    0  0.16398595507E-01 -0.17014348108E-02  0.56813194676E+00  0.56837133898E+00  0.51109989000E-03 0. -1.
      611    1    1    2    0    0  0.62330276193E-01 -0.46028518211E-01  0.42671914430E+01  0.42678948863E+01  0.51109989000E-03 0.  1.
</event>
<event>
 6   3  0.2312675E+03  0.9118800E+02  0.7818608E-02  0.1180000E+00
       11   -1    0    0    0    0  0.00000000000E+00  0.00000000000E+00  0.54999999763E+01  0.55000000000E+01  0.51109989000E-03 0. -1.
     -623   -1    0    0    0    0  0.00000000000E+00  0.00000000000E+00  0.93234578044E-11  0.17124000000E+03  0.17124000000E+03 0.  1.
       11    1    1    2    0    0 -0.15730200156E-02  0.41164293516E-03 -0.54769798739E-03  0.17902620083E-02  0.51109989000E-03 0. -1.
     -623    1    1    2    0    0  0.23653816112E-03  0.31838101786E-03  0.31852338018E-02  0.17124000003E+03  0.17124000000E+03 0.  1.
     -611    1    1    2    0    0 -0.42707599605E-01  0.18131660945E-01  0.32906719506E+01  0.32909990647E+01  0.51109989000E-03 0.  1.
      611    1    1    2    0    0  0.44044081459E-01 -0.18861684898E-01  0.22066904898E+01  0.22072106432E+01  0.51109989000E-03 0. -1.
</event>
<event>
 6   3  0.2312675E+03  0.9118800E+02  0.7818608E-02  0.1180000E+00
       11   -1    0    0    0    0  0.00000000000E+00  0.00000000000E+00  0.54999999763E+01  0.55000000000E+01  0.51109989000E-03 0. -1.
     -623   -1    0    0    0    0  0.00000000000E+00  0.00000000000E+00  0.93234578044E-11  0.17124000000E+03  0.17124000000E+03 0.  1.
       11    1    1    2    0    0 -0.21270040487E-02 -0.15059195774E-02  0.11555638031E-01  0.11856893918E-01  0.51109989000E-03 0. -1.
     -623    1    1    2    0    0  0.15525548325E-02  0.56958299461E-03  0.15439875266E-02  0.17124000001E+03  0.17124000000E+03 0.  1.
     -611    1    1    2    0    0  0.36684984241E-01  0.44802269430E-01  0.22555077150E+01  0.22562509490E+01  0.51109989000E-03 0. -1.
      611    1    1    2    0    0 -0.36110535025E-01 -0.43865932847E-01  0.32313926356E+01  0.32318921420E+01  0.51109989000E-03 0.  1.
</event>
<event>
 6   3  0.2312675E+03  0.9118800E+02  0.7818608E-02  0.1180000E+00
       11   -1    0    0    0    0  0.00000000000E+00  0.00000000000E+00  0.54999999763E+01  0.55000000000E+01  0.51109989000E-03 0. -1.
     -623   -1    0    0    0    0  0.00000000000E+00  0.00000000000E+00  0.93234578044E-11  0.17124000000E+03  0.17124000000E+03 0.  1.
       11    1    1    2    0    0  0.85576174524E-01  0.12122070560E-01  0.10625383247E+01  0.10660479253E+01  0.51109989000E-03 0. -1.
     -623    1    1    2    0    0 -0.52934241640E-02  0.11337750654E-01  0.43194076395E-02  0.17124000051E+03  0.17124000000E+03 0.  1.
     -611    1    1    2    0    0 -0.72970101664E-01 -0.19156373486E-01  0.37697617519E+01  0.37705166131E+01  0.51109989000E-03 0. -1.
      611    1    1    2    0    0 -0.73126486970E-02 -0.43034477286E-02  0.66338049207E+00  0.66343495007E+00  0.51109989000E-03 0.  1.
</event>
<event>
 6   3  0.2312675E+03  0.9118800E+02  0.7818608E-02  0.1180000E+00
       11   -1    0    0    0    0  0.00000000000E+00  0.00000000000E+00  0.54999999763E+01  0.55000000000E+01  0.51109989000E-03 0.  1.
     -623   -1    0    0    0    0  0.00000000000E+00  0.00000000000E+00  0.93234578044E-11  0.17124000000E+03  0.17124000000E+03 0. -1.
       11    1    1    2    0    0  0.77112964193E-01  0.18859629158E-01  0.23659510143E+00  0.24955880690E+00  0.51109989000E-03 0.  1.
     -623    1    1    2    0    0 -0.36960106319E-02  0.92257752520E-02  0.14306086561E-01  0.17124000089E+03  0.17124000000E+03 0. -1.
     -611    1    1    2    0    0  0.17278868137E-01 -0.19221028160E-01  0.15715592436E+01  0.15717718424E+01  0.51109989000E-03 0. -1.
      611    1    1    2    0    0 -0.90695821698E-01 -0.88643762500E-02  0.36775395447E+01  0.36786684647E+01  0.51109989000E-03 0.  1.
</event>
<event>
 6   3  0.2312675E+03  0.9118800E+02  0.7818608E-02  0.1180000E+00
       11   -1    0    0    0    0  0.00000000000E+00  0.00000000000E+00  0.54999999763E+01  0.55000000000E+01  0.51109989000E-03 0.  1.
     -623   -1    0    0    0    0  0.00000000000E+00  0.00000000000E+00  0.93234578044E-11  0.17124000000E+03  0.17124000000E+03 0.  1.
       11    1    1    2    0    0 -0.73354451254E-01 -0.86488364257E-01  0.53074432624E+00  0.54272544968E+00  0.51109989000E-03 0.  1.
     -623    1    1    2    0    0 -0.20021981614E-01  0.47844190173E-01  0.13022070032E-01  0.17124000835E+03  0.17124000000E+03 0.  1.
     -611    1    1    2    0    0  0.82942528154E-01  0.34583936688E-01  0.43318403929E+01  0.43327724337E+01  0.51109989000E-03 0.  1.
      611    1    1    2    0    0  0.10433904704E-01  0.40602373918E-02  0.62439318660E+00  0.62449376666E+00  0.51109989000E-03 0. -1.
</event>
<event>
 6   3  0.2312675E+03  0.9118800E+02  0.7818608E-02  0.1180000E+00
       11   -1    0    0    0    0  0.00000000000E+00  0.00000000000E+00  0.54999999763E+01  0.55000000000E+01  0.51109989000E-03 0. -1.
     -623   -1    0    0    0    0  0.00000000000E+00  0.00000000000E+00  0.93234578044E-11  0.17124000000E+03  0.17124000000E+03 0. -1.
       11    1    1    2    0    0 -0.43599210233E-01 -0.61290287906E-01  0.47356844084E+00  0.47950466098E+00  0.51109989000E-03 0. -1.
     -623    1    1    2    0    0 -0.35970126843E-01  0.52386794467E-02  0.68898083690E-02  0.17124000400E+03  0.17124000000E+03 0. -1.
     -611    1    1    2    0    0  0.76689412045E-02  0.76936580582E-02  0.64183602105E+00  0.64192814565E+00  0.51109989000E-03 0. -1.
      611    1    1    2    0    0  0.71900395871E-01  0.48357950401E-01  0.43777057060E+01  0.43785631967E+01  0.51109989000E-03 0.  1.
</event>
<event>
 6   3  0.2312675E+03  0.9118800E+02  0.7818608E-02  0.1180000E+00
       11   -1    0    0    0    0  0.00000000000E+00  0.00000000000E+00  0.54999999763E+01  0.55000000000E+01  0.51109989000E-03 0. -1.
     -623   -1    0    0    0    0  0.00000000000E+00  0.00000000000E+00  0.93234578044E-11  0.17124000000E+03  0.17124000000E+03 0. -1.
       11    1    1    2    0    0  0.73376987171E-03 -0.10626563479E-03  0.59620152232E-03  0.10799953530E-02  0.51109989000E-03 0. -1.
     -623    1    1    2    0    0 -0.80288383347E-03  0.17401742253E-02  0.95439999279E-03  0.17124000001E+03  0.17124000000E+03 0. -1.
     -611    1    1    2    0    0 -0.34044019949E-01  0.10604653044E-01  0.28119747006E+01  0.28122008164E+01  0.51109989000E-03 0.  1.
      611    1    1    2    0    0  0.34113133911E-01 -0.12238561635E-01  0.26864746740E+01  0.26867191747E+01  0.51109989000E-03 0. -1.
</event>
<event>
 6   3  0.2312675E+03  0.9118800E+02  0.7818608E-02  0.1180000E+00
       11   -1    0    0    0    0  0.00000000000E+00  0.00000000000E+00  0.54999999763E+01  0.55000000000E+01  0.51109989000E-03 0. -1.
     -623   -1    0    0    0    0  0.00000000000E+00  0.00000000000E+00  0.93234578044E-11  0.17124000000E+03  0.17124000000E+03 0. -1.
       11    1    1    2    0    0  0.22687544528E-02  0.27142671247E-02  0.39378748691E-01  0.39540631815E-01  0.51109989000E-03 0. -1.
     -623    1    1    2    0    0  0.20391823695E-02 -0.16724329342E-02  0.16495320910E-02  0.17124000003E+03  0.17124000000E+03 0. -1.
     -611    1    1    2    0    0 -0.56548720749E-01 -0.26568957684E-01  0.19364069825E+01  0.19374147543E+01  0.51109989000E-03 0.  1.
      611    1    1    2    0    0  0.52240783926E-01  0.25527123493E-01  0.35225647130E+01  0.35230445856E+01  0.51109989000E-03 0. -1.
</event>
<event>
 6   3  0.2312675E+03  0.9118800E+02  0.7818608E-02  0.1180000E+00
       11   -1    0    0    0    0  0.00000000000E+00  0.00000000000E+00  0.54999999763E+01  0.55000000000E+01  0.51109989000E-03 0.  1.
     -623   -1    0    0    0    0  0.00000000000E+00  0.00000000000E+00  0.93234578044E-11  0.17124000000E+03  0.17124000000E+03 0. -1.
       11    1    1    2    0    0  0.22328807261E-02  0.87842204817E-02  0.54058963912E-01  0.54815883539E-01  0.51109989000E-03 0.  1.
     -623    1    1    2    0    0  0.11031530668E-01 -0.23037833310E-01  0.12612117767E-02  0.17124000191E+03  0.17124000000E+03 0. -1.
     -611    1    1    2    0    0  0.29624664748E-01  0.65220569213E-02  0.21414045975E+01  0.21416194969E+01  0.51109989000E-03 0.  1.
      611    1    1    2    0    0 -0.42889076141E-01  0.77315559068E-02  0.33032752030E+01  0.33035627098E+01  0.51109989000E-03 0. -1.
</event>
<event>
 6   3  0.2312675E+03  0.9118800E+02  0.7818608E-02  0.1180000E+00
       11   -1    0    0    0    0  0.00000000000E+00  0.00000000000E+00  0.54999999763E+01  0.55000000000E+01  0.51109989000E-03 0. -1.
     -623   -1    0    0    0    0  0.00000000000E+00  0.00000000000E+00  0.93234578044E-11  0.17124000000E+03  0.17124000000E+03 0. -1.
       11    1    1    2    0    0 -0.34764932510E-01 -0.36577861435E-01  0.33964839571E+00  0.34337710234E+00  0.51109989000E-03 0. -1.
     -623    1    1    2    0    0 -0.91244516128E-02  0.10418591329E-01  0.70953875659E-02  0.17124000071E+03  0.17124000000E+03 0. -1.
     -611    1    1    2    0    0  0.94337745185E-01 -0.38937149156E-01  0.24839403191E+01  0.24860360982E+01  0.51109989000E-03 0. -1.
      611    1    1    2    0    0 -0.50448361062E-01  0.65096419262E-01  0.26693158739E+01  0.26705860924E+01  0.51109989000E-03 0.  1.
</event>
<event>
 6   3  0.2312675E+03  0.9118800E+02  0.7818608E-02  0.1180000E+00
       11   -1    0    0    0    0  0.00000000000E+00  0.00000000000E+00  0.54999999763E+01  0.55000000000E+01  0.51109989000E-03 0. -1.
     -623   -1    0    0    0    0  0.00000000000E+00  0.00000000000E+00  0.93234578044E-11  0.17124000000E+03  0.17124000000E+03 0.  1.
       11    1    1    2    0    0  0.40455465537E-02  0.54514073972E-02  0.10433823052E+01  0.10434045142E+01  0.51109989000E-03 0. -1.
     -623    1    1    2    0    0 -0.81541979803E-02 -0.16762984396E-01  0.47870819059E-03  0.17124000102E+03  0.17124000000E+03 0.  1.
     -611    1    1    2    0    0 -0.28643012892E-01  0.30732024442E-02  0.24739086944E+01  0.24740764654E+01  0.51109989000E-03 0. -1.
      611    1    1    2    0    0  0.32751664318E-01  0.82383745533E-02  0.19822302682E+01  0.19825180049E+01  0.51109989000E-03 0.  1.
</event>
<event>
 6   3  0.2312675E+03  0.9118800E+02  0.7818608E-02  0.1180000E+00
       11   -1    0    0    0    0  0.00000000000E+00  0.00000000000E+00  0.54999999763E+01  0.55000000000E+01  0.51109989000E-03 0.  1.
     -623   -1    0    0    0    0  0.00000000000E+00  0.00000000000E+00  0.93234578044E-11  0.17124000000E+03  0.17124000000E+03 0. -1.
       11    1    1    2    0    0 -0.29290817741E-01 -0.79781113623E-02  0.55197962076E+00  0.55281404218E+00  0.51109989000E-03 0.  1.
     -623    1    1    2    0    0 -0.46511952578E-01  0.28542406073E-01  0.15046040490E-02  0.17124000870E+03  0.17124000000E+03 0. -1.
     -611    1    1    2    0    0  0.39307729965E-01 -0.42968572311E-02  0.29181026455E+01  0.29183705850E+01  0.51109989000E-03 0.  1.
      611    1    1    2    0    0  0.36495040354E-01 -0.16267437480E-01  0.20284131059E+01  0.20288066706E+01  0.51109989000E-03 0. -1.
</event>
<event>
 6   3  0.2312675E+03  0.9118800E+02  0.7818608E-02  0.1180000E+00
       11   -1    0    0    0    0  0.00000000000E+00  0.00000000000E+00  0.54999999763E+01  0.55000000000E+01  0.51109989000E-03 0.  1.
     -623   -1    0    0    0    0  0.00000000000E+00  0.00000000000E+00  0.93234578044E-11  0.17124000000E+03  0.17124000000E+03 0.  1.
       11    1    1    2    0    0 -0.19609495169E-02  0.27699042993E-02  0.49793616523E-02  0.60475580524E-02  0.51109989000E-03 0.  1.
     -623    1    1    2    0    0  0.19802470760E-01  0.13112039322E-02  0.66685255705E-02  0.17124000128E+03  0.17124000000E+03 0.  1.
     -611    1    1    2    0    0  0.10113813024E+00  0.16952283120E-02  0.13092803431E+01  0.13131820411E+01  0.51109989000E-03 0. -1.
      611    1    1    2    0    0 -0.11897965148E+00 -0.57763365436E-02  0.41790717460E+01  0.41807691210E+01  0.51109989000E-03 0.  1.
</event>
<event>
 6   3  0.2312675E+03  0.9118800E+02  0.7818608E-02  0.1180000E+00
       11   -1    0    0    0    0  0.00000000000E+00  0.00000000000E+00  0.54999999763E+01  0.55000000000E+01  0.51109989000E-03 0. -1.
     -623   -1    0    0    0    0  0.00000000000E+00  0.00000000000E+00  0.93234578044E-11  0.17124000000E+03  0.17124000000E+03 0. -1.
       11    1    1    2    0    0  0.18945568032E-01  0.34515971766E-02  0.63803365478E+00  0.63832441119E+00  0.51109989000E-03 0. -1.
     -623    1    1    2    0    0 -0.55784741429E-02 -0.89277853636E-02  0.11883642865E-02  0.17124000033E+03  0.17124000000E+03 0. -1.
     -611    1    1    2    0    0  0.39096686942E-01 -0.35530887483E-02  0.17367137827E+01  0.17371575057E+01  0.51109989000E-03 0.  1.
      611    1    1    2    0    0 -0.52463780831E-01  0.90292769354E-02  0.31240641746E+01  0.31245177555E+01  0.51109989000E-03 0. -1.
</event>
<event>
 6   3  0.2312675E+03  0.9118800E+02  0.7818608E-02  0.1180000E+00
       11   -1    0    0    0    0  0.00000000000E+00  0.00000000000E+00  0.54999999763E+01  0.55000000000E+01  0.51109989000E-03 0. -1.
     -623   -1    0    0    0    0  0.00000000000E+00  0.00000000000E+00  0.93234578044E-11  0.17124000000E+03  0.17124000000E+03 0.  1.
       11    1    1    2    0    0 -0.18169555311E-02 -0.63416788374E-02  0.30728173205E-01  0.31432468396E-01  0.51109989000E-03 0. -1.
     -623    1    1    2    0    0 -0.15016184599E-02 -0.45131452462E-02  0.36849531999E-02  0.17124000011E+03  0.17124000000E+03 0.  1.
     -611    1    1    2    0    0  0.65941620647E-01  0.66047802680E-01  0.34302888292E+01  0.34315582936E+01  0.51109989000E-03 0. -1.
      611    1    1    2    0    0 -0.62623046656E-01 -0.55192978596E-01  0.20352980207E+01  0.20370091323E+01  0.51109989000E-03 0.  1.
</event>
<event>
 6   3  0.2361037E+03  0.9118800E+02  0.7818608E-02  0.1180000E+00
       11   -1    0    0    0    0  0.00000000000E+00  0.00000000000E+00  0.54999999763E+01  0.55000000000E+01  0.51109989000E-03 0.  1.
     -623   -1    0    0    0    0  0.00000000000E+00  0.00000000000E+00  0.93234578044E-11  0.17124000000E+03  0.17124000000E+03 0.  1.
       11    1    1    2    0    0 -0.26026742504E-02 -0.60831513833E-02  0.25379925811E+00  0.25388600451E+00  0.51109989000E-03 0.  1.
     -623    1    1    2    0    0  0.20847304700E-02  0.90252143041E-02  0.45518300911E-03  0.17124000025E+03  0.17124000000E+03 0.  1.
     -611    1    1    2    0    0  0.28464942556E-01  0.11387696383E-01  0.27254214421E+01  0.27255939226E+01  0.51109989000E-03 0.  1.
      611    1    1    2    0    0 -0.27946998775E-01 -0.14329759304E-01  0.25203240931E+01  0.25205198218E+01  0.51109989000E-03 0. -1.
</event>
<event>
 6   3  0.2312675E+03  0.9118800E+02  0.7818608E-02  0.1180000E+00
       11   -1    0    0    0    0  0.00000000000E+00  0.00000000000E+00  0.54999999763E+01  0.55000000000E+01  0.51109989000E-03 0.  1.
     -623   -1    0    0    0    0  0.00000000000E+00  0.00000000000E+00  0.93234578044E-11  0.17124000000E+03  0.17124000000E+03 0. -1.
       11    1    1    2    0    0  0.79659468581E-02  0.46964863904E-02  0.10501853971E-02  0.93208050203E-02  0.51109989000E-03 0.  1.
     -623    1    1    2    0    0  0.15198463247E-01 -0.29577741990E-01  0.92424685412E-02  0.17124000348E+03  0.17124000000E+03 0. -1.
     -611    1    1    2    0    0  0.31069779960E-01  0.25774328319E-02  0.80843061053E+00  0.80903169756E+00  0.51109989000E-03 0. -1.
      611    1    1    2    0    0 -0.54234190064E-01  0.22303822768E-01  0.46812767118E+01  0.46816440191E+01  0.51109989000E-03 0.  1.
</event>
<event>
 6   3  0.2312675E+03  0.9118800E+02  0.7818608E-02  0.1180000E+00
       11   -1    0    0    0    0  0.00000000000E+00  0.00000000000E+00  0.54999999763E+01  0.55000000000E+01  0.51109989000E-03 0.  1.
     -623   -1    0    0    0    0  0.00000000000E+00  0.00000000000E+00  0.93234578044E-11  0.17124000000E+03  0.17124000000E+03 0. -1.
       11    1    1    2    0    0 -0.52400196450E-01  0.21861487881E+00  0.69764589679E+00  0.73297223982E+00  0.51109989000E-03 0.  1.
     -623    1    1    2    0    0 -0.40364839824E-01 -0.16413980027E-01  0.40857810221E-01  0.17124001042E+03  0.17124000000E+03 0. -1.
     -611    1    1    2    0    0  0.32726576207E-01 -0.10000545489E+00  0.17229715414E+01  0.17261817151E+01  0.51109989000E-03 0. -1.
      611    1    1    2    0    0  0.60038460067E-01 -0.10219544390E+00  0.30385247278E+01  0.30408356267E+01  0.51109989000E-03 0.  1.
</event>
<event>
 6   3  0.2312675E+03  0.9118800E+02  0.7818608E-02  0.1180000E+00
       11   -1    0    0    0    0  0.00000000000E+00  0.00000000000E+00  0.54999999763E+01  0.55000000000E+01  0.51109989000E-03 0.  1.
     -623   -1    0    0    0    0  0.00000000000E+00  0.00000000000E+00  0.93234578044E-11  0.17124000000E+03  0.17124000000E+03 0. -1.
       11    1    1    2    0    0  0.54115020201E-01  0.23304836775E-01  0.83948305267E+00  0.84154833953E+00  0.51109989000E-03 0.  1.
     -623    1    1    2    0    0 -0.22229681762E-03  0.13186347417E-01  0.25226218640E-02  0.17124000053E+03  0.17124000000E+03 0. -1.
     -611    1    1    2    0    0 -0.46103054832E-01 -0.32639990809E-01  0.40918199905E+01  0.40922099111E+01  0.51109989000E-03 0.  1.
      611    1    1    2    0    0 -0.77896685503E-02 -0.38511933822E-02  0.56617431111E+00  0.56624122281E+00  0.51109989000E-03 0. -1.
</event>
<event>
 6   3  0.2312675E+03  0.9118800E+02  0.7818608E-02  0.1180000E+00
       11   -1    0    0    0    0  0.00000000000E+00  0.00000000000E+00  0.54999999763E+01  0.55000000000E+01  0.51109989000E-03 0.  1.
     -623   -1    0    0    0    0  0.00000000000E+00  0.00000000000E+00  0.93234578044E-11  0.17124000000E+03  0.17124000000E+03 0.  1.
       11    1    1    2    0    0 -0.14430618626E-02 -0.60044477364E-02  0.22670183158E-01  0.23501792435E-01  0.51109989000E-03 0.  1.
     -623    1    1    2    0    0 -0.30590290421E-02  0.49503069990E-02  0.13687422873E-02  0.17124000010E+03  0.17124000000E+03 0.  1.
     -611    1    1    2    0    0  0.38648261829E-01  0.23939368917E-02  0.37412851221E+01  0.37414855399E+01  0.51109989000E-03 0.  1.
      611    1    1    2    0    0 -0.34146170924E-01 -0.13397961543E-02  0.17346759287E+01  0.17350125633E+01  0.51109989000E-03 0. -1.
</event>
<event>
 6   3  0.2312675E+03  0.9118800E+02  0.7818608E-02  0.1180000E+00
       11   -1    0    0    0    0  0.00000000000E+00  0.00000000000E+00  0.54999999763E+01  0.55000000000E+01  0.51109989000E-03 0.  1.
     -623   -1    0    0    0    0  0.00000000000E+00  0.00000000000E+00  0.93234578044E-11  0.17124000000E+03  0.17124000000E+03 0.  1.
       11    1    1    2    0    0  0.76960481571E-02  0.74741250606E-02  0.11265852674E+00  0.11316932700E+00  0.51109989000E-03 0.  1.
     -623    1    1    2    0    0 -0.44305394063E-02 -0.10975211247E-02  0.11150018490E-02  0.17124000006E+03  0.17124000000E+03 0.  1.
     -611    1    1    2    0    0  0.33267000504E-01 -0.22208509997E-01  0.30903332763E+01  0.30905921651E+01  0.51109989000E-03 0.  1.
      611    1    1    2    0    0 -0.36532509255E-01  0.15831906061E-01  0.22958931713E+01  0.22962384434E+01  0.51109989000E-03 0. -1.
</event>
<event>
 6   3  0.2312675E+03  0.9118800E+02  0.7818608E-02  0.1180000E+00
       11   -1    0    0    0    0  0.00000000000E+00  0.00000000000E+00  0.54999999763E+01  0.55000000000E+01  0.51109989000E-03 0.  1.
     -623   -1    0    0    0    0  0.00000000000E+00  0.00000000000E+00  0.93234578044E-11  0.17124000000E+03  0.17124000000E+03 0. -1.
       11    1    1    2    0    0  0.70091626171E-01 -0.55166562209E-04  0.74631447335E+00  0.74959882168E+00  0.51109989000E-03 0.  1.
     -623    1    1    2    0    0 -0.57351976699E-02  0.57393879654E-02  0.37270002859E-02  0.17124000023E+03  0.17124000000E+03 0. -1.
     -611    1    1    2    0    0 -0.20760887752E-01 -0.21100485919E-02  0.17205828873E+01  0.17207095049E+01  0.51109989000E-03 0. -1.
      611    1    1    2    0    0 -0.43595540745E-01 -0.35741728110E-02  0.30293756150E+01  0.30296914404E+01  0.51109989000E-03 0.  1.
</event>
<event>
 6   3  0.2312675E+03  0.9118800E+02  0.7818608E-02  0.1180000E+00
       11   -1    0    0    0    0  0.00000000000E+00  0.00000000000E+00  0.54999999763E+01  0.55000000000E+01  0.51109989000E-03 0.  1.
     -623   -1    0    0    0    0  0.00000000000E+00  0.00000000000E+00  0.93234578044E-11  0.17124000000E+03  0.17124000000E+03 0. -1.
       11    1    1    2    0    0  0.72671928847E-01 -0.50377614047E-01  0.80794996589E+00  0.81277458243E+00  0.51109989000E-03 0.  1.
     -623    1    1    2    0    0  0.39900407765E-01 -0.41165506216E-01  0.74744021770E-02  0.17124000976E+03  0.17124000000E+03 0. -1.
     -611    1    1    2    0    0 -0.10754997078E-01 -0.17671333025E-02  0.98920676366E+00  0.98926693830E+00  0.51109989000E-03 0. -1.
      611    1    1    2    0    0 -0.10181733953E+00  0.93310253566E-01  0.36953688445E+01  0.36979487196E+01  0.51109989000E-03 0.  1.
</event>
<event>
 6   3  0.2312675E+03  0.9118800E+02  0.7818608E-02  0.1180000E+00
       11   -1    0    0    0    0  0.00000000000E+00  0.00000000000E+00  0.54999999763E+01  0.55000000000E+01  0.51109989000E-03 0. -1.
     -623   -1    0    0    0    0  0.00000000000E+00  0.00000000000E+00  0.93234578044E-11  0.17124000000E+03  0.17124000000E+03 0.  1.
       11    1    1    2    0    0  0.11369105113E-01 -0.61300751303E-02  0.88957062869E+00  0.88966454298E+00  0.51109989000E-03 0. -1.
     -623    1    1    2    0    0 -0.57896625900E-01  0.16791373926E-01  0.35182671429E-03  0.17124001061E+03  0.17124000000E+03 0.  1.
     -611    1    1    2    0    0  0.14763033912E-01 -0.29803549740E-02  0.14638904494E+01  0.14639680115E+01  0.51109989000E-03 0. -1.
      611    1    1    2    0    0  0.31764486955E-01 -0.76809438452E-02  0.31461870790E+01  0.31463568419E+01  0.51109989000E-03 0. -1.
</event>
<event>
 6   3  0.2312675E+03  0.9118800E+02  0.7818608E-02  0.1180000E+00
       11   -1    0    0    0    0  0.00000000000E+00  0.00000000000E+00  0.54999999763E+01  0.55000000000E+01  0.51109989000E-03 0. -1.
     -623   -1    0    0    0    0  0.00000000000E+00  0.00000000000E+00  0.93234578044E-11  0.17124000000E+03  0.17124000000E+03 0.  1.
       11    1    1    2    0    0  0.62598536030E-01  0.29438417797E-01  0.46934684710E+00  0.47441745463E+00  0.51109989000E-03 0. -1.
     -623    1    1    2    0    0  0.20317039445E-02 -0.14005234449E-01  0.55108642763E-02  0.17124000067E+03  0.17124000000E+03 0.  1.
     -611    1    1    2    0    0 -0.32453351355E-01 -0.81677447955E-02  0.24857433599E+01  0.24859686733E+01  0.51109989000E-03 0. -1.
      611    1    1    2    0    0 -0.32176888656E-01 -0.72654385608E-02  0.25393989078E+01  0.25396132014E+01  0.51109989000E-03 0. -1.
</event>
<event>
 6   3  0.2312675E+03  0.9118800E+02  0.7818608E-02  0.1180000E+00
       11   -1    0    0    0    0  0.00000000000E+00  0.00000000000E+00  0.54999999763E+01  0.55000000000E+01  0.51109989000E-03 0.  1.
     -623   -1    0    0    0    0  0.00000000000E+00  0.00000000000E+00  0.93234578044E-11  0.17124000000E+03  0.17124000000E+03 0.  1.
       11    1    1    2    0    0  0.22932798755E-01 -0.39948744365E-01  0.58073546098E+00  0.58255965557E+00  0.51109989000E-03 0.  1.
     -623    1    1    2    0    0  0.10286407992E+00  0.13294303954E+00  0.43959085493E-02  0.17124008256E+03  0.17124000000E+03 0.  1.
     -611    1    1    2    0    0 -0.87936781934E-01 -0.64868315518E-01  0.34286302800E+01  0.34303712094E+01  0.51109989000E-03 0.  1.
      611    1    1    2    0    0 -0.37860096675E-01 -0.28125979600E-01  0.14862383240E+01  0.14869865751E+01  0.51109989000E-03 0.  1.
</event>
<event>
 6   3  0.2312675E+03  0.9118800E+02  0.7818608E-02  0.1180000E+00
       11   -1    0    0    0    0  0.00000000000E+00  0.00000000000E+00  0.54999999763E+01  0.55000000000E+01  0.51109989000E-03 0.  1.
     -623   -1    0    0    0    0  0.00000000000E+00  0.00000000000E+00  0.93234578044E-11  0.17124000000E+03  0.17124000000E+03 0.  1.
       11    1    1    2    0    0 -0.53355359721E-01  0.61972178427E-02  0.52009573920E+00  0.52286235194E+00  0.51109989000E-03 0.  1.
     -623    1    1    2    0    0 -0.16326621212E-01 -0.17303685138E-03  0.32593257121E-02  0.17124000081E+03  0.17124000000E+03 0.  1.
     -611    1    1    2    0    0  0.34391966482E-01 -0.24572145468E-02  0.25100751904E+01  0.25103120460E+01  0.51109989000E-03 0.  1.
      611    1    1    2    0    0  0.35290014449E-01 -0.35669664443E-02  0.24665697208E+01  0.24668247925E+01  0.51109989000E-03 0.  1.
</event>
<event>
 6   3  0.2827585E+03  0.9118800E+02  0.7818608E-02  0.1180000E+00
       11   -1    0    0    0    0  0.00000000000E+00  0.00000000000E+00  0.54999999763E+01  0.55000000000E+01  0.51109989000E-03 0. -1.
     -623   -1    0    0    0    0  0.00000000000E+00  0.00000000000E+00  0.93234578044E-11  0.17124000000E+03  0.17124000000E+03 0.  1.
       11    1    1    2    0    0 -0.65183971688E-03 -0.96521129891E-03  0.84644555610E-01  0.84654111213E-01  0.51109989000E-03 0. -1.
     -623    1    1    2    0    0  0.14166093168E-03 -0.98606264564E-03  0.32352397116E-03  0.17124000000E+03  0.17124000000E+03 0.  1.
     -611    1    1    2    0    0 -0.28592782619E-01 -0.28365479445E-02  0.25317577652E+01  0.25319208589E+01  0.51109989000E-03 0.  1.
      611    1    1    2    0    0  0.29102961405E-01  0.47878218891E-02  0.28832741316E+01  0.28834250267E+01  0.51109989000E-03 0. -1.
</event>
<event>
 6   3  0.2312675E+03  0.9118800E+02  0.7818608E-02  0.1180000E+00
       11   -1    0    0    0    0  0.00000000000E+00  0.00000000000E+00  0.54999999763E+01  0.55000000000E+01  0.51109989000E-03 0. -1.
     -623   -1    0    0    0    0  0.00000000000E+00  0.00000000000E+00  0.93234578044E-11  0.17124000000E+03  0.17124000000E+03 0.  1.
       11    1    1    2    0    0 -0.54252509191E-01 -0.86080466383E-02  0.10157167838E+01  0.10172011990E+01  0.51109989000E-03 0. -1.
     -623    1    1    2    0    0  0.64122227657E-02 -0.53998148377E-02  0.17620625951E-02  0.17124000021E+03  0.17124000000E+03 0.  1.
     -611    1    1    2    0    0  0.80527849102E-02  0.26619202827E-02  0.75185875433E+00  0.75190676340E+00  0.51109989000E-03 0.  1.
      611    1    1    2    0    0  0.39787501481E-01  0.11345941183E-01  0.37306623724E+01  0.37308918202E+01  0.51109989000E-03 0.  1.
</event>
<event>
 6   3  0.2312675E+03  0.9118800E+02  0.7818608E-02  0.1180000E+00
       11   -1    0    0    0    0  0.00000000000E+00  0.00000000000E+00  0.54999999763E+01  0.55000000000E+01  0.51109989000E-03 0. -1.
     -623   -1    0    0    0    0  0.00000000000E+00  0.00000000000E+00  0.93234578044E-11  0.17124000000E+03  0.17124000000E+03 0.  1.
       11    1    1    2    0    0 -0.10875325089E-01  0.10926143509E-01  0.51590024148E-01  0.53846495916E-01  0.51109989000E-03 0. -1.
     -623    1    1    2    0    0  0.64920061153E-02  0.85489503609E-02  0.44057164498E-02  0.17124000039E+03  0.17124000000E+03 0.  1.
     -611    1    1    2    0    0  0.39300700822E-01 -0.70127126993E-01  0.20245214352E+01  0.20261168925E+01  0.51109989000E-03 0. -1.
      611    1    1    2    0    0 -0.34917381849E-01  0.50652033123E-01  0.34194828004E+01  0.34200362185E+01  0.51109989000E-03 0.  1.
</event>
<event>
 6   3  0.2312675E+03  0.9118800E+02  0.7818608E-02  0.1180000E+00
       11   -1    0    0    0    0  0.00000000000E+00  0.00000000000E+00  0.54999999763E+01  0.55000000000E+01  0.51109989000E-03 0. -1.
     -623   -1    0    0    0    0  0.00000000000E+00  0.00000000000E+00  0.93234578044E-11  0.17124000000E+03  0.17124000000E+03 0.  1.
       11    1    1    2    0    0  0.67417079218E-01 -0.25973865632E-01  0.55714527537E+00  0.56181030906E+00  0.51109989000E-03 0. -1.
     -623    1    1    2    0    0  0.27633486633E-02 -0.38722067832E-01  0.15888590274E-01  0.17124000514E+03  0.17124000000E+03 0.  1.
     -611    1    1    2    0    0  0.95252291500E-01  0.69140229012E-01  0.34443823155E+01  0.34463927760E+01  0.51109989000E-03 0. -1.
      611    1    1    2    0    0 -0.16543271938E+00 -0.44442955484E-02  0.14825837952E+01  0.14917917775E+01  0.51109989000E-03 0.  1.
</event>
<event>
 6   3  0.2312675E+03  0.9118800E+02  0.7818608E-02  0.1180000E+00
       11   -1    0    0    0    0  0.00000000000E+00  0.00000000000E+00  0.54999999763E+01  0.55000000000E+01  0.51109989000E-03 0.  1.
     -623   -1    0    0    0    0  0.00000000000E+00  0.00000000000E+00  0.93234578044E-11  0.17124000000E+03  0.17124000000E+03 0.  1.
       11    1    1    2    0    0  0.25710878560E-02  0.11506234482E-02  0.21635947225E-03  0.28709687566E-02  0.51109989000E-03 0.  1.
     -623    1    1    2    0    0 -0.10045151141E-01  0.73160223072E-02  0.34443311083E-02  0.17124000049E+03  0.17124000000E+03 0.  1.
     -611    1    1    2    0    0  0.45192462459E-01 -0.50061152467E-02  0.41715030001E+01  0.41717508268E+01  0.51109989000E-03 0.  1.
      611    1    1    2    0    0 -0.37718399174E-01 -0.34605305087E-02  0.13248362856E+01  0.13253777189E+01  0.51109989000E-03 0. -1.
</event>
<event>
 6   3  0.2312675E+03  0.9118800E+02  0.7818608E-02  0.1180000E+00
       11   -1    0    0    0    0  0.00000000000E+00  0.00000000000E+00  0.54999999763E+01  0.55000000000E+01  0.51109989000E-03 0. -1.
     -623   -1    0    0    0    0  0.00000000000E+00  0.00000000000E+00  0.93234578044E-11  0.17124000000E+03  0.17124000000E+03 0. -1.
       11    1    1    2    0    0  0.36958919840E-01  0.14145700173E-01  0.10635914727E+01  0.10643275551E+01  0.51109989000E-03 0. -1.
     -623    1    1    2    0    0  0.13969401739E-02 -0.69412127199E-02  0.15910906751E-02  0.17124000015E+03  0.17124000000E+03 0. -1.
     -611    1    1    2    0    0  0.20561316521E-01 -0.16774734615E-01  0.16671820310E+01  0.16673932785E+01  0.51109989000E-03 0.  1.
      611    1    1    2    0    0 -0.58917176534E-01  0.95702471623E-02  0.27676353820E+01  0.27682790127E+01  0.51109989000E-03 0. -1.
</event>
<event>
 6   3  0.2312675E+03  0.9118800E+02  0.7818608E-02  0.1180000E+00
       11   -1    0    0    0    0  0.00000000000E+00  0.00000000000E+00  0.54999999763E+01  0.55000000000E+01  0.51109989000E-03 0.  1.
     -623   -1    0    0    0    0  0.00000000000E+00  0.00000000000E+00  0.93234578044E-11  0.17124000000E+03  0.17124000000E+03 0.  1.
       11    1    1    2    0    0  0.26294729407E-01  0.33364103474E-01  0.34111061349E+00  0.34374596442E+00  0.51109989000E-03 0.  1.
     -623    1    1    2    0    0 -0.67224173970E-02 -0.29793779377E-01  0.32380483926E-02  0.17124000275E+03  0.17124000000E+03 0.  1.
     -611    1    1    2    0    0 -0.42164621321E-01  0.19408747845E-01  0.30770917215E+01  0.30774418400E+01  0.51109989000E-03 0.  1.
      611    1    1    2    0    0  0.22592309311E-01 -0.22979071941E-01  0.20785595929E+01  0.20788094412E+01  0.51109989000E-03 0. -1.
</event>
<event>
 6   3  0.2312675E+03  0.9118800E+02  0.7818608E-02  0.1180000E+00
       11   -1    0    0    0    0  0.00000000000E+00  0.00000000000E+00  0.54999999763E+01  0.55000000000E+01  0.51109989000E-03 0. -1.
     -623   -1    0    0    0    0  0.00000000000E+00  0.00000000000E+00  0.93234578044E-11  0.17124000000E+03  0.17124000000E+03 0. -1.
       11    1    1    2    0    0 -0.73319635886E-01  0.93410038018E-01  0.10593465478E+01  0.10659815073E+01  0.51109989000E-03 0. -1.
     -623    1    1    2    0    0  0.34962182483E-02  0.31262939470E-01  0.89424162012E-02  0.17124000312E+03  0.17124000000E+03 0. -1.
     -611    1    1    2    0    0  0.50600819624E-01 -0.87600335013E-01  0.31518576257E+01  0.31534807778E+01  0.51109989000E-03 0. -1.
      611    1    1    2    0    0  0.19222598014E-01 -0.37072642477E-01  0.12798533866E+01  0.12805345920E+01  0.51109989000E-03 0.  1.
</event>
<event>
 6   3  0.2312675E+03  0.9118800E+02  0.7818608E-02  0.1180000E+00
       11   -1    0    0    0    0  0.00000000000E+00  0.00000000000E+00  0.54999999763E+01  0.55000000000E+01  0.51109989000E-03 0.  1.
     -623   -1    0    0    0    0  0.00000000000E+00  0.00000000000E+00  0.93234578044E-11  0.17124000000E+03  0.17124000000E+03 0. -1.
       11    1    1    2    0    0 -0.63129398366E-02  0.13236026954E-01  0.26248327381E-01  0.30071274205E-01  0.51109989000E-03 0.  1.
     -623    1    1    2    0    0 -0.63389878324E-02 -0.73339247888E-02  0.64330538029E-02  0.17124000040E+03  0.17124000000E+03 0. -1.
     -611    1    1    2    0    0 -0.50784134620E-01  0.55678826963E-02  0.59674477453E+00  0.59892788948E+00  0.51109989000E-03 0. -1.
      611    1    1    2    0    0  0.63436062289E-01 -0.11469984861E-01  0.48705738205E+01  0.48710004411E+01  0.51109989000E-03 0.  1.
</event>
<event>
 6   3  0.2312675E+03  0.9118800E+02  0.7818608E-02  0.1180000E+00
       11   -1    0    0    0    0  0.00000000000E+00  0.00000000000E+00  0.54999999763E+01  0.55000000000E+01  0.51109989000E-03 0. -1.
     -623   -1    0    0    0    0  0.00000000000E+00  0.00000000000E+00  0.93234578044E-11  0.17124000000E+03  0.17124000000E+03 0. -1.
       11    1    1    2    0    0  0.33881372314E-02 -0.33858954877E-03  0.78692748644E-02  0.85895766351E-02  0.51109989000E-03 0. -1.
     -623    1    1    2    0    0 -0.11153354265E-01  0.23631056699E-03  0.16686899593E-02  0.17124000037E+03  0.17124000000E+03 0. -1.
     -611    1    1    2    0    0 -0.44112802851E-01 -0.10062690313E-01  0.17965239833E+01  0.17970937318E+01  0.51109989000E-03 0.  1.
      611    1    1    2    0    0  0.51878019884E-01  0.10164969295E-01  0.36939380282E+01  0.36943163201E+01  0.51109989000E-03 0. -1.
</event>
<event>
 6   3  0.2312675E+03  0.9118800E+02  0.7818608E-02  0.1180000E+00
       11   -1    0    0    0    0  0.00000000000E+00  0.00000000000E+00  0.54999999763E+01  0.55000000000E+01  0.51109989000E-03 0. -1.
     -623   -1    0    0    0    0  0.00000000000E+00  0.00000000000E+00  0.93234578044E-11  0.17124000000E+03  0.17124000000E+03 0. -1.
       11    1    1    2    0    0 -0.10543851638E+00  0.55154938796E-01  0.99429102738E+00  0.10013861674E+01  0.51109989000E-03 0. -1.
     -623    1    1    2    0    0 -0.22042086898E-02 -0.11128193103E-01  0.85997264504E-02  0.17124000059E+03  0.17124000000E+03 0. -1.
     -611    1    1    2    0    0  0.78201166145E-01 -0.31665708615E-01  0.32338778230E+01  0.32349782340E+01  0.51109989000E-03 0. -1.
      611    1    1    2    0    0  0.29441558941E-01 -0.12361037086E-01  0.12632314003E+01  0.12636350076E+01  0.51109989000E-03 0.  1.
</event>
<event>
 6   3  0.2920762E+03  0.9118800E+02  0.7818608E-02  0.1180000E+00
       11   -1    0    0    0    0  0.00000000000E+00  0.00000000000E+00  0.54999999763E+01  0.55000000000E+01  0.51109989000E-03 0.  1.
     -623   -1    0    0    0    0  0.00000000000E+00  0.00000000000E+00  0.93234578044E-11  0.17124000000E+03  0.17124000000E+03 0.  1.
       11    1    1    2    0    0  0.42826542545E-04 -0.35146031863E-02  0.75392275430E-01  0.75475894743E-01  0.51109989000E-03 0.  1.
     -623    1    1    2    0    0 -0.12505219382E-02  0.23590485017E-04  0.56235470316E-03  0.17124000001E+03  0.17124000000E+03 0.  1.
     -611    1    1    2    0    0 -0.34379223223E-01  0.65206394030E-02  0.32083341707E+01  0.32085250290E+01  0.51109989000E-03 0.  1.
      611    1    1    2    0    0  0.35586918619E-01 -0.30296267017E-02  0.22157111754E+01  0.22159990708E+01  0.51109989000E-03 0. -1.
</event>
<event>
 6   3  0.2312675E+03  0.9118800E+02  0.7818608E-02  0.1180000E+00
       11   -1    0    0    0    0  0.00000000000E+00  0.00000000000E+00  0.54999999763E+01  0.55000000000E+01  0.51109989000E-03 0.  1.
     -623   -1    0    0    0    0  0.00000000000E+00  0.00000000000E+00  0.93234578044E-11  0.17124000000E+03  0.17124000000E+03 0. -1.
       11    1    1    2    0    0 -0.54921979612E-01 -0.27830569416E-01  0.95359262476E+00  0.95557842151E+00  0.51109989000E-03 0.  1.
     -623    1    1    2    0    0  0.78604788679E-02 -0.99335682600E-02  0.28897340788E-02  0.17124000049E+03  0.17124000000E+03 0. -1.
     -611    1    1    2    0    0 -0.17094906038E-01  0.87433558308E-02  0.12779800757E+01  0.12781244139E+01  0.51109989000E-03 0. -1.
      611    1    1    2    0    0  0.64156406782E-01  0.29020781845E-01  0.32655375417E+01  0.32662966717E+01  0.51109989000E-03 0.  1.
</event>
<event>
 6   3  0.2312675E+03  0.9118800E+02  0.7818608E-02  0.1180000E+00
       11   -1    0    0    0    0  0.00000000000E+00  0.00000000000E+00  0.54999999763E+01  0.55000000000E+01  0.51109989000E-03 0. -1.
     -623   -1    0    0    0    0  0.00000000000E+00  0.00000000000E+00  0.93234578044E-11  0.17124000000E+03  0.17124000000E+03 0. -1.
       11    1    1    2    0    0 -0.86382990232E-01 -0.27385030574E-02  0.36183778801E+00  0.37201662121E+00  0.51109989000E-03 0. -1.
     -623    1    1    2    0    0  0.13411302612E-01  0.22277387745E-02  0.10714813204E-01  0.17124000087E+03  0.17124000000E+03 0. -1.
     -611    1    1    2    0    0  0.47976700346E-01  0.53484759960E-04  0.29291090489E+01  0.29295019795E+01  0.51109989000E-03 0. -1.
      611    1    1    2    0    0  0.24994987273E-01  0.45727952289E-03  0.21983383262E+01  0.21984805244E+01  0.51109989000E-03 0.  1.
</event>
<event>
 6   3  0.2312675E+03  0.9118800E+02  0.7818608E-02  0.1180000E+00
       11   -1    0    0    0    0  0.00000000000E+00  0.00000000000E+00  0.54999999763E+01  0.55000000000E+01  0.51109989000E-03 0. -1.
     -623   -1    0    0    0    0  0.00000000000E+00  0.00000000000E+00  0.93234578044E-11  0.17124000000E+03  0.17124000000E+03 0.  1.
       11    1    1    2    0    0  0.57084469262E-02  0.76975740047E-02  0.10507914445E+01  0.10508352678E+01  0.51109989000E-03 0. -1.
     -623    1    1    2    0    0 -0.69555068261E-01 -0.31631305390E-02  0.51853270693E-03  0.17124001416E+03  0.17124000000E+03 0.  1.
     -611    1    1    2    0    0  0.29115839915E-01 -0.19105224250E-02  0.20346168310E+01  0.20348261086E+01  0.51109989000E-03 0. -1.
      611    1    1    2    0    0  0.34730781494E-01 -0.26239210453E-02  0.24140731734E+01  0.24143244727E+01  0.51109989000E-03 0. -1.
</event>
<event>
 6   3  0.2312675E+03  0.9118800E+02  0.7818608E-02  0.1180000E+00
       11   -1    0    0    0    0  0.00000000000E+00  0.00000000000E+00  0.54999999763E+01  0.55000000000E+01  0.51109989000E-03 0.  1.
     -623   -1    0    0    0    0  0.00000000000E+00  0.00000000000E+00  0.93234578044E-11  0.17124000000E+03  0.17124000000E+03 0. -1.
       11    1    1    2    0    0 -0.88347054691E-01  0.10111249924E-01  0.85134815923E+00  0.85597978299E+00  0.51109989000E-03 0.  1.
     -623    1    1    2    0    0 -0.20290720368E-02  0.19853113552E-01  0.57229003441E-02  0.17124000126E+03  0.17124000000E+03 0. -1.
     -611    1    1    2    0    0  0.37143664999E-01 -0.43547750851E-03  0.12795988384E+01  0.12801379964E+01  0.51109989000E-03 0. -1.
      611    1    1    2    0    0  0.53232461729E-01 -0.29528885967E-01  0.33633300783E+01  0.33638809621E+01  0.51109989000E-03 0.  1.
</event>
<event>
 6   3  0.2312675E+03  0.9118800E+02  0.7818608E-02  0.1180000E+00
       11   -1    0    0    0    0  0.00000000000E+00  0.00000000000E+00  0.54999999763E+01  0.55000000000E+01  0.51109989000E-03 0. -1.
     -623   -1    0    0    0    0  0.00000000000E+00  0.00000000000E+00  0.93234578044E-11  0.17124000000E+03  0.17124000000E+03 0.  1.
       11    1    1    2    0    0 -0.97178915352E-03  0.14676271314E-02  0.16599762035E+00  0.16600773924E+00  0.51109989000E-03 0. -1.
     -623    1    1    2    0    0  0.63177969497E-01 -0.14298571117E-01  0.40083854053E-03  0.17124001225E+03  0.17124000000E+03 0.  1.
     -611    1    1    2    0    0 -0.33808193949E-01  0.75400119628E-02  0.29509888524E+01  0.29511921852E+01  0.51109989000E-03 0. -1.
      611    1    1    2    0    0 -0.28397986349E-01  0.52909320133E-02  0.23826126610E+01  0.23827878196E+01  0.51109989000E-03 0. -1.
</event>
<event>
 6   3  0.2312675E+03  0.9118800E+02  0.7818608E-02  0.1180000E+00
       11   -1    0    0    0    0  0.00000000000E+00  0.00000000000E+00  0.54999999763E+01  0.55000000000E+01  0.51109989000E-03 0.  1.
     -623   -1    0    0    0    0  0.00000000000E+00  0.00000000000E+00  0.93234578044E-11  0.17124000000E+03  0.17124000000E+03 0. -1.
       11    1    1    2    0    0 -0.16054335907E-01  0.59019742311E-02  0.17433357432E+00  0.17517143420E+00  0.51109989000E-03 0.  1.
     -623    1    1    2    0    0  0.23330282920E-01  0.14726160269E-02  0.13944706328E-02  0.17124000160E+03  0.17124000000E+03 0. -1.
     -611    1    1    2    0    0  0.31953770511E-01  0.72128666991E-02  0.17199421302E+01  0.17202541270E+01  0.51109989000E-03 0. -1.
      611    1    1    2    0    0 -0.39229717524E-01 -0.14587456957E-01  0.36043298012E+01  0.36045728376E+01  0.51109989000E-03 0.  1.
</event>
<event>
 6   3  0.2312675E+03  0.9118800E+02  0.7818608E-02  0.1180000E+00
       11   -1    0    0    0    0  0.00000000000E+00  0.00000000000E+00  0.54999999763E+01  0.55000000000E+01  0.51109989000E-03 0.  1.
     -623   -1    0    0    0    0  0.00000000000E+00  0.00000000000E+00  0.93234578044E-11  0.17124000000E+03  0.17124000000E+03 0.  1.
       11    1    1    2    0    0  0.14697011192E-01  0.66242097551E-02  0.31633203896E+00  0.31674295949E+00  0.51109989000E-03 0.  1.
     -623    1    1    2    0    0 -0.13805912529E-01  0.35041586106E-02  0.13211422433E-02  0.17124000060E+03  0.17124000000E+03 0.  1.
     -611    1    1    2    0    0 -0.42353892838E-01 -0.23918267419E-01  0.19161513961E+01  0.19167687314E+01  0.51109989000E-03 0.  1.
      611    1    1    2    0    0  0.41462794176E-01  0.13789899054E-01  0.32661953990E+01  0.32664877117E+01  0.51109989000E-03 0. -1.
</event>
<event>
 6   3  0.2312675E+03  0.9118800E+02  0.7818608E-02  0.1180000E+00
       11   -1    0    0    0    0  0.00000000000E+00  0.00000000000E+00  0.54999999763E+01  0.55000000000E+01  0.51109989000E-03 0.  1.
     -623   -1    0    0    0    0  0.00000000000E+00  0.00000000000E+00  0.93234578044E-11  0.17124000000E+03  0.17124000000E+03 0.  1.
       11    1    1    2    0    0 -0.30101410489E-01 -0.41268923633E-01  0.61598581193E+00  0.61810031604E+00  0.51109989000E-03 0.  1.
     -623    1    1    2    0    0 -0.25146238890E-01  0.15448764120E-01  0.25140982291E-02  0.17124000256E+03  0.17124000000E+03 0.  1.
     -611    1    1    2    0    0  0.18238445593E-01  0.14773644207E-01  0.16789809543E+01  0.16791450823E+01  0.51109989000E-03 0.  1.
      611    1    1    2    0    0  0.37009203786E-01  0.11046515307E-01  0.32025191118E+01  0.32027520400E+01  0.51109989000E-03 0. -1.
</event>
<event>
 6   3  0.2312675E+03  0.9118800E+02  0.7818608E-02  0.1180000E+00
       11   -1    0    0    0    0  0.00000000000E+00  0.00000000000E+00  0.54999999763E+01  0.55000000000E+01  0.51109989000E-03 0.  1.
     -623   -1    0    0    0    0  0.00000000000E+00  0.00000000000E+00  0.93234578044E-11  0.17124000000E+03  0.17124000000E+03 0.  1.
       11    1    1    2    0    0  0.51245562564E-02  0.69017447850E-03  0.20493473675E+00  0.20500059748E+00  0.51109989000E-03 0.  1.
     -623    1    1    2    0    0 -0.67420653163E-01 -0.19811846579E-01  0.48236401731E-03  0.17124001442E+03  0.17124000000E+03 0.  1.
     -611    1    1    2    0    0  0.12895992549E-01  0.47546636904E-02  0.12046523685E+01  0.12047308843E+01  0.51109989000E-03 0. -1.
      611    1    1    2    0    0  0.49400104223E-01  0.14367008371E-01  0.40899304960E+01  0.40902540881E+01  0.51109989000E-03 0.  1.
</event>
<event>
 6   3  0.2312675E+03  0.9118800E+02  0.7818608E-02  0.1180000E+00
       11   -1    0    0    0    0  0.00000000000E+00  0.00000000000E+00  0.54999999763E+01  0.55000000000E+01  0.51109989000E-03 0. -1.
     -623   -1    0    0    0    0  0.00000000000E+00  0.00000000000E+00  0.93234578044E-11  0.17124000000E+03  0.17124000000E+03 0. -1.
       11    1    1    2    0    0  0.56704421540E-01 -0.15988740876E-01  0.97288127289E+00  0.97466366693E+00  0.51109989000E-03 0. -1.
     -623    1    1    2    0    0  0.12283812049E-01 -0.21795777545E-02  0.23509206531E-02  0.17124000047E+03  0.17124000000E+03 0. -1.
     -611    1    1    2    0    0 -0.62842265416E-01  0.14673102861E-01  0.40095424346E+01  0.40100617509E+01  0.51109989000E-03 0.  1.
      611    1    1    2    0    0 -0.61459681753E-02  0.34952157700E-02  0.51522534825E+00  0.51527411168E+00  0.51109989000E-03 0. -1.
</event>
<event>
 6   3  0.2312675E+03  0.9118800E+02  0.7818608E-02  0.1180000E+00
       11   -1    0    0    0    0  0.00000000000E+00  0.00000000000E+00  0.54999999763E+01  0.55000000000E+01  0.51109989000E-03 0.  1.
     -623   -1    0    0    0    0  0.00000000000E+00  0.00000000000E+00  0.93234578044E-11  0.17124000000E+03  0.17124000000E+03 0.  1.
       11    1    1    2    0    0  0.23026229598E-01  0.17155097783E-01  0.51184807497E+00  0.51265311635E+00  0.51109989000E-03 0.  1.
     -623    1    1    2    0    0 -0.93950432471E-02  0.16833827831E-02  0.14736199575E-02  0.17124000027E+03  0.17124000000E+03 0.  1.
     -611    1    1    2    0    0 -0.44556672798E-01 -0.13398599399E-02  0.22869666041E+01  0.22874010584E+01  0.51109989000E-03 0.  1.
      611    1    1    2    0    0  0.30925486448E-01 -0.17498620626E-01  0.26997116772E+01  0.26999455529E+01  0.51109989000E-03 0. -1.
</event>
<event>
 6   3  0.7890377E+03  0.9118800E+02  0.7818608E-02  0.1180000E+00
       11   -1    0    0    0    0  0.00000000000E+00  0.00000000000E+00  0.54999999763E+01  0.55000000000E+01  0.51109989000E-03 0.  1.
     -623   -1    0    0    0    0  0.00000000000E+00  0.00000000000E+00  0.93234578044E-11  0.17124000000E+03  0.17124000000E+03 0.  1.
       11    1    1    2    0    0  0.31981220381E-03 -0.74148661867E-04  0.34969027302E-02  0.35492717100E-02  0.51109989000E-03 0.  1.
     -623    1    1    2    0    0 -0.33568184958E-03  0.41086749638E-03  0.42843616494E-03  0.17124000000E+03  0.17124000000E+03 0.  1.
     -611    1    1    2    0    0 -0.29083514542E-01  0.13470522168E-01  0.26589440087E+01  0.26591372301E+01  0.51109989000E-03 0. -1.
      611    1    1    2    0    0  0.29099384188E-01 -0.13807241003E-01  0.28371306287E+01  0.28373134969E+01  0.51109989000E-03 0.  1.
</event>
<event>
 6   3  0.2312675E+03  0.9118800E+02  0.7818608E-02  0.1180000E+00
       11   -1    0    0    0    0  0.00000000000E+00  0.00000000000E+00  0.54999999763E+01  0.55000000000E+01  0.51109989000E-03 0.  1.
     -623   -1    0    0    0    0  0.00000000000E+00  0.00000000000E+00  0.93234578044E-11  0.17124000000E+03  0.17124000000E+03 0. -1.
       11    1    1    2    0    0 -0.10400699923E-01  0.19051785523E-01  0.78961429672E-01  0.81892085633E-01  0.51109989000E-03 0.  1.
     -623    1    1    2    0    0  0.40233279675E-01 -0.20879307447E-01  0.38178808779E-02  0.17124000604E+03  0.17124000000E+03 0. -1.
     -611    1    1    2    0    0 -0.58746203184E-01 -0.19216861890E-01  0.32907251135E+01  0.32913055826E+01  0.51109989000E-03 0.  1.
      611    1    1    2    0    0  0.28913623432E-01  0.21044383815E-01  0.21264955521E+01  0.21267962898E+01  0.51109989000E-03 0. -1.
</event>
<event>
 6   3  0.2312675E+03  0.9118800E+02  0.7818608E-02  0.1180000E+00
       11   -1    0    0    0    0  0.00000000000E+00  0.00000000000E+00  0.54999999763E+01  0.55000000000E+01  0.51109989000E-03 0. -1.
     -623   -1    0    0    0    0  0.00000000000E+00  0.00000000000E+00  0.93234578044E-11  0.17124000000E+03  0.17124000000E+03 0. -1.
       11    1    1    2    0    0 -0.73159211475E-02  0.47499908126E-02  0.52230918148E+00  0.52238226175E+00  0.51109989000E-03 0.  1.
     -623    1    1    2    0    0  0.59980140836E-01 -0.48519010181E-01  0.56187104591E-03  0.17124001738E+03  0.17124000000E+03 0. -1.
     -611    1    1    2    0    0 -0.20361402906E-01  0.16069546205E-01  0.18531348426E+01  0.18533164390E+01  0.51109989000E-03 0. -1.
      611    1    1    2    0    0 -0.32302817100E-01  0.27699473421E-01  0.31239941103E+01  0.31242839492E+01  0.51109989000E-03 0.  1.
</event>
<event>
 6   3  0.2312675E+03  0.9118800E+02  0.7818608E-02  0.1180000E+00
       11   -1    0    0    0    0  0.00000000000E+00  0.00000000000E+00  0.54999999763E+01  0.55000000000E+01  0.51109989000E-03 0.  1.
     -623   -1    0    0    0    0  0.00000000000E+00  0.00000000000E+00  0.93234578044E-11  0.17124000000E+03  0.17124000000E+03 0.  1.
       11    1    1    2    0    0 -0.13156011128E-01 -0.16080357148E-01  0.85320900886E+00  0.85346208618E+00  0.51109989000E-03 0.  1.
     -623    1    1    2    0    0  0.77202017590E-01  0.75530179906E-02  0.79966225254E-03  0.17124001757E+03  0.17124000000E+03 0.  1.
     -611    1    1    2    0    0 -0.43100685644E-01  0.11113581893E-01  0.38198781872E+01  0.38201375377E+01  0.51109989000E-03 0.  1.
      611    1    1    2    0    0 -0.20945320815E-01 -0.25862427362E-02  0.82611311773E+00  0.82638280453E+00  0.51109989000E-03 0. -1.
</event>
<event>
 6   3  0.2312675E+03  0.9118800E+02  0.7818608E-02  0.1180000E+00
       11   -1    0    0    0    0  0.00000000000E+00  0.00000000000E+00  0.54999999763E+01  0.55000000000E+01  0.51109989000E-03 0. -1.
     -623   -1    0    0    0    0  0.00000000000E+00  0.00000000000E+00  0.93234578044E-11  0.17124000000E+03  0.17124000000E+03 0. -1.
       11    1    1    2    0    0  0.47864732777E-03  0.17137611130E-02  0.63960753519E-01  0.63987540148E-01  0.51109989000E-03 0. -1.
     -623    1    1    2    0    0  0.60209261706E-01 -0.51368834109E-02  0.38427299065E-03  0.17124001066E+03  0.17124000000E+03 0. -1.
     -611    1    1    2    0    0 -0.19969618722E-01 -0.19444143838E-02  0.15562595678E+01  0.15563889842E+01  0.51109989000E-03 0.  1.
      611    1    1    2    0    0 -0.40718290301E-01  0.53675366809E-02  0.38793953810E+01  0.38796128123E+01  0.51109989000E-03 0. -1.
</event>
<event>
 6   3  0.2312675E+03  0.9118800E+02  0.7818608E-02  0.1180000E+00
       11   -1    0    0    0    0  0.00000000000E+00  0.00000000000E+00  0.54999999763E+01  0.55000000000E+01  0.51109989000E-03 0. -1.
     -623   -1    0    0    0    0  0.00000000000E+00  0.00000000000E+00  0.93234578044E-11  0.17124000000E+03  0.17124000000E+03 0.  1.
       11    1    1    2    0    0  0.14731620220E+00  0.18643237823E+00  0.98637923415E+00  0.10145951655E+01  0.51109989000E-03 0. -1.
     -623    1    1    2    0    0  0.19666651298E-01 -0.16113342647E-01  0.34568539859E-01  0.17124000538E+03  0.17124000000E+03 0.  1.
     -611    1    1    2    0    0 -0.24917950668E-01 -0.24579036471E-01  0.66889065128E+00  0.66980594048E+00  0.51109989000E-03 0.  1.
      611    1    1    2    0    0 -0.14206490289E+00 -0.14573999917E+00  0.38101615526E+01  0.38155935190E+01  0.51109989000E-03 0. -1.
</event>
<event>
 6   3  0.2312675E+03  0.9118800E+02  0.7818608E-02  0.1180000E+00
       11   -1    0    0    0    0  0.00000000000E+00  0.00000000000E+00  0.54999999763E+01  0.55000000000E+01  0.51109989000E-03 0. -1.
     -623   -1    0    0    0    0  0.00000000000E+00  0.00000000000E+00  0.93234578044E-11  0.17124000000E+03  0.17124000000E+03 0. -1.
       11    1    1    2    0    0  0.40563393185E-01  0.10196953183E-01  0.45720379120E+00  0.45911320459E+00  0.51109989000E-03 0. -1.
     -623    1    1    2    0    0  0.23077723156E-01 -0.55226449248E-03  0.23243507423E-02  0.17124000157E+03  0.17124000000E+03 0. -1.
     -611    1    1    2    0    0 -0.46971499040E-01 -0.60540368060E-02  0.38441011449E+01  0.38443929100E+01  0.51109989000E-03 0. -1.
      611    1    1    2    0    0 -0.16669617296E-01 -0.35906518833E-02  0.11963706891E+01  0.11964923134E+01  0.51109989000E-03 0.  1.
</event>
<event>
 6   3  0.2312675E+03  0.9118800E+02  0.7818608E-02  0.1180000E+00
       11   -1    0    0    0    0  0.00000000000E+00  0.00000000000E+00  0.54999999763E+01  0.55000000000E+01  0.51109989000E-03 0. -1.
     -623   -1    0    0    0    0  0.00000000000E+00  0.00000000000E+00  0.93234578044E-11  0.17124000000E+03  0.17124000000E+03 0. -1.
       11    1    1    2    0    0 -0.38533351640E-01 -0.78037291243E-01  0.94490938078E+00  0.94890918276E+00  0.51109989000E-03 0. -1.
     -623    1    1    2    0    0 -0.19508111193E-01  0.75562684608E-02  0.49172492693E-02  0.17124000135E+03  0.17124000000E+03 0. -1.
     -611    1    1    2    0    0  0.40708667627E-01  0.49559801799E-01  0.31857425243E+01  0.31863880903E+01  0.51109989000E-03 0. -1.
      611    1    1    2    0    0  0.17332795114E-01  0.20921220872E-01  0.13644308146E+01  0.13647013712E+01  0.51109989000E-03 0.  1.
</event>
<event>
 6   3  0.2312675E+03  0.9118800E+02  0.7818608E-02  0.1180000E+00
       11   -1    0    0    0    0  0.00000000000E+00  0.00000000000E+00  0.54999999763E+01  0.55000000000E+01  0.51109989000E-03 0.  1.
     -623   -1    0    0    0    0  0.00000000000E+00  0.00000000000E+00  0.93234578044E-11  0.17124000000E+03  0.17124000000E+03 0. -1.
       11    1    1    2    0    0 -0.64294454131E-02 -0.55880973792E-02  0.60007654801E-01  0.60611421848E-01  0.51109989000E-03 0.  1.
     -623    1    1    2    0    0  0.72408978691E-02  0.16599077663E-02  0.29270929686E-02  0.17124000019E+03  0.17124000000E+03 0. -1.
     -611    1    1    2    0    0 -0.65018709683E-01  0.44624739881E-01  0.33778179377E+01  0.33787383861E+01  0.51109989000E-03 0.  1.
      611    1    1    2    0    0  0.64207257227E-01 -0.40696550269E-01  0.20592472908E+01  0.20606500059E+01  0.51109989000E-03 0. -1.
</event>
<event>
 6   3  0.2312675E+03  0.9118800E+02  0.7818608E-02  0.1180000E+00
       11   -1    0    0    0    0  0.00000000000E+00  0.00000000000E+00  0.54999999763E+01  0.55000000000E+01  0.51109989000E-03 0. -1.
     -623   -1    0    0    0    0  0.00000000000E+00  0.00000000000E+00  0.93234578044E-11  0.17124000000E+03  0.17124000000E+03 0. -1.
       11    1    1    2    0    0  0.15070663024E-01 -0.11713406235E-01  0.21486652221E+00  0.21571326422E+00  0.51109989000E-03 0. -1.
     -623    1    1    2    0    0 -0.14784752312E-03 -0.34399453781E-01  0.20515882526E-02  0.17124000347E+03  0.17124000000E+03 0. -1.
     -611    1    1    2    0    0 -0.41558856522E-01  0.66601643864E-01  0.34474373345E+01  0.34483310969E+01  0.51109989000E-03 0. -1.
      611    1    1    2    0    0  0.26636041021E-01 -0.20488783848E-01  0.18356445313E+01  0.18359521714E+01  0.51109989000E-03 0.  1.
</event>
<event>
 6   3  0.2312675E+03  0.9118800E+02  0.7818608E-02  0.1180000E+00
       11   -1    0    0    0    0  0.00000000000E+00  0.00000000000E+00  0.54999999763E+01  0.55000000000E+01  0.51109989000E-03 0.  1.
     -623   -1    0    0    0    0  0.00000000000E+00  0.00000000000E+00  0.93234578044E-11  0.17124000000E+03  0.17124000000E+03 0. -1.
       11    1    1    2    0    0 -0.14714917484E+00  0.23117146692E-01  0.10145156686E+01  0.10253924055E+01  0.51109989000E-03 0.  1.
     -623    1    1    2    0    0  0.23157722216E-01 -0.25576024523E-01  0.12710205621E-01  0.17124000395E+03  0.17124000000E+03 0. -1.
     -611    1    1    2    0    0  0.13558995886E-01 -0.48371943235E-02  0.90140157239E+00  0.90151666693E+00  0.51109989000E-03 0. -1.
      611    1    1    2    0    0  0.11043245674E+00  0.72960721549E-02  0.35713725296E+01  0.35730869800E+01  0.51109989000E-03 0.  1.
</event>
<event>
 6   3  0.2312675E+03  0.9118800E+02  0.7818608E-02  0.1180000E+00
       11   -1    0    0    0    0  0.00000000000E+00  0.00000000000E+00  0.54999999763E+01  0.55000000000E+01  0.51109989000E-03 0. -1.
     -623   -1    0    0    0    0  0.00000000000E+00  0.00000000000E+00  0.93234578044E-11  0.17124000000E+03  0.17124000000E+03 0. -1.
       11    1    1    2    0    0  0.11411906622E-01  0.67778473421E-02  0.10763865166E+01  0.10764684692E+01  0.51109989000E-03 0. -1.
     -623    1    1    2    0    0 -0.59371192985E-01 -0.40424992667E-01  0.48562286782E-03  0.17124001506E+03  0.17124000000E+03 0. -1.
     -611    1    1    2    0    0  0.34116757722E-01  0.23701660593E-01  0.30628901969E+01  0.30631719412E+01  0.51109989000E-03 0. -1.
      611    1    1    2    0    0  0.13842528828E-01  0.99454848586E-02  0.13602376572E+01  0.13603445422E+01  0.51109989000E-03 0.  1.
</event>
<event>
 6   3  0.2312675E+03  0.9118800E+02  0.7818608E-02  0.1180000E+00
       11   -1    0    0    0    0  0.00000000000E+00  0.00000000000E+00  0.54999999763E+01  0.55000000000E+01  0.51109989000E-03 0. -1.
     -623   -1    0    0    0    0  0.00000000000E+00  0.00000000000E+00  0.93234578044E-11  0.17124000000E+03  0.17124000000E+03 0.  1.
       11    1    1    2    0    0 -0.55419865796E-02 -0.49860817129E-02  0.43181109330E-01  0.43822871336E-01  0.51109989000E-03 0. -1.
     -623    1    1    2    0    0  0.93655206824E-02 -0.25796863827E-02  0.44927565838E-02  0.17124000033E+03  0.17124000000E+03 0.  1.
     -611    1    1    2    0    0 -0.84314552394E-01  0.52174136239E-01  0.37971333667E+01  0.37984277207E+01  0.51109989000E-03 0. -1.
      611    1    1    2    0    0  0.80491018291E-01 -0.44608368143E-01  0.16551927437E+01  0.16577490734E+01  0.51109989000E-03 0.  1.
</event>
<event>
 6   3  0.2312675E+03  0.9118800E+02  0.7818608E-02  0.1180000E+00
       11   -1    0    0    0    0  0.00000000000E+00  0.00000000000E+00  0.54999999763E+01  0.55000000000E+01  0.51109989000E-03 0.  1.
     -623   -1    0    0    0    0  0.00000000000E+00  0.00000000000E+00  0.93234578044E-11  0.17124000000E+03  0.17124000000E+03 0. -1.
       11    1    1    2    0    0  0.12907752732E+00  0.20652713831E-01  0.92518368058E+00  0.93437286277E+00  0.51109989000E-03 0.  1.
     -623    1    1    2    0    0 -0.31212732654E-02 -0.43268538036E-01  0.10989554672E-01  0.17124000585E+03  0.17124000000E+03 0. -1.
     -611    1    1    2    0    0 -0.97847593992E-01  0.17038006190E-01  0.35701341518E+01  0.35715154442E+01  0.51109989000E-03 0.  1.
      611    1    1    2    0    0 -0.28108660042E-01  0.55778180114E-02  0.99369258851E+00  0.99410584472E+00  0.51109989000E-03 0. -1.
</event>
<event>
 6   3  0.2312675E+03  0.9118800E+02  0.7818608E-02  0.1180000E+00
       11   -1    0    0    0    0  0.00000000000E+00  0.00000000000E+00  0.54999999763E+01  0.55000000000E+01  0.51109989000E-03 0. -1.
     -623   -1    0    0    0    0  0.00000000000E+00  0.00000000000E+00  0.93234578044E-11  0.17124000000E+03  0.17124000000E+03 0. -1.
       11    1    1    2    0    0 -0.32154374866E-01  0.38065595861E-01  0.13083605152E+00  0.14000438212E+00  0.51109989000E-03 0. -1.
     -623    1    1    2    0    0  0.46994206775E-01  0.31247161994E-01  0.13627203976E-01  0.17124000984E+03  0.17124000000E+03 0. -1.
     -611    1    1    2    0    0 -0.10070099785E+00  0.99289785090E-02  0.23430878180E+01  0.23452718520E+01  0.51109989000E-03 0.  1.
      611    1    1    2    0    0  0.85861165945E-01 -0.79241736364E-01  0.30124489027E+01  0.30147139243E+01  0.51109989000E-03 0. -1.
</event>
<event>
 6   3  0.2312675E+03  0.9118800E+02  0.7818608E-02  0.1180000E+00
       11   -1    0    0    0    0  0.00000000000E+00  0.00000000000E+00  0.54999999763E+01  0.55000000000E+01  0.51109989000E-03 0. -1.
     -623   -1    0    0    0    0  0.00000000000E+00  0.00000000000E+00  0.93234578044E-11  0.17124000000E+03  0.17124000000E+03 0.  1.
       11    1    1    2    0    0 -0.30910519959E-02  0.28869640298E-01  0.10682347348E+01  0.10686293654E+01  0.51109989000E-03 0. -1.
     -623    1    1    2    0    0  0.26603292205E-02 -0.22042481049E-03  0.77687108302E-03  0.17124000002E+03  0.17124000000E+03 0.  1.
     -611    1    1    2    0    0  0.25005631530E-01 -0.10230894314E-01  0.23550461793E+01  0.23552012060E+01  0.51109989000E-03 0. -1.
      611    1    1    2    0    0 -0.24574908754E-01 -0.18418321174E-01  0.20759421913E+01  0.20761694063E+01  0.51109989000E-03 0.  1.
</event>
<event>
 6   3  0.2312675E+03  0.9118800E+02  0.7818608E-02  0.1180000E+00
       11   -1    0    0    0    0  0.00000000000E+00  0.00000000000E+00  0.54999999763E+01  0.55000000000E+01  0.51109989000E-03 0.  1.
     -623   -1    0    0    0    0  0.00000000000E+00  0.00000000000E+00  0.93234578044E-11  0.17124000000E+03  0.17124000000E+03 0.  1.
       11    1    1    2    0    0  0.89334493632E-02 -0.34968324397E-01  0.70202185825E+00  0.70294917377E+00  0.51109989000E-03 0.  1.
     -623    1    1    2    0    0 -0.78579000007E-01 -0.34133188373E-01  0.19526775375E-02  0.17124002144E+03  0.17124000000E+03 0.  1.
     -611    1    1    2    0    0  0.15882307079E-01  0.14765818377E-01  0.10403828597E+01  0.10406089722E+01  0.51109989000E-03 0.  1.
      611    1    1    2    0    0  0.53763243560E-01  0.54335694390E-01  0.37556425804E+01  0.37564204114E+01  0.51109989000E-03 0.  1.
</event>
<event>
 6   3  0.2312675E+03  0.9118800E+02  0.7818608E-02  0.1180000E+00
       11   -1    0    0    0    0  0.00000000000E+00  0.00000000000E+00  0.54999999763E+01  0.55000000000E+01  0.51109989000E-03 0.  1.
     -623   -1    0    0    0    0  0.00000000000E+00  0.00000000000E+00  0.93234578044E-11  0.17124000000E+03  0.17124000000E+03 0. -1.
       11    1    1    2    0    0 -0.20438462044E-01 -0.95181154818E-02  0.41838064511E+00  0.41898800780E+00  0.51109989000E-03 0.  1.
     -623    1    1    2    0    0 -0.35070493845E-01  0.29668856293E-01  0.95766546501E-03  0.17124000616E+03  0.17124000000E+03 0. -1.
     -611    1    1    2    0    0  0.26383746149E-01 -0.85384309721E-02  0.22881019361E+01  0.22882700317E+01  0.51109989000E-03 0.  1.
      611    1    1    2    0    0  0.29125209730E-01 -0.11612309836E-01  0.27925597287E+01  0.27927357954E+01  0.51109989000E-03 0.  1.
</event>
<event>
 6   3  0.2312675E+03  0.9118800E+02  0.7818608E-02  0.1180000E+00
       11   -1    0    0    0    0  0.00000000000E+00  0.00000000000E+00  0.54999999763E+01  0.55000000000E+01  0.51109989000E-03 0.  1.
     -623   -1    0    0    0    0  0.00000000000E+00  0.00000000000E+00  0.93234578044E-11  0.17124000000E+03  0.17124000000E+03 0.  1.
       11    1    1    2    0    0 -0.74485389947E-01  0.10502987423E-01  0.10255316364E+01  0.10282868202E+01  0.51109989000E-03 0.  1.
     -623    1    1    2    0    0  0.25754365132E-02  0.30876951019E-02  0.35389151616E-02  0.17124000008E+03  0.17124000000E+03 0.  1.
     -611    1    1    2    0    0  0.51880147503E-01 -0.16931381051E-01  0.39656715256E+01  0.39660470410E+01  0.51109989000E-03 0.  1.
      611    1    1    2    0    0  0.20029805931E-01  0.33406985263E-02  0.50525789911E+00  0.50566605504E+00  0.51109989000E-03 0. -1.
</event>
<event>
 6   3  0.2312675E+03  0.9118800E+02  0.7818608E-02  0.1180000E+00
       11   -1    0    0    0    0  0.00000000000E+00  0.00000000000E+00  0.54999999763E+01  0.55000000000E+01  0.51109989000E-03 0.  1.
     -623   -1    0    0    0    0  0.00000000000E+00  0.00000000000E+00  0.93234578044E-11  0.17124000000E+03  0.17124000000E+03 0. -1.
       11    1    1    2    0    0  0.94927754786E-03 -0.21289185432E-01  0.22873097944E+00  0.22972212067E+00  0.51109989000E-03 0.  1.
     -623    1    1    2    0    0  0.21166142235E-02  0.34607588782E-02  0.24182744059E-02  0.17124000007E+03  0.17124000000E+03 0. -1.
     -611    1    1    2    0    0 -0.42712233071E-01  0.51441833966E-01  0.35898449463E+01  0.35904676014E+01  0.51109989000E-03 0.  1.
      611    1    1    2    0    0  0.39646341299E-01 -0.33613407412E-01  0.16790057762E+01  0.16798102129E+01  0.51109989000E-03 0. -1.
</event>
<event>
 6   3  0.2312675E+03  0.9118800E+02  0.7818608E-02  0.1180000E+00
       11   -1    0    0    0    0  0.00000000000E+00  0.00000000000E+00  0.54999999763E+01  0.55000000000E+01  0.51109989000E-03 0.  1.
     -623   -1    0    0    0    0  0.00000000000E+00  0.00000000000E+00  0.93234578044E-11  0.17124000000E+03  0.17124000000E+03 0.  1.
       11    1    1    2    0    0  0.93531092065E-02 -0.55041848024E-01  0.82729923893E+00  0.82918114887E+00  0.51109989000E-03 0.  1.
     -623    1    1    2    0    0  0.76667977464E-01  0.76374134351E-01  0.27585646687E-02  0.17124003422E+03  0.17124000000E+03 0.  1.
     -611    1    1    2    0    0 -0.14383972001E-01 -0.22575597662E-02  0.78481862209E+00  0.78495383688E+00  0.51109989000E-03 0. -1.
      611    1    1    2    0    0 -0.71637114675E-01 -0.19074726562E-01  0.38851235509E+01  0.38858307977E+01  0.51109989000E-03 0.  1.
</event>
<event>
 6   3  0.2312675E+03  0.9118800E+02  0.7818608E-02  0.1180000E+00
       11   -1    0    0    0    0  0.00000000000E+00  0.00000000000E+00  0.54999999763E+01  0.55000000000E+01  0.51109989000E-03 0. -1.
     -623   -1    0    0    0    0  0.00000000000E+00  0.00000000000E+00  0.93234578044E-11  0.17124000000E+03  0.17124000000E+03 0. -1.
       11    1    1    2    0    0 -0.29525104610E-01 -0.48476058245E-01  0.60330055609E+00  0.60596491831E+00  0.51109989000E-03 0. -1.
     -623    1    1    2    0    0 -0.51738458184E-01  0.14189679473E-01  0.35166576742E-02  0.17124000844E+03  0.17124000000E+03 0. -1.
     -611    1    1    2    0    0  0.63785176273E-01  0.25134748184E-01  0.32350159170E+01  0.32357423490E+01  0.51109989000E-03 0. -1.
      611    1    1    2    0    0  0.17478386521E-01  0.91516305875E-02  0.16581668454E+01  0.16582842925E+01  0.51109989000E-03 0.  1.
</event>
<event>
 6   3  0.2312675E+03  0.9118800E+02  0.7818608E-02  0.1180000E+00
       11   -1    0    0    0    0  0.00000000000E+00  0.00000000000E+00  0.54999999763E+01  0.55000000000E+01  0.51109989000E-03 0.  1.
     -623   -1    0    0    0    0  0.00000000000E+00  0.00000000000E+00  0.93234578044E-11  0.17124000000E+03  0.17124000000E+03 0. -1.
       11    1    1    2    0    0 -0.44774311297E-02  0.78070619653E-03  0.19047259368E-01  0.19588675407E-01  0.51109989000E-03 0.  1.
     -623    1    1    2    0    0  0.15486753622E-02 -0.24165634669E-02  0.95130210296E-03  0.17124000003E+03  0.17124000000E+03 0. -1.
     -611    1    1    2    0    0  0.34042932887E-01 -0.46098550569E-02  0.33000087067E+01  0.33001875549E+01  0.51109989000E-03 0.  1.
      611    1    1    2    0    0 -0.31114177119E-01  0.62457123272E-02  0.21799927080E+01  0.21802237429E+01  0.51109989000E-03 0. -1.
</event>
<event>
 6   3  0.2312675E+03  0.9118800E+02  0.7818608E-02  0.1180000E+00
       11   -1    0    0    0    0  0.00000000000E+00  0.00000000000E+00  0.54999999763E+01  0.55000000000E+01  0.51109989000E-03 0. -1.
     -623   -1    0    0    0    0  0.00000000000E+00  0.00000000000E+00  0.93234578044E-11  0.17124000000E+03  0.17124000000E+03 0.  1.
       11    1    1    2    0    0  0.71577569381E-01 -0.60392191812E-01  0.67476766726E+00  0.68123581180E+00  0.51109989000E-03 0. -1.
     -623    1    1    2    0    0 -0.87360120427E-02  0.46398231830E-01  0.69055799340E-02  0.17124000665E+03  0.17124000000E+03 0.  1.
     -611    1    1    2    0    0 -0.75732744812E-02  0.20714865369E-02  0.63318822366E+00  0.63323710673E+00  0.51109989000E-03 0.  1.
      611    1    1    2    0    0 -0.55268282833E-01  0.11922473440E-01  0.41851385037E+01  0.41855204317E+01  0.51109989000E-03 0. -1.
</event>
<event>
 6   3  0.2312675E+03  0.9118800E+02  0.7818608E-02  0.1180000E+00
       11   -1    0    0    0    0  0.00000000000E+00  0.00000000000E+00  0.54999999763E+01  0.55000000000E+01  0.51109989000E-03 0.  1.
     -623   -1    0    0    0    0  0.00000000000E+00  0.00000000000E+00  0.93234578044E-11  0.17124000000E+03  0.17124000000E+03 0. -1.
       11    1    1    2    0    0 -0.92173297460E-02  0.28691463942E-01  0.33201524678E+00  0.33338048022E+00  0.51109989000E-03 0.  1.
     -623    1    1    2    0    0 -0.31776864273E-02 -0.26203868152E-01  0.13103125744E-01  0.17124000254E+03  0.17124000000E+03 0. -1.
     -611    1    1    2    0    0  0.14095254261E+00  0.80823059669E-01  0.15524497005E+01  0.15609293130E+01  0.51109989000E-03 0. -1.
      611    1    1    2    0    0 -0.12855752644E+00 -0.83310655459E-01  0.36024319032E+01  0.36056876711E+01  0.51109989000E-03 0.  1.
</event>
<event>
 6   3  0.2312675E+03  0.9118800E+02  0.7818608E-02  0.1180000E+00
       11   -1    0    0    0    0  0.00000000000E+00  0.00000000000E+00  0.54999999763E+01  0.55000000000E+01  0.51109989000E-03 0. -1.
     -623   -1    0    0    0    0  0.00000000000E+00  0.00000000000E+00  0.93234578044E-11  0.17124000000E+03  0.17124000000E+03 0.  1.
       11    1    1    2    0    0 -0.61570260805E-02  0.72915245047E-02  0.93377764351E-01  0.93865560234E-01  0.51109989000E-03 0. -1.
     -623    1    1    2    0    0  0.42515426882E-02  0.21444351957E-02  0.90192574047E-03  0.17124000007E+03  0.17124000000E+03 0.  1.
     -611    1    1    2    0    0  0.29899633036E-01 -0.21054036271E-01  0.28822239474E+01  0.28824559675E+01  0.51109989000E-03 0.  1.
      611    1    1    2    0    0 -0.27994149644E-01  0.11618076571E-01  0.25234963389E+01  0.25236784038E+01  0.51109989000E-03 0. -1.
</event>
<event>
 6   3  0.2312675E+03  0.9118800E+02  0.7818608E-02  0.1180000E+00
       11   -1    0    0    0    0  0.00000000000E+00  0.00000000000E+00  0.54999999763E+01  0.55000000000E+01  0.51109989000E-03 0. -1.
     -623   -1    0    0    0    0  0.00000000000E+00  0.00000000000E+00  0.93234578044E-11  0.17124000000E+03  0.17124000000E+03 0. -1.
       11    1    1    2    0    0  0.57637313649E-01 -0.92317749697E-02  0.93072116335E+00  0.93254996152E+00  0.51109989000E-03 0. -1.
     -623    1    1    2    0    0  0.89007345815E-04  0.34674652931E-02  0.22594130174E-02  0.17124000005E+03  0.17124000000E+03 0. -1.
     -611    1    1    2    0    0 -0.36685357091E-01  0.14472247664E-01  0.26085871691E+01  0.26088853063E+01  0.51109989000E-03 0.  1.
      611    1    1    2    0    0 -0.21040963904E-01 -0.87079379879E-02  0.19584322307E+01  0.19585646821E+01  0.51109989000E-03 0. -1.
</event>
<event>
 6   3  0.2312675E+03  0.9118800E+02  0.7818608E-02  0.1180000E+00
       11   -1    0    0    0    0  0.00000000000E+00  0.00000000000E+00  0.54999999763E+01  0.55000000000E+01  0.51109989000E-03 0. -1.
     -623   -1    0    0    0    0  0.00000000000E+00  0.00000000000E+00  0.93234578044E-11  0.17124000000E+03  0.17124000000E+03 0.  1.
       11    1    1    2    0    0 -0.11994562831E-01 -0.16070704898E-01  0.18635797587E+00  0.18743450453E+00  0.51109989000E-03 0. -1.
     -623    1    1    2    0    0  0.71714160491E-01 -0.10054898978E-01  0.27247274291E-02  0.17124001533E+03  0.17124000000E+03 0.  1.
     -611    1    1    2    0    0 -0.83519722016E-01  0.50163107146E-01  0.41253375761E+01  0.41264878843E+01  0.51109989000E-03 0. -1.
      611    1    1    2    0    0  0.23800124356E-01 -0.24037503270E-01  0.11855796969E+01  0.11860622776E+01  0.51109989000E-03 0.  1.
</event>
<event>
 6   3  0.2312675E+03  0.9118800E+02  0.7818608E-02  0.1180000E+00
       11   -1    0    0    0    0  0.00000000000E+00  0.00000000000E+00  0.54999999763E+01  0.55000000000E+01  0.51109989000E-03 0.  1.
     -623   -1    0    0    0    0  0.00000000000E+00  0.00000000000E+00  0.93234578044E-11  0.17124000000E+03  0.17124000000E+03 0.  1.
       11    1    1    2    0    0  0.26822627517E-02 -0.25380065902E-02  0.14577210259E+00  0.14581976247E+00  0.51109989000E-03 0.  1.
     -623    1    1    2    0    0 -0.51727418616E-02  0.12277522052E-02  0.10917914331E-02  0.17124000009E+03  0.17124000000E+03 0.  1.
     -611    1    1    2    0    0 -0.33097358455E-01  0.38827644055E-01  0.32922737766E+01  0.32926691152E+01  0.51109989000E-03 0.  1.
      611    1    1    2    0    0  0.35587837565E-01 -0.37517389670E-01  0.20608623056E+01  0.20615110363E+01  0.51109989000E-03 0. -1.
</event>
<event>
 6   3  0.2312675E+03  0.9118800E+02  0.7818608E-02  0.1180000E+00
       11   -1    0    0    0    0  0.00000000000E+00  0.00000000000E+00  0.54999999763E+01  0.55000000000E+01  0.51109989000E-03 0. -1.
     -623   -1    0    0    0    0  0.00000000000E+00  0.00000000000E+00  0.93234578044E-11  0.17124000000E+03  0.17124000000E+03 0. -1.
       11    1    1    2    0    0 -0.10791776895E+00  0.16827947380E-01  0.89580853371E+00  0.90244258264E+00  0.51109989000E-03 0. -1.
     -623    1    1    2    0    0  0.53456885746E-01 -0.20857861927E-01  0.69685985128E-02  0.17124000976E+03  0.17124000000E+03 0. -1.
     -611    1    1    2    0    0  0.34157481913E-01  0.33719713611E-02  0.28679174555E+01  0.28681228873E+01  0.51109989000E-03 0. -1.
      611    1    1    2    0    0  0.20303401256E-01  0.65794318329E-03  0.17293053853E+01  0.17294247708E+01  0.51109989000E-03 0.  1.
</event>
<event>
 6   3  0.2312675E+03  0.9118800E+02  0.7818608E-02  0.1180000E+00
       11   -1    0    0    0    0  0.00000000000E+00  0.00000000000E+00  0.54999999763E+01  0.55000000000E+01  0.51109989000E-03 0. -1.
     -623   -1    0    0    0    0  0.00000000000E+00  0.00000000000E+00  0.93234578044E-11  0.17124000000E+03  0.17124000000E+03 0.  1.
       11    1    1    2    0    0 -0.17917020913E-01  0.12718330940E-01  0.62045732927E+00  0.62084646592E+00  0.51109989000E-03 0. -1.
     -623    1    1    2    0    0  0.74756908113E-01  0.11214418289E-01  0.79608762228E-03  0.17124001669E+03  0.17124000000E+03 0.  1.
     -611    1    1    2    0    0 -0.35673649634E-01 -0.15232591828E-01  0.29957345339E+01  0.29959856975E+01  0.51109989000E-03 0. -1.
      611    1    1    2    0    0 -0.21166237585E-01 -0.87001574100E-02  0.18830120272E+01  0.18831511512E+01  0.51109989000E-03 0.  1.
</event>
<event>
 6   3  0.2312675E+03  0.9118800E+02  0.7818608E-02  0.1180000E+00
       11   -1    0    0    0    0  0.00000000000E+00  0.00000000000E+00  0.54999999763E+01  0.55000000000E+01  0.51109989000E-03 0.  1.
     -623   -1    0    0    0    0  0.00000000000E+00  0.00000000000E+00  0.93234578044E-11  0.17124000000E+03  0.17124000000E+03 0. -1.
       11    1    1    2    0    0  0.72980880412E-02 -0.43362406623E-02  0.61990127702E+00  0.61995961122E+00  0.51109989000E-03 0.  1.
     -623    1    1    2    0    0 -0.73521327252E-01  0.48498960880E-01  0.74630458375E-03  0.17124002265E+03  0.17124000000E+03 0. -1.
     -611    1    1    2    0    0  0.48181650801E-01 -0.25201175508E-01  0.33513075308E+01  0.33517486478E+01  0.51109989000E-03 0. -1.
      611    1    1    2    0    0  0.18041588436E-01 -0.18961544728E-01  0.15280448658E+01  0.15282690902E+01  0.51109989000E-03 0.  1.
</event>
<event>
 6   3  0.2312675E+03  0.9118800E+02  0.7818608E-02  0.1180000E+00
       11   -1    0    0    0    0  0.00000000000E+00  0.00000000000E+00  0.54999999763E+01  0.55000000000E+01  0.51109989000E-03 0.  1.
     -623   -1    0    0    0    0  0.00000000000E+00  0.00000000000E+00  0.93234578044E-11  0.17124000000E+03  0.17124000000E+03 0. -1.
       11    1    1    2    0    0  0.11201480407E-01  0.10736292895E-01  0.10875608485E+01  0.10876716424E+01  0.51109989000E-03 0.  1.
     -623    1    1    2    0    0 -0.56608926777E-01 -0.42487954736E-01  0.47379168611E-03  0.17124001463E+03  0.17124000000E+03 0. -1.
     -611    1    1    2    0    0  0.73786804332E-02  0.57730761347E-02  0.72286535483E+00  0.72292624504E+00  0.51109989000E-03 0.  1.
      611    1    1    2    0    0  0.38028765583E-01  0.25978585442E-01  0.36890999469E+01  0.36893874496E+01  0.51109989000E-03 0.  1.
</event>
<event>
 6   3  0.2312675E+03  0.9118800E+02  0.7818608E-02  0.1180000E+00
       11   -1    0    0    0    0  0.00000000000E+00  0.00000000000E+00  0.54999999763E+01  0.55000000000E+01  0.51109989000E-03 0. -1.
     -623   -1    0    0    0    0  0.00000000000E+00  0.00000000000E+00  0.93234578044E-11  0.17124000000E+03  0.17124000000E+03 0. -1.
       11    1    1    2    0    0 -0.23139062162E-02 -0.33706619249E-01  0.99330200618E+00  0.99387656529E+00  0.51109989000E-03 0. -1.
     -623    1    1    2    0    0  0.11877364040E-01  0.30167947511E-02  0.34064924327E-02  0.17124000047E+03  0.17124000000E+03 0. -1.
     -611    1    1    2    0    0 -0.60302229283E-01 -0.36125073118E-01  0.14812679759E+01  0.14829350820E+01  0.51109989000E-03 0.  1.
      611    1    1    2    0    0  0.50738771459E-01  0.66814897615E-01  0.30220235017E+01  0.30231878803E+01  0.51109989000E-03 0. -1.
</event>
<event>
 6   3  0.2312675E+03  0.9118800E+02  0.7818608E-02  0.1180000E+00
       11   -1    0    0    0    0  0.00000000000E+00  0.00000000000E+00  0.54999999763E+01  0.55000000000E+01  0.51109989000E-03 0. -1.
     -623   -1    0    0    0    0  0.00000000000E+00  0.00000000000E+00  0.93234578044E-11  0.17124000000E+03  0.17124000000E+03 0.  1.
       11    1    1    2    0    0  0.25394338604E-01 -0.29760226403E-01  0.37484234070E+00  0.37687874060E+00  0.51109989000E-03 0. -1.
     -623    1    1    2    0    0 -0.11286623818E+00  0.11898748846E+00  0.36390872921E-02  0.17124007857E+03  0.17124000000E+03 0.  1.
     -611    1    1    2    0    0  0.53958677700E-01 -0.55106320893E-01  0.31692128405E+01  0.31701511849E+01  0.51109989000E-03 0. -1.
      611    1    1    2    0    0  0.33513221918E-01 -0.34120941213E-01  0.19523057104E+01  0.19528915030E+01  0.51109989000E-03 0. -1.
</event>
<event>
 6   3  0.2312675E+03  0.9118800E+02  0.7818608E-02  0.1180000E+00
       11   -1    0    0    0    0  0.00000000000E+00  0.00000000000E+00  0.54999999763E+01  0.55000000000E+01  0.51109989000E-03 0.  1.
     -623   -1    0    0    0    0  0.00000000000E+00  0.00000000000E+00  0.93234578044E-11  0.17124000000E+03  0.17124000000E+03 0. -1.
       11    1    1    2    0    0  0.14068422827E-01 -0.86708756131E-02  0.39565750187E+00  0.39600280884E+00  0.51109989000E-03 0.  1.
     -623    1    1    2    0    0 -0.10797515789E-01  0.11186094906E-01  0.10449600914E-02  0.17124000071E+03  0.17124000000E+03 0. -1.
     -611    1    1    2    0    0 -0.41263467940E-01  0.12668090889E-01  0.28615793326E+01  0.28619049062E+01  0.51109989000E-03 0. -1.
      611    1    1    2    0    0  0.37992560903E-01 -0.15183310182E-01  0.22417181818E+01  0.22420915761E+01  0.51109989000E-03 0.  1.
</event>
<event>
 6   3  0.2312675E+03  0.9118800E+02  0.7818608E-02  0.1180000E+00
       11   -1    0    0    0    0  0.00000000000E+00  0.00000000000E+00  0.54999999763E+01  0.55000000000E+01  0.51109989000E-03 0. -1.
     -623   -1    0    0    0    0  0.00000000000E+00  0.00000000000E+00  0.93234578044E-11  0.17124000000E+03  0.17124000000E+03 0.  1.
       11    1    1    2    0    0 -0.43725059935E-01  0.68147255161E-01  0.74132067359E+00  0.74572952977E+00  0.51109989000E-03 0. -1.
     -623    1    1    2    0    0 -0.23786917005E-01 -0.27295274505E-01  0.50722492316E-02  0.17124000390E+03  0.17124000000E+03 0.  1.
     -611    1    1    2    0    0  0.49206611580E-01 -0.32033407589E-01  0.36526639061E+01  0.36531358177E+01  0.51109989000E-03 0. -1.
      611    1    1    2    0    0  0.18305365364E-01 -0.88185730691E-02  0.11009431476E+01  0.11011307502E+01  0.51109989000E-03 0. -1.
</event>
<event>
 6   3  0.2312675E+03  0.9118800E+02  0.7818608E-02  0.1180000E+00
       11   -1    0    0    0    0  0.00000000000E+00  0.00000000000E+00  0.54999999763E+01  0.55000000000E+01  0.51109989000E-03 0.  1.
     -623   -1    0    0    0    0  0.00000000000E+00  0.00000000000E+00  0.93234578044E-11  0.17124000000E+03  0.17124000000E+03 0. -1.
       11    1    1    2    0    0 -0.11565197169E-01 -0.12145922805E-01  0.14163463488E+00  0.14262506178E+00  0.51109989000E-03 0.  1.
     -623    1    1    2    0    0 -0.14628802292E-01 -0.26752997419E-02  0.16161572806E-02  0.17124000065E+03  0.17124000000E+03 0. -1.
     -611    1    1    2    0    0 -0.21947195517E-01 -0.11924433972E-01  0.11981333556E+01  0.11983937878E+01  0.51109989000E-03 0. -1.
      611    1    1    2    0    0  0.48141194978E-01  0.26745656519E-01  0.41586158285E+01  0.41589804971E+01  0.51109989000E-03 0.  1.
</event>
<event>
 6   3  0.2312675E+03  0.9118800E+02  0.7818608E-02  0.1180000E+00
       11   -1    0    0    0    0  0.00000000000E+00  0.00000000000E+00  0.54999999763E+01  0.55000000000E+01  0.51109989000E-03 0.  1.
     -623   -1    0    0    0    0  0.00000000000E+00  0.00000000000E+00  0.93234578044E-11  0.17124000000E+03  0.17124000000E+03 0.  1.
       11    1    1    2    0    0  0.17976532762E-01  0.37081398355E-02  0.38880463007E+00  0.38923798326E+00  0.51109989000E-03 0.  1.
     -623    1    1    2    0    0 -0.24814721907E-01 -0.26170035486E-02  0.10457255698E-02  0.17124000182E+03  0.17124000000E+03 0.  1.
     -611    1    1    2    0    0  0.39203729313E-01 -0.14566365856E-01  0.33524502422E+01  0.33527111416E+01  0.51109989000E-03 0.  1.
      611    1    1    2    0    0 -0.32365540168E-01  0.13475229569E-01  0.17576993784E+01  0.17580490540E+01  0.51109989000E-03 0. -1.
</event>
<event>
 6   3  0.2312675E+03  0.9118800E+02  0.7818608E-02  0.1180000E+00
       11   -1    0    0    0    0  0.00000000000E+00  0.00000000000E+00  0.54999999763E+01  0.55000000000E+01  0.51109989000E-03 0.  1.
     -623   -1    0    0    0    0  0.00000000000E+00  0.00000000000E+00  0.93234578044E-11  0.17124000000E+03  0.17124000000E+03 0.  1.
       11    1    1    2    0    0  0.50057213847E-01  0.48696362671E-02  0.35629081078E+00  0.35982334705E+00  0.51109989000E-03 0.  1.
     -623    1    1    2    0    0  0.19865190936E-01  0.13256783627E-01  0.40859857433E-02  0.17124000171E+03  0.17124000000E+03 0.  1.
     -611    1    1    2    0    0 -0.28198852721E-01 -0.17918237793E-01  0.21146462521E+01  0.21149102277E+01  0.51109989000E-03 0. -1.
      611    1    1    2    0    0 -0.41723552063E-01 -0.20818210118E-03  0.30249769276E+01  0.30252647110E+01  0.51109989000E-03 0.  1.
</event>
<event>
 6   3  0.2312675E+03  0.9118800E+02  0.7818608E-02  0.1180000E+00
       11   -1    0    0    0    0  0.00000000000E+00  0.00000000000E+00  0.54999999763E+01  0.55000000000E+01  0.51109989000E-03 0. -1.
     -623   -1    0    0    0    0  0.00000000000E+00  0.00000000000E+00  0.93234578044E-11  0.17124000000E+03  0.17124000000E+03 0. -1.
       11    1    1    2    0    0 -0.31872124091E-01  0.11004265336E-02  0.95283747179E-01  0.10048033107E+00  0.51109989000E-03 0. -1.
     -623    1    1    2    0    0 -0.42263489068E-02  0.10301555882E-01  0.56054335678E-02  0.17124000045E+03  0.17124000000E+03 0. -1.
     -611    1    1    2    0    0 -0.13027607101E-01 -0.16050312742E-02  0.58343966935E+00  0.58358752871E+00  0.51109989000E-03 0.  1.
      611    1    1    2    0    0  0.49126080098E-01 -0.97969511414E-02  0.48156711262E+01  0.48159316865E+01  0.51109989000E-03 0. -1.
</event>
<event>
 6   3  0.2312675E+03  0.9118800E+02  0.7818608E-02  0.1180000E+00
       11   -1    0    0    0    0  0.00000000000E+00  0.00000000000E+00  0.54999999763E+01  0.55000000000E+01  0.51109989000E-03 0. -1.
     -623   -1    0    0    0    0  0.00000000000E+00  0.00000000000E+00  0.93234578044E-11  0.17124000000E+03  0.17124000000E+03 0.  1.
       11    1    1    2    0    0 -0.56528451935E-01  0.52405569044E-01  0.53477659919E+00  0.54030369406E+00  0.51109989000E-03 0. -1.
     -623    1    1    2    0    0 -0.22847727007E-01  0.26314400234E-02  0.64804916822E-02  0.17124000167E+03  0.17124000000E+03 0.  1.
     -611    1    1    2    0    0  0.26936643170E-01 -0.24782192286E-01  0.19024043706E+01  0.19027565242E+01  0.51109989000E-03 0.  1.
      611    1    1    2    0    0  0.52439535771E-01 -0.30254816781E-01  0.30563385147E+01  0.30569381146E+01  0.51109989000E-03 0. -1.
</event>
<event>
 6   3  0.2312675E+03  0.9118800E+02  0.7818608E-02  0.1180000E+00
       11   -1    0    0    0    0  0.00000000000E+00  0.00000000000E+00  0.54999999763E+01  0.55000000000E+01  0.51109989000E-03 0.  1.
     -623   -1    0    0    0    0  0.00000000000E+00  0.00000000000E+00  0.93234578044E-11  0.17124000000E+03  0.17124000000E+03 0. -1.
       11    1    1    2    0    0 -0.81559043195E-02 -0.57192390591E-02  0.45634938902E+00  0.45645838206E+00  0.51109989000E-03 0.  1.
     -623    1    1    2    0    0  0.10202381784E+00 -0.21874762709E-01  0.10910870769E-02  0.17124003179E+03  0.17124000000E+03 0. -1.
     -611    1    1    2    0    0 -0.67408402502E-01  0.19315912969E-01  0.35390377789E+01  0.35397324276E+01  0.51109989000E-03 0. -1.
      611    1    1    2    0    0 -0.26459510978E-01  0.82780887883E-02  0.15035217192E+01  0.15037773950E+01  0.51109989000E-03 0.  1.
</event>
<event>
 6   3  0.2312675E+03  0.9118800E+02  0.7818608E-02  0.1180000E+00
       11   -1    0    0    0    0  0.00000000000E+00  0.00000000000E+00  0.54999999763E+01  0.55000000000E+01  0.51109989000E-03 0.  1.
     -623   -1    0    0    0    0  0.00000000000E+00  0.00000000000E+00  0.93234578044E-11  0.17124000000E+03  0.17124000000E+03 0. -1.
       11    1    1    2    0    0  0.46712114792E-02 -0.58597966537E-02  0.58253537198E-01  0.58735791921E-01  0.51109989000E-03 0.  1.
     -623    1    1    2    0    0 -0.20840099278E-02 -0.30824907468E-02  0.93233230000E-03  0.17124000004E+03  0.17124000000E+03 0. -1.
     -611    1    1    2    0    0 -0.33846434982E-01  0.15146749465E-01  0.33826525041E+01  0.33828557802E+01  0.51109989000E-03 0.  1.
      611    1    1    2    0    0  0.31259233430E-01 -0.62044620646E-02  0.20581616026E+01  0.20584083848E+01  0.51109989000E-03 0. -1.
</event>
<event>
 6   3  0.2312675E+03  0.9118800E+02  0.7818608E-02  0.1180000E+00
       11   -1    0    0    0    0  0.00000000000E+00  0.00000000000E+00  0.54999999763E+01  0.55000000000E+01  0.51109989000E-03 0.  1.
     -623   -1    0    0    0    0  0.00000000000E+00  0.00000000000E+00  0.93234578044E-11  0.17124000000E+03  0.17124000000E+03 0. -1.
       11    1    1    2    0    0  0.40729150769E-02  0.15700229259E-02  0.11528947774E+00  0.11537321401E+00  0.51109989000E-03 0.  1.
     -623    1    1    2    0    0 -0.11666239487E-03  0.84532129202E-03  0.67605424272E-03  0.17124000000E+03  0.17124000000E+03 0. -1.
     -611    1    1    2    0    0  0.34256163782E-01 -0.16013431293E-01  0.31178385341E+01  0.31180678794E+01  0.51109989000E-03 0. -1.
      611    1    1    2    0    0 -0.38212416464E-01  0.13598087075E-01  0.22661959104E+01  0.22665589034E+01  0.51109989000E-03 0.  1.
</event>
<event>
 6   3  0.2312675E+03  0.9118800E+02  0.7818608E-02  0.1180000E+00
       11   -1    0    0    0    0  0.00000000000E+00  0.00000000000E+00  0.54999999763E+01  0.55000000000E+01  0.51109989000E-03 0.  1.
     -623   -1    0    0    0    0  0.00000000000E+00  0.00000000000E+00  0.93234578044E-11  0.17124000000E+03  0.17124000000E+03 0.  1.
       11    1    1    2    0    0  0.12665783058E-01 -0.16978008776E-01  0.16047177977E+00  0.16186453647E+00  0.51109989000E-03 0.  1.
     -623    1    1    2    0    0  0.23647385406E-01  0.30332930206E-01  0.12840640861E-01  0.17124000480E+03  0.17124000000E+03 0.  1.
     -611    1    1    2    0    0  0.11147393687E+00  0.31055008750E-01  0.41188268389E+01  0.41204521162E+01  0.51109989000E-03 0.  1.
      611    1    1    2    0    0 -0.14778710533E+00 -0.44409930180E-01  0.12078607168E+01  0.12176785466E+01  0.51109989000E-03 0. -1.
</event>
<event>
 6   3  0.2312675E+03  0.9118800E+02  0.7818608E-02  0.1180000E+00
       11   -1    0    0    0    0  0.00000000000E+00  0.00000000000E+00  0.54999999763E+01  0.55000000000E+01  0.51109989000E-03 0.  1.
     -623   -1    0    0    0    0  0.00000000000E+00  0.00000000000E+00  0.93234578044E-11  0.17124000000E+03  0.17124000000E+03 0. -1.
       11    1    1    2    0    0  0.11490253747E-02 -0.26634704543E-02  0.28813980819E+00  0.28815486222E+00  0.51109989000E-03 0.  1.
     -623    1    1    2    0    0 -0.72606535698E-01  0.21730411633E-01  0.55669881686E-03  0.17124001677E+03  0.17124000000E+03 0. -1.
     -611    1    1    2    0    0  0.32278577962E-01 -0.87359809609E-02  0.23729768868E+01  0.23732125464E+01  0.51109989000E-03 0.  1.
      611    1    1    2    0    0  0.39178932232E-01 -0.10330960180E-01  0.28383265727E+01  0.28386158092E+01  0.51109989000E-03 0.  1.
</event>
<event>
 6   3  0.2312675E+03  0.9118800E+02  0.7818608E-02  0.1180000E+00
       11   -1    0    0    0    0  0.00000000000E+00  0.00000000000E+00  0.54999999763E+01  0.55000000000E+01  0.51109989000E-03 0.  1.
     -623   -1    0    0    0    0  0.00000000000E+00  0.00000000000E+00  0.93234578044E-11  0.17124000000E+03  0.17124000000E+03 0. -1.
       11    1    1    2    0    0  0.16088262888E-01  0.24827497183E-01  0.10648195860E+01  0.10652306082E+01  0.51109989000E-03 0.  1.
     -623    1    1    2    0    0  0.66395539895E-01 -0.45901086302E-01  0.12628797763E-02  0.17124001903E+03  0.17124000000E+03 0. -1.
     -611    1    1    2    0    0 -0.91514669937E-02  0.33149332094E-02  0.72421239041E+00  0.72427797549E+00  0.51109989000E-03 0. -1.
      611    1    1    2    0    0 -0.73332335788E-01  0.17758655908E-01  0.37097051200E+01  0.37104723877E+01  0.51109989000E-03 0.  1.
</event>
<event>
 6   3  0.2312675E+03  0.9118800E+02  0.7818608E-02  0.1180000E+00
       11   -1    0    0    0    0  0.00000000000E+00  0.00000000000E+00  0.54999999763E+01  0.55000000000E+01  0.51109989000E-03 0. -1.
     -623   -1    0    0    0    0  0.00000000000E+00  0.00000000000E+00  0.93234578044E-11  0.17124000000E+03  0.17124000000E+03 0. -1.
       11    1    1    2    0    0  0.13203899511E-01 -0.90816491442E-02  0.27441399753E+00  0.27488201574E+00  0.51109989000E-03 0. -1.
     -623    1    1    2    0    0  0.42685319648E-01  0.72663286842E-02  0.77285660563E-03  0.17124000548E+03  0.17124000000E+03 0. -1.
     -611    1    1    2    0    0 -0.22126842607E-01  0.43927005434E-03  0.20905260060E+01  0.20906432104E+01  0.51109989000E-03 0. -1.
      611    1    1    2    0    0 -0.33762376551E-01  0.13760504053E-02  0.31342871161E+01  0.31344692978E+01  0.51109989000E-03 0. -1.
</event>
<event>
 6   3  0.2312675E+03  0.9118800E+02  0.7818608E-02  0.1180000E+00
       11   -1    0    0    0    0  0.00000000000E+00  0.00000000000E+00  0.54999999763E+01  0.55000000000E+01  0.51109989000E-03 0.  1.
     -623   -1    0    0    0    0  0.00000000000E+00  0.00000000000E+00  0.93234578044E-11  0.17124000000E+03  0.17124000000E+03 0.  1.
       11    1    1    2    0    0 -0.44507595515E-01  0.17562502457E-01  0.10671811180E+01  0.10682533255E+01  0.51109989000E-03 0.  1.
     -623    1    1    2    0    0 -0.42733571890E-02 -0.50872038283E-02  0.13625241011E-02  0.17124000013E+03  0.17124000000E+03 0.  1.
     -611    1    1    2    0    0  0.40966848517E-01 -0.91983650451E-02  0.38333621340E+01  0.38335921019E+01  0.51109989000E-03 0.  1.
      611    1    1    2    0    0  0.78141041826E-02 -0.32769335826E-02  0.59809419972E+00  0.59815443782E+00  0.51109989000E-03 0. -1.
</event>
<event>
 6   3  0.2312675E+03  0.9118800E+02  0.7818608E-02  0.1180000E+00
       11   -1    0    0    0    0  0.00000000000E+00  0.00000000000E+00  0.54999999763E+01  0.55000000000E+01  0.51109989000E-03 0.  1.
     -623   -1    0    0    0    0  0.00000000000E+00  0.00000000000E+00  0.93234578044E-11  0.17124000000E+03  0.17124000000E+03 0. -1.
       11    1    1    2    0    0  0.85148647684E-02  0.27433293723E-03  0.12999964771E+00  0.13027949880E+00  0.51109989000E-03 0.  1.
     -623    1    1    2    0    0  0.10301386599E-02 -0.21919729879E-02  0.37537505706E-02  0.17124000006E+03  0.17124000000E+03 0. -1.
     -611    1    1    2    0    0  0.78874429179E-01  0.41017207064E-01  0.33214095965E+01  0.33225992168E+01  0.51109989000E-03 0.  1.
      611    1    1    2    0    0 -0.88419432607E-01 -0.39099567013E-01  0.20448369815E+01  0.20471212261E+01  0.51109989000E-03 0. -1.
</event>
<event>
 6   3  0.2312675E+03  0.9118800E+02  0.7818608E-02  0.1180000E+00
       11   -1    0    0    0    0  0.00000000000E+00  0.00000000000E+00  0.54999999763E+01  0.55000000000E+01  0.51109989000E-03 0. -1.
     -623   -1    0    0    0    0  0.00000000000E+00  0.00000000000E+00  0.93234578044E-11  0.17124000000E+03  0.17124000000E+03 0. -1.
       11    1    1    2    0    0  0.20455402745E-02 -0.90215309139E-03  0.85009684479E-02  0.88048738131E-02  0.51109989000E-03 0. -1.
     -623    1    1    2    0    0 -0.76968738815E-03  0.16734767413E-03  0.12437511613E-02  0.17124000001E+03  0.17124000000E+03 0. -1.
     -611    1    1    2    0    0  0.36579626240E-01 -0.33936587372E-01  0.29361875595E+01  0.29366115519E+01  0.51109989000E-03 0. -1.
      611    1    1    2    0    0 -0.37855479127E-01  0.34671392789E-01  0.25540676971E+01  0.25545835679E+01  0.51109989000E-03 0.  1.
</event>
<event>
 6   3  0.2312675E+03  0.9118800E+02  0.7818608E-02  0.1180000E+00
       11   -1    0    0    0    0  0.00000000000E+00  0.00000000000E+00  0.54999999763E+01  0.55000000000E+01  0.51109989000E-03 0.  1.
     -623   -1    0    0    0    0  0.00000000000E+00  0.00000000000E+00  0.93234578044E-11  0.17124000000E+03  0.17124000000E+03 0. -1.
       11    1    1    2    0    0 -0.62697400939E-02 -0.12906743880E-02  0.44070978534E-01  0.44536365514E-01  0.51109989000E-03 0.  1.
     -623    1    1    2    0    0  0.94687945330E-02  0.81422062386E-02  0.86080041441E-03  0.17124000046E+03  0.17124000000E+03 0. -1.
     -611    1    1    2    0    0 -0.33375512100E-01  0.20539759603E-02  0.32159517909E+01  0.32161256702E+01  0.51109989000E-03 0.  1.
      611    1    1    2    0    0  0.30176457660E-01 -0.89055078109E-02  0.22391164064E+01  0.22393375068E+01  0.51109989000E-03 0. -1.
</event>
<event>
 6   3  0.2312675E+03  0.9118800E+02  0.7818608E-02  0.1180000E+00
       11   -1    0    0    0    0  0.00000000000E+00  0.00000000000E+00  0.54999999763E+01  0.55000000000E+01  0.51109989000E-03 0.  1.
     -623   -1    0    0    0    0  0.00000000000E+00  0.00000000000E+00  0.93234578044E-11  0.17124000000E+03  0.17124000000E+03 0. -1.
       11    1    1    2    0    0  0.33418875220E-02 -0.15058611396E-01  0.73359633526E+00  0.73375866218E+00  0.51109989000E-03 0.  1.
     -623    1    1    2    0    0 -0.92439291352E-02  0.15519580867E-01  0.63260649096E-03  0.17124000095E+03  0.17124000000E+03 0. -1.
     -611    1    1    2    0    0 -0.28791558594E-01  0.31324231148E-03  0.14376663855E+01  0.14379547800E+01  0.51109989000E-03 0.  1.
      611    1    1    2    0    0  0.34693600208E-01 -0.77421178408E-03  0.33281046492E+01  0.33282856041E+01  0.51109989000E-03 0. -1.
</event>
<event>
 6   3  0.2312675E+03  0.9118800E+02  0.7818608E-02  0.1180000E+00
       11   -1    0    0    0    0  0.00000000000E+00  0.00000000000E+00  0.54999999763E+01  0.55000000000E+01  0.51109989000E-03 0. -1.
     -623   -1    0    0    0    0  0.00000000000E+00  0.00000000000E+00  0.93234578044E-11  0.17124000000E+03  0.17124000000E+03 0. -1.
       11    1    1    2    0    0  0.11919394676E-02 -0.60232437341E-03  0.96067791526E-02  0.97126177280E-02  0.51109989000E-03 0. -1.
     -623    1    1    2    0    0 -0.24197590468E-02  0.16377912225E-02  0.17603406726E-02  0.17124000003E+03  0.17124000000E+03 0. -1.
     -611    1    1    2    0    0 -0.61899648003E-01  0.97677054991E-02  0.17828181374E+01  0.17839192097E+01  0.51109989000E-03 0.  1.
      611    1    1    2    0    0  0.63127467582E-01 -0.10803172348E-01  0.37058147191E+01  0.37063681386E+01  0.51109989000E-03 0. -1.
</event>
<event>
 6   3  0.2312675E+03  0.9118800E+02  0.7818608E-02  0.1180000E+00
       11   -1    0    0    0    0  0.00000000000E+00  0.00000000000E+00  0.54999999763E+01  0.55000000000E+01  0.51109989000E-03 0.  1.
     -623   -1    0    0    0    0  0.00000000000E+00  0.00000000000E+00  0.93234578044E-11  0.17124000000E+03  0.17124000000E+03 0. -1.
       11    1    1    2    0    0  0.24951306273E-01 -0.50174047692E-02  0.45569987778E+00  0.45641032182E+00  0.51109989000E-03 0.  1.
     -623    1    1    2    0    0  0.29627415648E-01  0.10337751032E-01  0.10124003652E-02  0.17124000288E+03  0.17124000000E+03 0. -1.
     -611    1    1    2    0    0 -0.15946970837E-01 -0.16312909378E-02  0.13553590786E+01  0.13554539683E+01  0.51109989000E-03 0. -1.
      611    1    1    2    0    0 -0.38631751084E-01 -0.36890553252E-02  0.36879286195E+01  0.36881328318E+01  0.51109989000E-03 0.  1.
</event>
<event>
 6   3  0.2312675E+03  0.9118800E+02  0.7818608E-02  0.1180000E+00
       11   -1    0    0    0    0  0.00000000000E+00  0.00000000000E+00  0.54999999763E+01  0.55000000000E+01  0.51109989000E-03 0.  1.
     -623   -1    0    0    0    0  0.00000000000E+00  0.00000000000E+00  0.93234578044E-11  0.17124000000E+03  0.17124000000E+03 0.  1.
       11    1    1    2    0    0  0.78951740584E-03 -0.16678479558E-01  0.60758542324E+00  0.60781502348E+00  0.51109989000E-03 0.  1.
     -623    1    1    2    0    0 -0.99753384815E-02 -0.16400697146E-04  0.45744399641E-02  0.17124000035E+03  0.17124000000E+03 0.  1.
     -611    1    1    2    0    0 -0.83162968656E-01 -0.21384878404E-01  0.33517991563E+01  0.33528989305E+01  0.51109989000E-03 0.  1.
      611    1    1    2    0    0  0.92348789732E-01  0.38079758659E-01  0.15360409567E+01  0.15392856944E+01  0.51109989000E-03 0. -1.
</event>
<event>
 6   3  0.2312675E+03  0.9118800E+02  0.7818608E-02  0.1180000E+00
       11   -1    0    0    0    0  0.00000000000E+00  0.00000000000E+00  0.54999999763E+01  0.55000000000E+01  0.51109989000E-03 0. -1.
     -623   -1    0    0    0    0  0.00000000000E+00  0.00000000000E+00  0.93234578044E-11  0.17124000000E+03  0.17124000000E+03 0. -1.
       11    1    1    2    0    0 -0.59417101293E-02 -0.62682784467E-03  0.17162656342E+00  0.17173128814E+00  0.51109989000E-03 0. -1.
     -623    1    1    2    0    0 -0.36502199032E-02 -0.61841942881E-02  0.19931369300E-02  0.17124000016E+03  0.17124000000E+03 0. -1.
     -611    1    1    2    0    0  0.66640716505E-01 -0.28470753233E-01  0.22860771784E+01  0.22872255455E+01  0.51109989000E-03 0.  1.
      611    1    1    2    0    0 -0.57048786473E-01  0.35281775366E-01  0.30403030975E+01  0.30410430043E+01  0.51109989000E-03 0. -1.
</event>
<event>
 6   3  0.2312675E+03  0.9118800E+02  0.7818608E-02  0.1180000E+00
       11   -1    0    0    0    0  0.00000000000E+00  0.00000000000E+00  0.54999999763E+01  0.55000000000E+01  0.51109989000E-03 0. -1.
     -623   -1    0    0    0    0  0.00000000000E+00  0.00000000000E+00  0.93234578044E-11  0.17124000000E+03  0.17124000000E+03 0.  1.
       11    1    1    2    0    0 -0.83224087846E-01  0.16787985876E-01  0.31913280482E+00  0.33023339263E+00  0.51109989000E-03 0. -1.
     -623    1    1    2    0    0  0.60824177937E-02 -0.41392614189E-01  0.11742137682E-01  0.17124000551E+03  0.17124000000E+03 0.  1.
     -611    1    1    2    0    0  0.24202797492E-01  0.74091901523E-02  0.17451741588E+01  0.17453577792E+01  0.51109989000E-03 0.  1.
      611    1    1    2    0    0  0.52938872566E-01  0.17195438163E-01  0.34239508753E+01  0.34244033152E+01  0.51109989000E-03 0. -1.
</event>
<event>
 6   3  0.2312675E+03  0.9118800E+02  0.7818608E-02  0.1180000E+00
       11   -1    0    0    0    0  0.00000000000E+00  0.00000000000E+00  0.54999999763E+01  0.55000000000E+01  0.51109989000E-03 0.  1.
     -623   -1    0    0    0    0  0.00000000000E+00  0.00000000000E+00  0.93234578044E-11  0.17124000000E+03  0.17124000000E+03 0. -1.
       11    1    1    2    0    0 -0.67331240909E-01  0.23818419189E-01  0.51428243691E+00  0.51921816150E+00  0.51109989000E-03 0.  1.
     -623    1    1    2    0    0 -0.69540888731E-02 -0.16404897175E-03  0.55506449726E-02  0.17124000023E+03  0.17124000000E+03 0. -1.
     -611    1    1    2    0    0  0.62092847311E-01 -0.20076094161E-01  0.43104582469E+01  0.43109522302E+01  0.51109989000E-03 0.  1.
      611    1    1    2    0    0  0.12192482469E-01 -0.35782760551E-02  0.66970864727E+00  0.66982937689E+00  0.51109989000E-03 0. -1.
</event>
<event>
 6   3  0.2312675E+03  0.9118800E+02  0.7818608E-02  0.1180000E+00
       11   -1    0    0    0    0  0.00000000000E+00  0.00000000000E+00  0.54999999763E+01  0.55000000000E+01  0.51109989000E-03 0.  1.
     -623   -1    0    0    0    0  0.00000000000E+00  0.00000000000E+00  0.93234578044E-11  0.17124000000E+03  0.17124000000E+03 0.  1.
       11    1    1    2    0    0 -0.24189652899E-02 -0.57339774391E-02 -0.20456729641E-02  0.65708364246E-02  0.51109989000E-03 0.  1.
     -623    1    1    2    0    0 -0.34567889892E-03  0.19310759039E-01  0.11897729408E-01  0.17124000150E+03  0.17124000000E+03 0.  1.
     -611    1    1    2    0    0 -0.61523385170E-01  0.32000143899E-01  0.92365999067E+00  0.92625977766E+00  0.51109989000E-03 0. -1.
      611    1    1    2    0    0  0.64288029359E-01 -0.45576925500E-01  0.45664879291E+01  0.45671678834E+01  0.51109989000E-03 0.  1.
</event>
<event>
 6   3  0.2312675E+03  0.9118800E+02  0.7818608E-02  0.1180000E+00
       11   -1    0    0    0    0  0.00000000000E+00  0.00000000000E+00  0.54999999763E+01  0.55000000000E+01  0.51109989000E-03 0.  1.
     -623   -1    0    0    0    0  0.00000000000E+00  0.00000000000E+00  0.93234578044E-11  0.17124000000E+03  0.17124000000E+03 0. -1.
       11    1    1    2    0    0 -0.20744247743E-01  0.27528854067E-01  0.71277973772E+00  0.71361290441E+00  0.51109989000E-03 0.  1.
     -623    1    1    2    0    0  0.76853743044E-02  0.82484392697E-02  0.47733502636E-02  0.17124000044E+03  0.17124000000E+03 0. -1.
     -611    1    1    2    0    0  0.67765128753E-01  0.81866639731E-02  0.40521779821E+01  0.40527528661E+01  0.51109989000E-03 0.  1.
      611    1    1    2    0    0 -0.54706255314E-01 -0.43963957309E-01  0.73026890615E+00  0.73363379177E+00  0.51109989000E-03 0. -1.
</event>
<event>
 6   3  0.2312675E+03  0.9118800E+02  0.7818608E-02  0.1180000E+00
       11   -1    0    0    0    0  0.00000000000E+00  0.00000000000E+00  0.54999999763E+01  0.55000000000E+01  0.51109989000E-03 0. -1.
     -623   -1    0    0    0    0  0.00000000000E+00  0.00000000000E+00  0.93234578044E-11  0.17124000000E+03  0.17124000000E+03 0. -1.
       11    1    1    2    0    0 -0.82298746724E-02 -0.80709614164E-02  0.36838108493E-01  0.38602833002E-01  0.51109989000E-03 0. -1.
     -623    1    1    2    0    0  0.26846204626E-02  0.75955366934E-03  0.23727821968E-02  0.17124000004E+03  0.17124000000E+03 0. -1.
     -611    1    1    2    0    0 -0.34434450910E-01  0.19375087219E-01  0.24568176534E+01  0.24571353989E+01  0.51109989000E-03 0. -1.
      611    1    1    2    0    0  0.39979705120E-01 -0.12063679472E-01  0.30039714322E+01  0.30042617289E+01  0.51109989000E-03 0.  1.
</event>
<event>
 6   3  0.2312675E+03  0.9118800E+02  0.7818608E-02  0.1180000E+00
       11   -1    0    0    0    0  0.00000000000E+00  0.00000000000E+00  0.54999999763E+01  0.55000000000E+01  0.51109989000E-03 0.  1.
     -623   -1    0    0    0    0  0.00000000000E+00  0.00000000000E+00  0.93234578044E-11  0.17124000000E+03  0.17124000000E+03 0. -1.
       11    1    1    2    0    0 -0.24325824719E-01  0.14676210771E-01  0.25790872783E+00  0.25946928532E+00  0.51109989000E-03 0.  1.
     -623    1    1    2    0    0 -0.52336073249E-01 -0.50345343739E-01  0.23019110768E-02  0.17124001541E+03  0.17124000000E+03 0. -1.
     -611    1    1    2    0    0  0.21811519581E-01  0.14881671654E-03  0.12301684100E+01  0.12303618747E+01  0.51109989000E-03 0.  1.
      611    1    1    2    0    0  0.54850378388E-01  0.35520316253E-01  0.40096209274E+01  0.40101534259E+01  0.51109989000E-03 0. -1.
</event>
<event>
 6   3  0.2312675E+03  0.9118800E+02  0.7818608E-02  0.1180000E+00
       11   -1    0    0    0    0  0.00000000000E+00  0.00000000000E+00  0.54999999763E+01  0.55000000000E+01  0.51109989000E-03 0.  1.
     -623   -1    0    0    0    0  0.00000000000E+00  0.00000000000E+00  0.93234578044E-11  0.17124000000E+03  0.17124000000E+03 0.  1.
       11    1    1    2    0    0  0.25196578672E-01  0.89385301264E-02  0.16565350076E+00  0.16779782011E+00  0.51109989000E-03 0.  1.
     -623    1    1    2    0    0 -0.79366189126E-01 -0.27407425232E-02  0.24416241882E-02  0.17124001843E+03  0.17124000000E+03 0.  1.
     -611    1    1    2    0    0  0.29478952677E-01 -0.36746655490E-02  0.29009431478E+01  0.29010952965E+01  0.51109989000E-03 0.  1.
      611    1    1    2    0    0  0.24690657753E-01 -0.25231220516E-02  0.24309617013E+01  0.24310884495E+01  0.51109989000E-03 0.  1.
</event>
<event>
 6   3  0.2312675E+03  0.9118800E+02  0.7818608E-02  0.1180000E+00
       11   -1    0    0    0    0  0.00000000000E+00  0.00000000000E+00  0.54999999763E+01  0.55000000000E+01  0.51109989000E-03 0. -1.
     -623   -1    0    0    0    0  0.00000000000E+00  0.00000000000E+00  0.93234578044E-11  0.17124000000E+03  0.17124000000E+03 0. -1.
       11    1    1    2    0    0  0.44244278140E-03 -0.65304895508E-02  0.12466024488E+00  0.12483301216E+00  0.51109989000E-03 0. -1.
     -623    1    1    2    0    0 -0.84720801151E-02  0.21772308894E-02  0.76365341301E-03  0.17124000023E+03  0.17124000000E+03 0. -1.
     -611    1    1    2    0    0  0.42859425471E-01  0.86175378328E-03  0.35125980025E+01  0.35128596131E+01  0.51109989000E-03 0. -1.
      611    1    1    2    0    0 -0.34829788137E-01  0.34915048781E-02  0.18619780755E+01  0.18623071496E+01  0.51109989000E-03 0.  1.
</event>
<event>
 6   3  0.2312675E+03  0.9118800E+02  0.7818608E-02  0.1180000E+00
       11   -1    0    0    0    0  0.00000000000E+00  0.00000000000E+00  0.54999999763E+01  0.55000000000E+01  0.51109989000E-03 0. -1.
     -623   -1    0    0    0    0  0.00000000000E+00  0.00000000000E+00  0.93234578044E-11  0.17124000000E+03  0.17124000000E+03 0. -1.
       11    1    1    2    0    0 -0.40633855623E-02 -0.30980344399E-01  0.35611386333E+00  0.35748236001E+00  0.51109989000E-03 0. -1.
     -623    1    1    2    0    0  0.37395951327E-01  0.11269149364E-01  0.56136644474E-02  0.17124000455E+03  0.17124000000E+03 0. -1.
     -611    1    1    2    0    0 -0.96635399030E-01  0.32309451509E-01  0.14079682945E+01  0.14116505519E+01  0.51109989000E-03 0.  1.
      611    1    1    2    0    0  0.63302833265E-01 -0.12598256475E-01  0.37303041540E+01  0.37308625420E+01  0.51109989000E-03 0. -1.
</event>
<event>
 6   3  0.2312675E+03  0.9118800E+02  0.7818608E-02  0.1180000E+00
       11   -1    0    0    0    0  0.00000000000E+00  0.00000000000E+00  0.54999999763E+01  0.55000000000E+01  0.51109989000E-03 0. -1.
     -623   -1    0    0    0    0  0.00000000000E+00  0.00000000000E+00  0.93234578044E-11  0.17124000000E+03  0.17124000000E+03 0.  1.
       11    1    1    2    0    0 -0.33602221006E-02  0.41280065661E-02  0.11747314126E-01  0.12907057878E-01  0.51109989000E-03 0. -1.
     -623    1    1    2    0    0  0.88360805303E-03  0.50422469285E-02  0.28564349745E-02  0.17124000010E+03  0.17124000000E+03 0.  1.
     -611    1    1    2    0    0 -0.61681688708E-01 -0.30245801068E-01  0.29173797832E+01  0.29181885648E+01  0.51109989000E-03 0.  1.
      611    1    1    2    0    0  0.64158302756E-01  0.21075547574E-01  0.25680164440E+01  0.25689042770E+01  0.51109989000E-03 0. -1.
</event>
<event>
 6   3  0.2312675E+03  0.9118800E+02  0.7818608E-02  0.1180000E+00
       11   -1    0    0    0    0  0.00000000000E+00  0.00000000000E+00  0.54999999763E+01  0.55000000000E+01  0.51109989000E-03 0.  1.
     -623   -1    0    0    0    0  0.00000000000E+00  0.00000000000E+00  0.93234578044E-11  0.17124000000E+03  0.17124000000E+03 0.  1.
       11    1    1    2    0    0  0.28827060392E-01 -0.63400429387E-01  0.60354711546E+00  0.60755246330E+00  0.51109989000E-03 0.  1.
     -623    1    1    2    0    0  0.50481361865E-01  0.33397398264E-02  0.99093554797E-02  0.17124000776E+03  0.17124000000E+03 0.  1.
     -611    1    1    2    0    0 -0.14486180379E+00  0.79816312656E-01  0.39115330677E+01  0.39150283252E+01  0.51109989000E-03 0.  1.
      611    1    1    2    0    0  0.65553381530E-01 -0.19755623096E-01  0.97501043761E+00  0.97741145131E+00  0.51109989000E-03 0. -1.
</event>
<event>
 6   3  0.2312675E+03  0.9118800E+02  0.7818608E-02  0.1180000E+00
       11   -1    0    0    0    0  0.00000000000E+00  0.00000000000E+00  0.54999999763E+01  0.55000000000E+01  0.51109989000E-03 0.  1.
     -623   -1    0    0    0    0  0.00000000000E+00  0.00000000000E+00  0.93234578044E-11  0.17124000000E+03  0.17124000000E+03 0.  1.
       11    1    1    2    0    0  0.17743988522E-01 -0.30744819260E-01  0.41218724934E+00  0.41371328572E+00  0.51109989000E-03 0.  1.
     -623    1    1    2    0    0  0.11896792916E-01 -0.47238836263E-02  0.29261356508E-02  0.17124000050E+03  0.17124000000E+03 0.  1.
     -611    1    1    2    0    0 -0.62385119293E-01  0.14671642870E-02  0.18436179518E+01  0.18446738111E+01  0.51109989000E-03 0. -1.
      611    1    1    2    0    0  0.32744337855E-01  0.34001538599E-01  0.32412686395E+01  0.32416123998E+01  0.51109989000E-03 0.  1.
</event>
<event>
 6   3  0.2312675E+03  0.9118800E+02  0.7818608E-02  0.1180000E+00
       11   -1    0    0    0    0  0.00000000000E+00  0.00000000000E+00  0.54999999763E+01  0.55000000000E+01  0.51109989000E-03 0.  1.
     -623   -1    0    0    0    0  0.00000000000E+00  0.00000000000E+00  0.93234578044E-11  0.17124000000E+03  0.17124000000E+03 0. -1.
       11    1    1    2    0    0 -0.14802668042E-02  0.18540273921E-02  0.38646763385E-01  0.38722889234E-01  0.51109989000E-03 0.  1.
     -623    1    1    2    0    0  0.38625867492E-02 -0.93216881940E-03  0.70396159382E-03  0.17124000005E+03  0.17124000000E+03 0. -1.
     -611    1    1    2    0    0 -0.33577751923E-01  0.25226775360E-01  0.29048793872E+01  0.29051830185E+01  0.51109989000E-03 0. -1.
      611    1    1    2    0    0  0.31195431978E-01 -0.26148633932E-01  0.25557698641E+01  0.25560940448E+01  0.51109989000E-03 0.  1.
</event>
<event>
 6   3  0.2312675E+03  0.9118800E+02  0.7818608E-02  0.1180000E+00
       11   -1    0    0    0    0  0.00000000000E+00  0.00000000000E+00  0.54999999763E+01  0.55000000000E+01  0.51109989000E-03 0.  1.
     -623   -1    0    0    0    0  0.00000000000E+00  0.00000000000E+00  0.93234578044E-11  0.17124000000E+03  0.17124000000E+03 0.  1.
       11    1    1    2    0    0  0.28264882515E-01 -0.13673586938E-01  0.85394261570E+00  0.85451981995E+00  0.51109989000E-03 0.  1.
     -623    1    1    2    0    0 -0.61698582539E-02  0.26173496017E-01  0.19952774027E-02  0.17124000212E+03  0.17124000000E+03 0.  1.
     -611    1    1    2    0    0  0.41069135532E-01 -0.16881868646E-01  0.27486109170E+01  0.27489696079E+01  0.51109989000E-03 0.  1.
      611    1    1    2    0    0 -0.63164159793E-01  0.43819595666E-02  0.18954511662E+01  0.18965084491E+01  0.51109989000E-03 0. -1.
</event>
<event>
 6   3  0.5527165E+03  0.9118800E+02  0.7818608E-02  0.1180000E+00
       11   -1    0    0    0    0  0.00000000000E+00  0.00000000000E+00  0.54999999763E+01  0.55000000000E+01  0.51109989000E-03 0. -1.
     -623   -1    0    0    0    0  0.00000000000E+00  0.00000000000E+00  0.93234578044E-11  0.17124000000E+03  0.17124000000E+03 0. -1.
       11    1    1    2    0    0 -0.12310458229E-02  0.31929050866E-02  0.41213206283E-02  0.53811358958E-02  0.51109989000E-03 0. -1.
     -623    1    1    2    0    0  0.64736865338E-03 -0.33254724184E-02  0.16071644765E-02  0.17124000004E+03  0.17124000000E+03 0. -1.
     -611    1    1    2    0    0  0.31017273158E-01 -0.24557569631E-02  0.26057172192E+01  0.26059030277E+01  0.51109989000E-03 0.  1.
      611    1    1    2    0    0 -0.30433595989E-01  0.25883242949E-02  0.28885542719E+01  0.28887157953E+01  0.51109989000E-03 0. -1.
</event>
<event>
 6   3  0.2312675E+03  0.9118800E+02  0.7818608E-02  0.1180000E+00
       11   -1    0    0    0    0  0.00000000000E+00  0.00000000000E+00  0.54999999763E+01  0.55000000000E+01  0.51109989000E-03 0. -1.
     -623   -1    0    0    0    0  0.00000000000E+00  0.00000000000E+00  0.93234578044E-11  0.17124000000E+03  0.17124000000E+03 0. -1.
       11    1    1    2    0    0 -0.33851782720E-02 -0.10239318535E-02  0.12379109631E-01  0.12884542939E-01  0.51109989000E-03 0. -1.
     -623    1    1    2    0    0  0.14064698659E-02 -0.13213432855E-02  0.10949715989E-02  0.17124000001E+03  0.17124000000E+03 0. -1.
     -611    1    1    2    0    0  0.37638127213E-01 -0.12696545651E-01  0.33855048204E+01  0.33857378784E+01  0.51109989000E-03 0. -1.
      611    1    1    2    0    0 -0.35659418807E-01  0.15041820790E-01  0.21010210747E+01  0.21013775644E+01  0.51109989000E-03 0.  1.
</event>
<event>
 6   3  0.2312675E+03  0.9118800E+02  0.7818608E-02  0.1180000E+00
       11   -1    0    0    0    0  0.00000000000E+00  0.00000000000E+00  0.54999999763E+01  0.55000000000E+01  0.51109989000E-03 0. -1.
     -623   -1    0    0    0    0  0.00000000000E+00  0.00000000000E+00  0.93234578044E-11  0.17124000000E+03  0.17124000000E+03 0. -1.
       11    1    1    2    0    0  0.60818495573E-02 -0.14281088300E-02  0.26859548154E+00  0.26866861059E+00  0.51109989000E-03 0. -1.
     -623    1    1    2    0    0 -0.62829596573E-01  0.24530407360E-01  0.44548054800E-03  0.17124001328E+03  0.17124000000E+03 0. -1.
     -611    1    1    2    0    0  0.31047205656E-01 -0.13359330714E-01  0.28929251248E+01  0.28931226105E+01  0.51109989000E-03 0. -1.
      611    1    1    2    0    0  0.25700541501E-01 -0.97429678717E-02  0.23380339018E+01  0.23381955073E+01  0.51109989000E-03 0.  1.
</event>
<event>
 6   3  0.2312675E+03  0.9118800E+02  0.7818608E-02  0.1180000E+00
       11   -1    0    0    0    0  0.00000000000E+00  0.00000000000E+00  0.54999999763E+01  0.55000000000E+01  0.51109989000E-03 0.  1.
     -623   -1    0    0    0    0  0.00000000000E+00  0.00000000000E+00  0.93234578044E-11  0.17124000000E+03  0.17124000000E+03 0.  1.
       11    1    1    2    0    0  0.54214353896E-01 -0.19270501974E-01  0.75555692673E+00  0.75774473220E+00  0.51109989000E-03 0.  1.
     -623    1    1    2    0    0  0.42442491142E-02  0.43691041991E-02  0.25718938692E-02  0.17124000013E+03  0.17124000000E+03 0.  1.
     -611    1    1    2    0    0 -0.37832378016E-01  0.10159222011E-01  0.30695822886E+01  0.30698322734E+01  0.51109989000E-03 0. -1.
      611    1    1    2    0    0 -0.20626225014E-01  0.47421757692E-02  0.16722888686E+01  0.16724228684E+01  0.51109989000E-03 0. -1.
</event>
<event>
 6   3  0.2312675E+03  0.9118800E+02  0.7818608E-02  0.1180000E+00
       11   -1    0    0    0    0  0.00000000000E+00  0.00000000000E+00  0.54999999763E+01  0.55000000000E+01  0.51109989000E-03 0.  1.
     -623   -1    0    0    0    0  0.00000000000E+00  0.00000000000E+00  0.93234578044E-11  0.17124000000E+03  0.17124000000E+03 0. -1.
       11    1    1    2    0    0  0.49878759655E-03  0.27487394210E-01  0.10735307262E+01  0.10738828088E+01  0.51109989000E-03 0.  1.
     -623    1    1    2    0    0 -0.13404173033E-01 -0.42038083772E-02  0.22396873656E-02  0.17124000059E+03  0.17124000000E+03 0. -1.
     -611    1    1    2    0    0 -0.41459238885E-01 -0.81341716401E-02  0.34468056412E+01  0.34470646096E+01  0.51109989000E-03 0.  1.
      611    1    1    2    0    0  0.54364624321E-01 -0.15149414193E-01  0.97742392146E+00  0.97905199075E+00  0.51109989000E-03 0. -1.
</event>
<event>
 6   3  0.2312675E+03  0.9118800E+02  0.7818608E-02  0.1180000E+00
       11   -1    0    0    0    0  0.00000000000E+00  0.00000000000E+00  0.54999999763E+01  0.55000000000E+01  0.51109989000E-03 0.  1.
     -623   -1    0    0    0    0  0.00000000000E+00  0.00000000000E+00  0.93234578044E-11  0.17124000000E+03  0.17124000000E+03 0.  1.
       11    1    1    2    0    0 -0.66951586871E-03 -0.15254311153E-02 -0.11547780664E-02  0.20904370515E-02  0.51109989000E-03 0.  1.
     -623    1    1    2    0    0 -0.39808885986E-02  0.27446558234E-02  0.55480114108E-02  0.17124000016E+03  0.17124000000E+03 0.  1.
     -611    1    1    2    0    0 -0.60262266015E-01 -0.19478222524E-01  0.11242265219E+01  0.11260090922E+01  0.51109989000E-03 0. -1.
      611    1    1    2    0    0  0.64912670483E-01  0.18258997816E-01  0.43713802210E+01  0.43719003126E+01  0.51109989000E-03 0.  1.
</event>
<event>
 6   3  0.2312675E+03  0.9118800E+02  0.7818608E-02  0.1180000E+00
       11   -1    0    0    0    0  0.00000000000E+00  0.00000000000E+00  0.54999999763E+01  0.55000000000E+01  0.51109989000E-03 0. -1.
     -623   -1    0    0    0    0  0.00000000000E+00  0.00000000000E+00  0.93234578044E-11  0.17124000000E+03  0.17124000000E+03 0. -1.
       11    1    1    2    0    0  0.48315013922E-02  0.93145936470E-02  0.30770168146E-01  0.32514143558E-01  0.51109989000E-03 0. -1.
     -623    1    1    2    0    0 -0.28426674221E-02 -0.17358333203E-01  0.71031517634E-02  0.17124000105E+03  0.17124000000E+03 0. -1.
     -611    1    1    2    0    0 -0.52339628111E-01 -0.10192104471E+00  0.32890873359E+01  0.32910823600E+01  0.51109989000E-03 0.  1.
      611    1    1    2    0    0  0.50350794141E-01  0.10996478426E+00  0.21730393205E+01  0.21764024457E+01  0.51109989000E-03 0. -1.
</event>
<event>
 6   3  0.2312675E+03  0.9118800E+02  0.7818608E-02  0.1180000E+00
       11   -1    0    0    0    0  0.00000000000E+00  0.00000000000E+00  0.54999999763E+01  0.55000000000E+01  0.51109989000E-03 0.  1.
     -623   -1    0    0    0    0  0.00000000000E+00  0.00000000000E+00  0.93234578044E-11  0.17124000000E+03  0.17124000000E+03 0. -1.
       11    1    1    2    0    0 -0.92837203268E-01 -0.40341522295E-01  0.81286921608E+00  0.81914761088E+00  0.51109989000E-03 0.  1.
     -623    1    1    2    0    0 -0.19255152169E-02  0.17480431298E-01  0.72947468723E-02  0.17124000106E+03  0.17124000000E+03 0. -1.
     -611    1    1    2    0    0  0.27596886321E-01  0.65597168918E-02  0.13705396837E+01  0.13708332882E+01  0.51109989000E-03 0.  1.
      611    1    1    2    0    0  0.67165832339E-01  0.16301374148E-01  0.33092963382E+01  0.33100180512E+01  0.51109989000E-03 0.  1.
</event>
<event>
 6   3  0.2312675E+03  0.9118800E+02  0.7818608E-02  0.1180000E+00
       11   -1    0    0    0    0  0.00000000000E+00  0.00000000000E+00  0.54999999763E+01  0.55000000000E+01  0.51109989000E-03 0. -1.
     -623   -1    0    0    0    0  0.00000000000E+00  0.00000000000E+00  0.93234578044E-11  0.17124000000E+03  0.17124000000E+03 0. -1.
       11    1    1    2    0    0 -0.15898012519E-02 -0.16261517793E-02  0.50437487072E-02  0.55562992854E-02  0.51109989000E-03 0. -1.
     -623    1    1    2    0    0 -0.90453609145E-04  0.18424968007E-02  0.10157929530E-02  0.17124000001E+03  0.17124000000E+03 0. -1.
     -611    1    1    2    0    0  0.37664361668E-01  0.23686132666E-02  0.31385672330E+01  0.31387941557E+01  0.51109989000E-03 0.  1.
      611    1    1    2    0    0 -0.35984106807E-01 -0.25849582880E-02  0.23553732014E+01  0.23556495319E+01  0.51109989000E-03 0. -1.
</event>
<event>
 6   3  0.2312675E+03  0.9118800E+02  0.7818608E-02  0.1180000E+00
       11   -1    0    0    0    0  0.00000000000E+00  0.00000000000E+00  0.54999999763E+01  0.55000000000E+01  0.51109989000E-03 0.  1.
     -623   -1    0    0    0    0  0.00000000000E+00  0.00000000000E+00  0.93234578044E-11  0.17124000000E+03  0.17124000000E+03 0.  1.
       11    1    1    2    0    0 -0.10695434151E+00  0.49414692929E-01  0.61502491933E+00  0.62620839636E+00  0.51109989000E-03 0.  1.
     -623    1    1    2    0    0  0.11864131274E-01 -0.59059456328E-03  0.12361789625E-01  0.17124000086E+03  0.17124000000E+03 0.  1.
     -611    1    1    2    0    0  0.16426829746E-01 -0.10787224960E-01  0.82022842228E+00  0.82046397294E+00  0.51109989000E-03 0. -1.
      611    1    1    2    0    0  0.78663380497E-01 -0.38036873407E-01  0.40523848452E+01  0.40533267727E+01  0.51109989000E-03 0.  1.
</event>
<event>
 6   3  0.2312675E+03  0.9118800E+02  0.7818608E-02  0.1180000E+00
       11   -1    0    0    0    0  0.00000000000E+00  0.00000000000E+00  0.54999999763E+01  0.55000000000E+01  0.51109989000E-03 0. -1.
     -623   -1    0    0    0    0  0.00000000000E+00  0.00000000000E+00  0.93234578044E-11  0.17124000000E+03  0.17124000000E+03 0.  1.
       11    1    1    2    0    0  0.56868514753E-01 -0.20902851890E-01  0.96867465696E+00  0.97056777684E+00  0.51109989000E-03 0. -1.
     -623    1    1    2    0    0  0.92421603483E-02 -0.42472222329E-01  0.28251552369E-02  0.17124000554E+03  0.17124000000E+03 0.  1.
     -611    1    1    2    0    0 -0.80817158784E-02  0.84399610529E-02  0.56427107331E+00  0.56439228597E+00  0.51109989000E-03 0.  1.
      611    1    1    2    0    0 -0.58028959218E-01  0.54935113161E-01  0.39642290904E+01  0.39650343970E+01  0.51109989000E-03 0. -1.
</event>
<event>
 6   3  0.2312675E+03  0.9118800E+02  0.7818608E-02  0.1180000E+00
       11   -1    0    0    0    0  0.00000000000E+00  0.00000000000E+00  0.54999999763E+01  0.55000000000E+01  0.51109989000E-03 0. -1.
     -623   -1    0    0    0    0  0.00000000000E+00  0.00000000000E+00  0.93234578044E-11  0.17124000000E+03  0.17124000000E+03 0.  1.
       11    1    1    2    0    0 -0.30462646884E-02  0.37480322106E-02  0.16675517975E-01  0.17368408011E-01  0.51109989000E-03 0. -1.
     -623    1    1    2    0    0  0.12204451527E-02  0.42707936876E-03  0.26572796597E-02  0.17124000003E+03  0.17124000000E+03 0.  1.
     -611    1    1    2    0    0  0.71246342302E-01  0.49739603996E-02  0.34960725972E+01  0.34968020601E+01  0.51109989000E-03 0. -1.
      611    1    1    2    0    0 -0.69420522767E-01 -0.91490719790E-02  0.19845945815E+01  0.19858295064E+01  0.51109989000E-03 0.  1.
</event>
<event>
 6   3  0.2312675E+03  0.9118800E+02  0.7818608E-02  0.1180000E+00
       11   -1    0    0    0    0  0.00000000000E+00  0.00000000000E+00  0.54999999763E+01  0.55000000000E+01  0.51109989000E-03 0. -1.
     -623   -1    0    0    0    0  0.00000000000E+00  0.00000000000E+00  0.93234578044E-11  0.17124000000E+03  0.17124000000E+03 0.  1.
       11    1    1    2    0    0 -0.63542473363E-01  0.43022470708E-02  0.75840459728E+00  0.76107420771E+00  0.51109989000E-03 0. -1.
     -623    1    1    2    0    0 -0.47934445915E-02 -0.10698470392E-01  0.32880827015E-02  0.17124000043E+03  0.17124000000E+03 0.  1.
     -611    1    1    2    0    0  0.50129301381E-01  0.18889229690E-01  0.36583760029E+01  0.36587682340E+01  0.51109989000E-03 0. -1.
      611    1    1    2    0    0  0.18206616574E-01 -0.12493006368E-01  0.10799312934E+01  0.10801571255E+01  0.51109989000E-03 0.  1.
</event>
<event>
 6   3  0.2312675E+03  0.9118800E+02  0.7818608E-02  0.1180000E+00
       11   -1    0    0    0    0  0.00000000000E+00  0.00000000000E+00  0.54999999763E+01  0.55000000000E+01  0.51109989000E-03 0.  1.
     -623   -1    0    0    0    0  0.00000000000E+00  0.00000000000E+00  0.93234578044E-11  0.17124000000E+03  0.17124000000E+03 0. -1.
       11    1    1    2    0    0 -0.20040716879E-01  0.23014432015E-01  0.85367884820E+00  0.85422428641E+00  0.51109989000E-03 0.  1.
     -623    1    1    2    0    0 -0.28836779876E-01 -0.11992696565E-01  0.81897223797E-03  0.17124000285E+03  0.17124000000E+03 0. -1.
     -611    1    1    2    0    0  0.11432623070E-01 -0.23147614234E-02  0.10168616397E+01  0.10169286693E+01  0.51109989000E-03 0. -1.
      611    1    1    2    0    0  0.37444873715E-01 -0.87069740322E-02  0.36286405190E+01  0.36288441972E+01  0.51109989000E-03 0.  1.
</event>
<event>
 6   3  0.2312675E+03  0.9118800E+02  0.7818608E-02  0.1180000E+00
       11   -1    0    0    0    0  0.00000000000E+00  0.00000000000E+00  0.54999999763E+01  0.55000000000E+01  0.51109989000E-03 0. -1.
     -623   -1    0    0    0    0  0.00000000000E+00  0.00000000000E+00  0.93234578044E-11  0.17124000000E+03  0.17124000000E+03 0. -1.
       11    1    1    2    0    0  0.51845253532E-01  0.41546052222E-01  0.95485715966E+00  0.95716584840E+00  0.51109989000E-03 0. -1.
     -623    1    1    2    0    0 -0.72350126538E-01 -0.27483304131E-01  0.37317573586E-02  0.17124001753E+03  0.17124000000E+03 0. -1.
     -611    1    1    2    0    0  0.55822473842E-01 -0.15766614278E-02  0.13117557978E+01  0.13129440844E+01  0.51109989000E-03 0. -1.
      611    1    1    2    0    0 -0.35317600835E-01 -0.12486086663E-01  0.32296552615E+01  0.32298725369E+01  0.51109989000E-03 0.  1.
</event>
<event>
 6   3  0.2312675E+03  0.9118800E+02  0.7818608E-02  0.1180000E+00
       11   -1    0    0    0    0  0.00000000000E+00  0.00000000000E+00  0.54999999763E+01  0.55000000000E+01  0.51109989000E-03 0.  1.
     -623   -1    0    0    0    0  0.00000000000E+00  0.00000000000E+00  0.93234578044E-11  0.17124000000E+03  0.17124000000E+03 0. -1.
       11    1    1    2    0    0  0.92106729455E-02  0.16868519950E-02  0.71462896968E+00  0.71469049769E+00  0.51109989000E-03 0.  1.
     -623    1    1    2    0    0 -0.76643496014E-01 -0.34108741701E-01  0.66721621766E-03  0.17124002055E+03  0.17124000000E+03 0. -1.
     -611    1    1    2    0    0  0.20215804296E-01  0.97656847753E-02  0.14179941304E+01  0.14181719439E+01  0.51109989000E-03 0.  1.
      611    1    1    2    0    0  0.47217018345E-01  0.22656204740E-01  0.33667096293E+01  0.33671169774E+01  0.51109989000E-03 0.  1.
</event>
<event>
 6   3  0.2312675E+03  0.9118800E+02  0.7818608E-02  0.1180000E+00
       11   -1    0    0    0    0  0.00000000000E+00  0.00000000000E+00  0.54999999763E+01  0.55000000000E+01  0.51109989000E-03 0. -1.
     -623   -1    0    0    0    0  0.00000000000E+00  0.00000000000E+00  0.93234578044E-11  0.17124000000E+03  0.17124000000E+03 0.  1.
       11    1    1    2    0    0 -0.25980209251E-01  0.21273783292E-01  0.59619354956E+00  0.59713863959E+00  0.51109989000E-03 0. -1.
     -623    1    1    2    0    0 -0.58176691417E-01  0.22183274627E-01  0.18799038880E-02  0.17124001133E+03  0.17124000000E+03 0.  1.
     -611    1    1    2    0    0  0.13196523755E-01 -0.33831185891E-02  0.74524446402E+00  0.74536914754E+00  0.51109989000E-03 0.  1.
      611    1    1    2    0    0  0.70960376911E-01 -0.40073939329E-01  0.41566820587E+01  0.41574808831E+01  0.51109989000E-03 0. -1.
</event>
<event>
 6   3  0.2312675E+03  0.9118800E+02  0.7818608E-02  0.1180000E+00
       11   -1    0    0    0    0  0.00000000000E+00  0.00000000000E+00  0.54999999763E+01  0.55000000000E+01  0.51109989000E-03 0.  1.
     -623   -1    0    0    0    0  0.00000000000E+00  0.00000000000E+00  0.93234578044E-11  0.17124000000E+03  0.17124000000E+03 0. -1.
       11    1    1    2    0    0 -0.24271911971E-01  0.23004872794E-02  0.10419362028E+01  0.10422215358E+01  0.51109989000E-03 0.  1.
     -623    1    1    2    0    0  0.23906058219E-02 -0.21337689871E-02  0.14822028799E-02  0.17124000004E+03  0.17124000000E+03 0. -1.
     -611    1    1    2    0    0  0.61101209504E-01  0.79302712203E-02  0.23009725085E+01  0.23017973397E+01  0.51109989000E-03 0.  1.
      611    1    1    2    0    0 -0.39219903355E-01 -0.80969895126E-02  0.21556090621E+01  0.21559810880E+01  0.51109989000E-03 0. -1.
</event>
<event>
 6   3  0.2312675E+03  0.9118800E+02  0.7818608E-02  0.1180000E+00
       11   -1    0    0    0    0  0.00000000000E+00  0.00000000000E+00  0.54999999763E+01  0.55000000000E+01  0.51109989000E-03 0.  1.
     -623   -1    0    0    0    0  0.00000000000E+00  0.00000000000E+00  0.93234578044E-11  0.17124000000E+03  0.17124000000E+03 0.  1.
       11    1    1    2    0    0  0.11352227257E-01  0.23536994808E-03  0.75677062774E+00  0.75685597883E+00  0.51109989000E-03 0.  1.
     -623    1    1    2    0    0 -0.10332504124E-02 -0.36358291132E-02  0.10658057908E-02  0.17124000005E+03  0.17124000000E+03 0.  1.
     -611    1    1    2    0    0  0.34647843736E-01 -0.13772333581E-01  0.32282231992E+01  0.32284385444E+01  0.51109989000E-03 0.  1.
      611    1    1    2    0    0 -0.44966820580E-01  0.17172792746E-01  0.15139403436E+01  0.15147054318E+01  0.51109989000E-03 0. -1.
</event>
<event>
 6   3  0.2312675E+03  0.9118800E+02  0.7818608E-02  0.1180000E+00
       11   -1    0    0    0    0  0.00000000000E+00  0.00000000000E+00  0.54999999763E+01  0.55000000000E+01  0.51109989000E-03 0.  1.
     -623   -1    0    0    0    0  0.00000000000E+00  0.00000000000E+00  0.93234578044E-11  0.17124000000E+03  0.17124000000E+03 0.  1.
       11    1    1    2    0    0 -0.12594626445E-01  0.18670455356E-01  0.15581552750E+00  0.15743554349E+00  0.51109989000E-03 0.  1.
     -623    1    1    2    0    0 -0.46640241330E-01  0.19358369721E-01  0.20928658069E-02  0.17124000746E+03  0.17124000000E+03 0.  1.
     -611    1    1    2    0    0  0.35515160549E-01 -0.23957908709E-01  0.33803927456E+01  0.33806642370E+01  0.51109989000E-03 0. -1.
      611    1    1    2    0    0  0.23719707226E-01 -0.14070916368E-01  0.19616988373E+01  0.19618927608E+01  0.51109989000E-03 0.  1.
</event>
<event>
 6   3  0.2312675E+03  0.9118800E+02  0.7818608E-02  0.1180000E+00
       11   -1    0    0    0    0  0.00000000000E+00  0.00000000000E+00  0.54999999763E+01  0.55000000000E+01  0.51109989000E-03 0.  1.
     -623   -1    0    0    0    0  0.00000000000E+00  0.00000000000E+00  0.93234578044E-11  0.17124000000E+03  0.17124000000E+03 0. -1.
       11    1    1    2    0    0 -0.14020608339E-02  0.46584624311E-02 -0.78589420839E-03  0.49543818593E-02  0.51109989000E-03 0.  1.
     -623    1    1    2    0    0  0.21482016657E-02  0.34442682655E-02  0.63718223928E-02  0.17124000017E+03  0.17124000000E+03 0. -1.
     -611    1    1    2    0    0  0.37224172301E-01  0.13154160714E-01  0.23828646285E+01  0.23831917191E+01  0.51109989000E-03 0. -1.
      611    1    1    2    0    0 -0.37970313133E-01 -0.21256891411E-01  0.31115494196E+01  0.31118537324E+01  0.51109989000E-03 0.  1.
</event>
<event>
 6   3  0.2312675E+03  0.9118800E+02  0.7818608E-02  0.1180000E+00
       11   -1    0    0    0    0  0.00000000000E+00  0.00000000000E+00  0.54999999763E+01  0.55000000000E+01  0.51109989000E-03 0. -1.
     -623   -1    0    0    0    0  0.00000000000E+00  0.00000000000E+00  0.93234578044E-11  0.17124000000E+03  0.17124000000E+03 0.  1.
       11    1    1    2    0    0 -0.43187795877E-02 -0.97456266927E-02  0.13713334166E+00  0.13754796878E+00  0.51109989000E-03 0. -1.
     -623    1    1    2    0    0  0.22475183880E-02 -0.10066631316E-02  0.11057660170E-02  0.17124000002E+03  0.17124000000E+03 0.  1.
     -611    1    1    2    0    0 -0.32023534292E-01  0.30458404546E-01  0.21845983896E+01  0.21850454471E+01  0.51109989000E-03 0.  1.
      611    1    1    2    0    0  0.34094795492E-01 -0.19706114722E-01  0.31771624791E+01  0.31774065629E+01  0.51109989000E-03 0. -1.
</event>
<event>
 6   3  0.2312675E+03  0.9118800E+02  0.7818608E-02  0.1180000E+00
       11   -1    0    0    0    0  0.00000000000E+00  0.00000000000E+00  0.54999999763E+01  0.55000000000E+01  0.51109989000E-03 0.  1.
     -623   -1    0    0    0    0  0.00000000000E+00  0.00000000000E+00  0.93234578044E-11  0.17124000000E+03  0.17124000000E+03 0. -1.
       11    1    1    2    0    0 -0.35147186096E-03 -0.18210533093E-03  0.24474459107E-02  0.25313848787E-02  0.51109989000E-03 0. -1.
     -623    1    1    2    0    0 -0.84078146832E-03 -0.10064266019E-02  0.13846327874E-02  0.17124000001E+03  0.17124000000E+03 0. -1.
     -611    1    1    2    0    0 -0.50664450266E-01 -0.14146208958E-01  0.14762418364E+01  0.14771788052E+01  0.51109989000E-03 0.  1.
      611    1    1    2    0    0  0.51856703595E-01  0.15334740891E-01  0.40199260612E+01  0.40202897993E+01  0.51109989000E-03 0. -1.
</event>
<event>
 6   3  0.2312675E+03  0.9118800E+02  0.7818608E-02  0.1180000E+00
       11   -1    0    0    0    0  0.00000000000E+00  0.00000000000E+00  0.54999999763E+01  0.55000000000E+01  0.51109989000E-03 0.  1.
     -623   -1    0    0    0    0  0.00000000000E+00  0.00000000000E+00  0.93234578044E-11  0.17124000000E+03  0.17124000000E+03 0. -1.
       11    1    1    2    0    0  0.28673322194E-02 -0.37915591032E-03  0.16842123972E-01  0.17096307094E-01  0.51109989000E-03 0.  1.
     -623    1    1    2    0    0 -0.39791719575E-02 -0.74307566330E-02  0.75725904101E-03  0.17124000021E+03  0.17124000000E+03 0. -1.
     -611    1    1    2    0    0  0.35792749357E-01  0.99159757125E-02  0.21407269930E+01  0.21410492211E+01  0.51109989000E-03 0. -1.
      611    1    1    2    0    0 -0.34680909618E-01 -0.21060631691E-02  0.33416736004E+01  0.33418542628E+01  0.51109989000E-03 0.  1.
</event>
<event>
 6   3  0.2929058E+03  0.9118800E+02  0.7818608E-02  0.1180000E+00
       11   -1    0    0    0    0  0.00000000000E+00  0.00000000000E+00  0.54999999763E+01  0.55000000000E+01  0.51109989000E-03 0. -1.
     -623   -1    0    0    0    0  0.00000000000E+00  0.00000000000E+00  0.93234578044E-11  0.17124000000E+03  0.17124000000E+03 0. -1.
       11    1    1    2    0    0  0.79408728608E-03  0.28314636739E-03  0.10552275244E-02  0.14441172768E-02  0.51109989000E-03 0. -1.
     -623    1    1    2    0    0 -0.16443747500E-02 -0.32015513133E-03  0.82276830655E-03  0.17124000001E+03  0.17124000000E+03 0. -1.
     -611    1    1    2    0    0  0.33829014577E-01  0.87267522318E-02  0.27057502650E+01  0.27059758528E+01  0.51109989000E-03 0. -1.
      611    1    1    2    0    0 -0.32978727113E-01 -0.86897434679E-02  0.27923717155E+01  0.27925800198E+01  0.51109989000E-03 0.  1.
</event>
<event>
 6   3  0.2312675E+03  0.9118800E+02  0.7818608E-02  0.1180000E+00
       11   -1    0    0    0    0  0.00000000000E+00  0.00000000000E+00  0.54999999763E+01  0.55000000000E+01  0.51109989000E-03 0.  1.
     -623   -1    0    0    0    0  0.00000000000E+00  0.00000000000E+00  0.93234578044E-11  0.17124000000E+03  0.17124000000E+03 0.  1.
       11    1    1    2    0    0  0.15748376678E-02  0.79795759119E-02  0.62811249183E-01  0.63337729612E-01  0.51109989000E-03 0.  1.
     -623    1    1    2    0    0 -0.11447974207E+00 -0.44882741606E-01  0.18689226758E-02  0.17124004416E+03  0.17124000000E+03 0.  1.
     -611    1    1    2    0    0  0.96451954888E-01  0.32119586435E-01  0.46674156074E+01  0.46685226101E+01  0.51109989000E-03 0.  1.
      611    1    1    2    0    0  0.16452949469E-01  0.47835792447E-02  0.76790419490E+00  0.76809549923E+00  0.51109989000E-03 0.  1.
</event>
<event>
 6   3  0.2312675E+03  0.9118800E+02  0.7818608E-02  0.1180000E+00
       11   -1    0    0    0    0  0.00000000000E+00  0.00000000000E+00  0.54999999763E+01  0.55000000000E+01  0.51109989000E-03 0.  1.
     -623   -1    0    0    0    0  0.00000000000E+00  0.00000000000E+00  0.93234578044E-11  0.17124000000E+03  0.17124000000E+03 0. -1.
       11    1    1    2    0    0 -0.17988960941E-02 -0.14778148124E-02  0.53751792221E-01  0.53804612756E-01  0.51109989000E-03 0.  1.
     -623    1    1    2    0    0  0.64537611733E-03 -0.51943505639E-02  0.15065723764E-02  0.17124000009E+03  0.17124000000E+03 0. -1.
     -611    1    1    2    0    0  0.41585142088E-01 -0.44113849850E-01  0.28117695440E+01  0.28124230808E+01  0.51109989000E-03 0.  1.
      611    1    1    2    0    0 -0.40431622111E-01  0.50786015227E-01  0.26329720677E+01  0.26337722198E+01  0.51109989000E-03 0. -1.
</event>
<event>
 6   3  0.2312675E+03  0.9118800E+02  0.7818608E-02  0.1180000E+00
       11   -1    0    0    0    0  0.00000000000E+00  0.00000000000E+00  0.54999999763E+01  0.55000000000E+01  0.51109989000E-03 0. -1.
     -623   -1    0    0    0    0  0.00000000000E+00  0.00000000000E+00  0.93234578044E-11  0.17124000000E+03  0.17124000000E+03 0.  1.
       11    1    1    2    0    0  0.25813792927E-02  0.52168759654E-02  0.10464371375E+01  0.10464534501E+01  0.51109989000E-03 0. -1.
     -623    1    1    2    0    0  0.47081536268E-01 -0.28325891463E-01  0.36238073111E-03  0.17124000882E+03  0.17124000000E+03 0.  1.
     -611    1    1    2    0    0 -0.27623719677E-01  0.13685446878E-01  0.24859318343E+01  0.24861230274E+01  0.51109989000E-03 0. -1.
      611    1    1    2    0    0 -0.22039195904E-01  0.94235686299E-02  0.19672686257E+01  0.19674147089E+01  0.51109989000E-03 0. -1.
</event>
<event>
 6   3  0.2312675E+03  0.9118800E+02  0.7818608E-02  0.1180000E+00
       11   -1    0    0    0    0  0.00000000000E+00  0.00000000000E+00  0.54999999763E+01  0.55000000000E+01  0.51109989000E-03 0. -1.
     -623   -1    0    0    0    0  0.00000000000E+00  0.00000000000E+00  0.93234578044E-11  0.17124000000E+03  0.17124000000E+03 0. -1.
       11    1    1    2    0    0 -0.15694333885E-01  0.34612604383E-03  0.15843967422E+00  0.15921627904E+00  0.51109989000E-03 0. -1.
     -623    1    1    2    0    0 -0.48598292749E-02 -0.65115381085E-02  0.12365561918E-02  0.17124000020E+03  0.17124000000E+03 0. -1.
     -611    1    1    2    0    0  0.40896518686E-01  0.19696920612E-01  0.36789930760E+01  0.36792731358E+01  0.51109989000E-03 0. -1.
      611    1    1    2    0    0 -0.20342355526E-01 -0.13531508547E-01  0.16613306698E+01  0.16615103878E+01  0.51109989000E-03 0.  1.
</event>
<event>
 6   3  0.8934654E+03  0.9118800E+02  0.7818608E-02  0.1180000E+00
       11   -1    0    0    0    0  0.00000000000E+00  0.00000000000E+00  0.54999999763E+01  0.55000000000E+01  0.51109989000E-03 0. -1.
     -623   -1    0    0    0    0  0.00000000000E+00  0.00000000000E+00  0.93234578044E-11  0.17124000000E+03  0.17124000000E+03 0.  1.
       11    1    1    2    0    0 -0.35055684844E-03 -0.14228285656E-03  0.30741694794E-02  0.31392476170E-02  0.51109989000E-03 0. -1.
     -623    1    1    2    0    0  0.37529973822E-03  0.16722965334E-04  0.47801472323E-03  0.17124000000E+03  0.17124000000E+03 0.  1.
     -611    1    1    2    0    0  0.33458590455E-01  0.33163587933E-02  0.25888758753E+01  0.25890942498E+01  0.51109989000E-03 0.  1.
      611    1    1    2    0    0 -0.33483333345E-01 -0.31907989021E-02  0.29075719171E+01  0.29077665018E+01  0.51109989000E-03 0. -1.
</event>
<event>
 6   3  0.2312675E+03  0.9118800E+02  0.7818608E-02  0.1180000E+00
       11   -1    0    0    0    0  0.00000000000E+00  0.00000000000E+00  0.54999999763E+01  0.55000000000E+01  0.51109989000E-03 0. -1.
     -623   -1    0    0    0    0  0.00000000000E+00  0.00000000000E+00  0.93234578044E-11  0.17124000000E+03  0.17124000000E+03 0.  1.
       11    1    1    2    0    0  0.89858154829E-02  0.42231361659E-02  0.36652107390E-01  0.37976544843E-01  0.51109989000E-03 0. -1.
     -623    1    1    2    0    0 -0.14033637927E-01  0.41026679873E-02  0.39395619068E-02  0.17124000067E+03  0.17124000000E+03 0.  1.
     -611    1    1    2    0    0  0.60808299707E-01 -0.82420237564E-02  0.47598360766E+01  0.47602316454E+01  0.51109989000E-03 0. -1.
      611    1    1    2    0    0 -0.55760477263E-01 -0.83780396771E-04  0.69957223035E+00  0.70179114025E+00  0.51109989000E-03 0.  1.
</event>
<event>
 6   3  0.2312675E+03  0.9118800E+02  0.7818608E-02  0.1180000E+00
       11   -1    0    0    0    0  0.00000000000E+00  0.00000000000E+00  0.54999999763E+01  0.55000000000E+01  0.51109989000E-03 0. -1.
     -623   -1    0    0    0    0  0.00000000000E+00  0.00000000000E+00  0.93234578044E-11  0.17124000000E+03  0.17124000000E+03 0. -1.
       11    1    1    2    0    0  0.25288952592E-03  0.22294947786E-02  0.95338959651E-01  0.95366729264E-01  0.51109989000E-03 0. -1.
     -623    1    1    2    0    0  0.25741877309E-02 -0.12266087674E-01  0.15930157360E-02  0.17124000047E+03  0.17124000000E+03 0. -1.
     -611    1    1    2    0    0  0.48277446272E-01 -0.21607924978E-01  0.39065043891E+01  0.39068624774E+01  0.51109989000E-03 0. -1.
      611    1    1    2    0    0 -0.51104523529E-01  0.31644517873E-01  0.14965636118E+01  0.14977703272E+01  0.51109989000E-03 0.  1.
</event>
<event>
 6   3  0.2312675E+03  0.9118800E+02  0.7818608E-02  0.1180000E+00
       11   -1    0    0    0    0  0.00000000000E+00  0.00000000000E+00  0.54999999763E+01  0.55000000000E+01  0.51109989000E-03 0.  1.
     -623   -1    0    0    0    0  0.00000000000E+00  0.00000000000E+00  0.93234578044E-11  0.17124000000E+03  0.17124000000E+03 0. -1.
       11    1    1    2    0    0 -0.64568532257E-02 -0.46754970621E-02  0.25091777292E+00  0.25104489880E+00  0.51109989000E-03 0.  1.
     -623    1    1    2    0    0 -0.53736716943E-01  0.39121397017E-01  0.62628139264E-03  0.17124001290E+03  0.17124000000E+03 0. -1.
     -611    1    1    2    0    0  0.41618261220E-01 -0.30964200159E-01  0.35069923007E+01  0.35073759593E+01  0.51109989000E-03 0.  1.
      611    1    1    2    0    0  0.18575308955E-01 -0.34816997997E-02  0.17414636219E+01  0.17415662410E+01  0.51109989000E-03 0. -1.
</event>
<event>
 6   3  0.2312675E+03  0.9118800E+02  0.7818608E-02  0.1180000E+00
       11   -1    0    0    0    0  0.00000000000E+00  0.00000000000E+00  0.54999999763E+01  0.55000000000E+01  0.51109989000E-03 0.  1.
     -623   -1    0    0    0    0  0.00000000000E+00  0.00000000000E+00  0.93234578044E-11  0.17124000000E+03  0.17124000000E+03 0.  1.
       11    1    1    2    0    0  0.46272525968E-01  0.13730664870E-01  0.46374282337E+00  0.46624815846E+00  0.51109989000E-03 0.  1.
     -623    1    1    2    0    0  0.19246333816E-01 -0.20381438896E-01  0.29387342432E-02  0.17124000232E+03  0.17124000000E+03 0.  1.
     -611    1    1    2    0    0 -0.51067741584E-01  0.51870092378E-02  0.39606465344E+01  0.39609791783E+01  0.51109989000E-03 0.  1.
      611    1    1    2    0    0 -0.14451118203E-01  0.14637647885E-02  0.10726718845E+01  0.10727703438E+01  0.51109989000E-03 0.  1.
</event>
<event>
 6   3  0.2312675E+03  0.9118800E+02  0.7818608E-02  0.1180000E+00
       11   -1    0    0    0    0  0.00000000000E+00  0.00000000000E+00  0.54999999763E+01  0.55000000000E+01  0.51109989000E-03 0.  1.
     -623   -1    0    0    0    0  0.00000000000E+00  0.00000000000E+00  0.93234578044E-11  0.17124000000E+03  0.17124000000E+03 0.  1.
       11    1    1    2    0    0  0.77564778311E-01 -0.32076779996E-01  0.10192227251E+01  0.10226731830E+01  0.51109989000E-03 0.  1.
     -623    1    1    2    0    0 -0.90315729965E-03 -0.13999902003E-01  0.43448090168E-02  0.17124000063E+03  0.17124000000E+03 0.  1.
     -611    1    1    2    0    0 -0.23045154664E-01  0.14405775040E-01  0.13580150070E+01  0.13582870190E+01  0.51109989000E-03 0. -1.
      611    1    1    2    0    0 -0.53616466407E-01  0.31670906995E-01  0.31184174387E+01  0.31190391717E+01  0.51109989000E-03 0.  1.
</event>
<event>
 6   3  0.2312675E+03  0.9118800E+02  0.7818608E-02  0.1180000E+00
       11   -1    0    0    0    0  0.00000000000E+00  0.00000000000E+00  0.54999999763E+01  0.55000000000E+01  0.51109989000E-03 0.  1.
     -623   -1    0    0    0    0  0.00000000000E+00  0.00000000000E+00  0.93234578044E-11  0.17124000000E+03  0.17124000000E+03 0. -1.
       11    1    1    2    0    0  0.97723866709E-02  0.29990106012E-01  0.62314360027E+00  0.62394159484E+00  0.51109989000E-03 0.  1.
     -623    1    1    2    0    0  0.40788022872E-01 -0.51438487921E-01  0.11200694064E-02  0.17124001259E+03  0.17124000000E+03 0. -1.
     -611    1    1    2    0    0 -0.20318108799E-01  0.81452151152E-02  0.19377306710E+01  0.19378543766E+01  0.51109989000E-03 0.  1.
      611    1    1    2    0    0 -0.30242300642E-01  0.13303166749E-01  0.29380056257E+01  0.29381914316E+01  0.51109989000E-03 0.  1.
</event>
<event>
 6   3  0.2312675E+03  0.9118800E+02  0.7818608E-02  0.1180000E+00
       11   -1    0    0    0    0  0.00000000000E+00  0.00000000000E+00  0.54999999763E+01  0.55000000000E+01  0.51109989000E-03 0.  1.
     -623   -1    0    0    0    0  0.00000000000E+00  0.00000000000E+00  0.93234578044E-11  0.17124000000E+03  0.17124000000E+03 0.  1.
       11    1    1    2    0    0  0.40819083672E-01  0.98502500102E-02  0.89216459454E+00  0.89315236661E+00  0.51109989000E-03 0.  1.
     -623    1    1    2    0    0  0.66189565498E-02 -0.70616343470E-02  0.12334028979E-02  0.17124000028E+03  0.17124000000E+03 0.  1.
     -611    1    1    2    0    0 -0.71386660396E-02 -0.28910959377E-03  0.67123134535E+00  0.67126956161E+00  0.51109989000E-03 0.  1.
      611    1    1    2    0    0 -0.40299374204E-01 -0.24995060707E-02  0.39353706356E+01  0.39355777959E+01  0.51109989000E-03 0.  1.
</event>
<event>
 6   3  0.2312675E+03  0.9118800E+02  0.7818608E-02  0.1180000E+00
       11   -1    0    0    0    0  0.00000000000E+00  0.00000000000E+00  0.54999999763E+01  0.55000000000E+01  0.51109989000E-03 0. -1.
     -623   -1    0    0    0    0  0.00000000000E+00  0.00000000000E+00  0.93234578044E-11  0.17124000000E+03  0.17124000000E+03 0. -1.
       11    1    1    2    0    0  0.24387252430E-01 -0.14170819965E-01  0.78220450954E-01  0.83151971655E-01  0.51109989000E-03 0. -1.
     -623    1    1    2    0    0  0.34009468645E-01  0.10947323172E-01  0.52556516562E-02  0.17124000381E+03  0.17124000000E+03 0. -1.
     -611    1    1    2    0    0 -0.23285017204E-01  0.38839711286E-02  0.19752615110E+01  0.19754026363E+01  0.51109989000E-03 0.  1.
      611    1    1    2    0    0 -0.35111703871E-01 -0.66047433561E-03  0.34412623626E+01  0.34414415842E+01  0.51109989000E-03 0. -1.
</event>
<event>
 6   3  0.2312675E+03  0.9118800E+02  0.7818608E-02  0.1180000E+00
       11   -1    0    0    0    0  0.00000000000E+00  0.00000000000E+00  0.54999999763E+01  0.55000000000E+01  0.51109989000E-03 0.  1.
     -623   -1    0    0    0    0  0.00000000000E+00  0.00000000000E+00  0.93234578044E-11  0.17124000000E+03  0.17124000000E+03 0.  1.
       11    1    1    2    0    0 -0.31666745104E-01 -0.83608330771E-01  0.10667483328E+01  0.10704883943E+01  0.51109989000E-03 0.  1.
     -623    1    1    2    0    0 -0.18934359614E-01 -0.85964694495E-02  0.49913362028E-02  0.17124000134E+03  0.17124000000E+03 0.  1.
     -611    1    1    2    0    0  0.52225158017E-02  0.11170819275E-01  0.50578723416E+00  0.50593779197E+00  0.51109989000E-03 0.  1.
      611    1    1    2    0    0  0.45378588913E-01  0.81033980939E-01  0.39224730729E+01  0.39235724781E+01  0.51109989000E-03 0.  1.
</event>
<event>
 6   3  0.2312675E+03  0.9118800E+02  0.7818608E-02  0.1180000E+00
       11   -1    0    0    0    0  0.00000000000E+00  0.00000000000E+00  0.54999999763E+01  0.55000000000E+01  0.51109989000E-03 0. -1.
     -623   -1    0    0    0    0  0.00000000000E+00  0.00000000000E+00  0.93234578044E-11  0.17124000000E+03  0.17124000000E+03 0.  1.
       11    1    1    2    0    0 -0.88299474277E-02 -0.66354077084E-02  0.63328538982E+00  0.63338190911E+00  0.51109989000E-03 0. -1.
     -623    1    1    2    0    0  0.75849006724E-01  0.46589072670E-01  0.74535799025E-03  0.17124002314E+03  0.17124000000E+03 0.  1.
     -611    1    1    2    0    0 -0.25248471452E-01 -0.15589003983E-01  0.18440337013E+01  0.18442725003E+01  0.51109989000E-03 0. -1.
      611    1    1    2    0    0 -0.41770587032E-01 -0.24364660481E-01  0.30219354682E+01  0.30223223941E+01  0.51109989000E-03 0. -1.
</event>
<event>
 6   3  0.2312675E+03  0.9118800E+02  0.7818608E-02  0.1180000E+00
       11   -1    0    0    0    0  0.00000000000E+00  0.00000000000E+00  0.54999999763E+01  0.55000000000E+01  0.51109989000E-03 0.  1.
     -623   -1    0    0    0    0  0.00000000000E+00  0.00000000000E+00  0.93234578044E-11  0.17124000000E+03  0.17124000000E+03 0.  1.
       11    1    1    2    0    0  0.40997310429E-01 -0.50924251750E-01  0.12988213195E+00  0.14540869404E+00  0.51109989000E-03 0.  1.
     -623    1    1    2    0    0  0.15010320318E-01  0.19583988862E-01  0.15914272255E-01  0.17124000252E+03  0.17124000000E+03 0.  1.
     -611    1    1    2    0    0 -0.38434894092E-01  0.21906936883E-01  0.36085866356E+01  0.36088578418E+01  0.51109989000E-03 0. -1.
      611    1    1    2    0    0 -0.17572736647E-01  0.94333259993E-02  0.17456169357E+01  0.17457309461E+01  0.51109989000E-03 0.  1.
</event>
<event>
 6   3  0.2312675E+03  0.9118800E+02  0.7818608E-02  0.1180000E+00
       11   -1    0    0    0    0  0.00000000000E+00  0.00000000000E+00  0.54999999763E+01  0.55000000000E+01  0.51109989000E-03 0.  1.
     -623   -1    0    0    0    0  0.00000000000E+00  0.00000000000E+00  0.93234578044E-11  0.17124000000E+03  0.17124000000E+03 0. -1.
       11    1    1    2    0    0  0.65877759965E-02  0.79140601516E-03  0.10530138280E+00  0.10551145700E+00  0.51109989000E-03 0.  1.
     -623    1    1    2    0    0 -0.26530113353E-02  0.67809401231E-03  0.11970944932E-02  0.17124000003E+03  0.17124000000E+03 0. -1.
     -611    1    1    2    0    0 -0.49818703321E-01  0.41035231416E-02  0.18143587529E+01  0.18150472962E+01  0.51109989000E-03 0. -1.
      611    1    1    2    0    0  0.45883938660E-01 -0.55730231690E-02  0.35791427460E+01  0.35794412207E+01  0.51109989000E-03 0.  1.
</event>
<event>
 6   3  0.2312675E+03  0.9118800E+02  0.7818608E-02  0.1180000E+00
       11   -1    0    0    0    0  0.00000000000E+00  0.00000000000E+00  0.54999999763E+01  0.55000000000E+01  0.51109989000E-03 0. -1.
     -623   -1    0    0    0    0  0.00000000000E+00  0.00000000000E+00  0.93234578044E-11  0.17124000000E+03  0.17124000000E+03 0.  1.
       11    1    1    2    0    0  0.38070070738E-01  0.11330423189E-01  0.81245348252E+00  0.81342401689E+00  0.51109989000E-03 0. -1.
     -623    1    1    2    0    0  0.25181503568E-01 -0.19755945132E-01  0.14082776534E-02  0.17124000300E+03  0.17124000000E+03 0.  1.
     -611    1    1    2    0    0 -0.42054497251E-01  0.59653363283E-02  0.31605650061E+01  0.31608504528E+01  0.51109989000E-03 0. -1.
      611    1    1    2    0    0 -0.21197077015E-01  0.24601856092E-02  0.15255732069E+01  0.15257225303E+01  0.51109989000E-03 0.  1.
</event>
<event>
 6   3  0.2312675E+03  0.9118800E+02  0.7818608E-02  0.1180000E+00
       11   -1    0    0    0    0  0.00000000000E+00  0.00000000000E+00  0.54999999763E+01  0.55000000000E+01  0.51109989000E-03 0.  1.
     -623   -1    0    0    0    0  0.00000000000E+00  0.00000000000E+00  0.93234578044E-11  0.17124000000E+03  0.17124000000E+03 0. -1.
       11    1    1    2    0    0  0.26759354577E-02  0.14913516160E-03  0.51243279669E-03  0.27760911979E-02  0.51109989000E-03 0.  1.
     -623    1    1    2    0    0 -0.30528230050E-03 -0.67904233814E-02  0.27832884919E-02  0.17124000016E+03  0.17124000000E+03 0. -1.
     -611    1    1    2    0    0  0.35501675219E-01  0.67302269059E-02  0.21310523440E+01  0.21313587260E+01  0.51109989000E-03 0. -1.
      611    1    1    2    0    0 -0.37872328376E-01 -0.88938686002E-04  0.33656519110E+01  0.33658650253E+01  0.51109989000E-03 0.  1.
</event>
<event>
 6   3  0.2312675E+03  0.9118800E+02  0.7818608E-02  0.1180000E+00
       11   -1    0    0    0    0  0.00000000000E+00  0.00000000000E+00  0.54999999763E+01  0.55000000000E+01  0.51109989000E-03 0.  1.
     -623   -1    0    0    0    0  0.00000000000E+00  0.00000000000E+00  0.93234578044E-11  0.17124000000E+03  0.17124000000E+03 0. -1.
       11    1    1    2    0    0  0.64737318009E-01  0.94027618155E-02  0.58833858833E+00  0.59196443137E+00  0.51109989000E-03 0.  1.
     -623    1    1    2    0    0  0.88171668837E-02 -0.29162693556E-02  0.41826734216E-02  0.17124000030E+03  0.17124000000E+03 0. -1.
     -611    1    1    2    0    0 -0.55967653476E-01 -0.36527003649E-02  0.37135550361E+01  0.37139785928E+01  0.51109989000E-03 0.  1.
      611    1    1    2    0    0 -0.17586831405E-01 -0.28337920940E-02  0.11939236777E+01  0.11940566722E+01  0.51109989000E-03 0. -1.
</event>
<event>
 6   3  0.2312675E+03  0.9118800E+02  0.7818608E-02  0.1180000E+00
       11   -1    0    0    0    0  0.00000000000E+00  0.00000000000E+00  0.54999999763E+01  0.55000000000E+01  0.51109989000E-03 0. -1.
     -623   -1    0    0    0    0  0.00000000000E+00  0.00000000000E+00  0.93234578044E-11  0.17124000000E+03  0.17124000000E+03 0. -1.
       11    1    1    2    0    0 -0.24117633068E-02  0.35741528505E-02  0.94718456731E-02  0.10419609129E-01  0.51109989000E-03 0. -1.
     -623    1    1    2    0    0  0.16837215843E-02 -0.91320460228E-02  0.24803665466E-02  0.17124000027E+03  0.17124000000E+03 0. -1.
     -611    1    1    2    0    0  0.40710372017E-01  0.52240133696E-01  0.23633816302E+01  0.23643094884E+01  0.51109989000E-03 0. -1.
      611    1    1    2    0    0 -0.39982330294E-01 -0.46682240523E-01  0.31246661338E+01  0.31252706327E+01  0.51109989000E-03 0.  1.
</event>
<event>
 6   3  0.2312675E+03  0.9118800E+02  0.7818608E-02  0.1180000E+00
       11   -1    0    0    0    0  0.00000000000E+00  0.00000000000E+00  0.54999999763E+01  0.55000000000E+01  0.51109989000E-03 0.  1.
     -623   -1    0    0    0    0  0.00000000000E+00  0.00000000000E+00  0.93234578044E-11  0.17124000000E+03  0.17124000000E+03 0.  1.
       11    1    1    2    0    0  0.17626471192E-03  0.17175610740E-02  0.94463184254E-03  0.20333808564E-02  0.51109989000E-03 0.  1.
     -623    1    1    2    0    0 -0.62647724782E-03 -0.40593257748E-02  0.30840977727E-02  0.17124000008E+03  0.17124000000E+03 0.  1.
     -611    1    1    2    0    0  0.70275159077E-01 -0.22808525447E-01  0.27641345704E+01  0.27651218800E+01  0.51109989000E-03 0.  1.
      611    1    1    2    0    0 -0.69824946541E-01  0.25150290147E-01  0.27318366763E+01  0.27328446622E+01  0.51109989000E-03 0. -1.
</event>
<event>
 6   3  0.2312675E+03  0.9118800E+02  0.7818608E-02  0.1180000E+00
       11   -1    0    0    0    0  0.00000000000E+00  0.00000000000E+00  0.54999999763E+01  0.55000000000E+01  0.51109989000E-03 0.  1.
     -623   -1    0    0    0    0  0.00000000000E+00  0.00000000000E+00  0.93234578044E-11  0.17124000000E+03  0.17124000000E+03 0. -1.
       11    1    1    2    0    0  0.67998122882E-01 -0.25937256825E-01  0.39000530109E+00  0.39673780020E+00  0.51109989000E-03 0.  1.
     -623    1    1    2    0    0 -0.38604575380E-03 -0.13309191074E-01  0.73368106206E-02  0.17124000067E+03  0.17124000000E+03 0. -1.
     -611    1    1    2    0    0 -0.23426751695E-01  0.10461016799E-01  0.17888030900E+01  0.17889871440E+01  0.51109989000E-03 0. -1.
      611    1    1    2    0    0 -0.44185325434E-01  0.28785431101E-01  0.33138547746E+01  0.33142743809E+01  0.51109989000E-03 0.  1.
</event>
<event>
 6   3  0.2312675E+03  0.9118800E+02  0.7818608E-02  0.1180000E+00
       11   -1    0    0    0    0  0.00000000000E+00  0.00000000000E+00  0.54999999763E+01  0.55000000000E+01  0.51109989000E-03 0.  1.
     -623   -1    0    0    0    0  0.00000000000E+00  0.00000000000E+00  0.93234578044E-11  0.17124000000E+03  0.17124000000E+03 0.  1.
       11    1    1    2    0    0 -0.12015244519E-01 -0.28691069979E-01  0.25337490701E+00  0.25527759072E+00  0.51109989000E-03 0.  1.
     -623    1    1    2    0    0 -0.72669407145E-02  0.56233219350E-01  0.54410659307E-02  0.17124000947E+03  0.17124000000E+03 0.  1.
     -611    1    1    2    0    0  0.81324458290E-01 -0.76712104834E-01  0.27505379108E+01  0.27528090153E+01  0.51109989000E-03 0. -1.
      611    1    1    2    0    0 -0.62042273057E-01  0.49169955463E-01  0.24906460925E+01  0.24919039202E+01  0.51109989000E-03 0.  1.
</event>
<event>
 6   3  0.2312675E+03  0.9118800E+02  0.7818608E-02  0.1180000E+00
       11   -1    0    0    0    0  0.00000000000E+00  0.00000000000E+00  0.54999999763E+01  0.55000000000E+01  0.51109989000E-03 0.  1.
     -623   -1    0    0    0    0  0.00000000000E+00  0.00000000000E+00  0.93234578044E-11  0.17124000000E+03  0.17124000000E+03 0.  1.
       11    1    1    2    0    0 -0.44876139605E-01 -0.16172849055E-01  0.26614185056E+00  0.27038338483E+00  0.51109989000E-03 0.  1.
     -623    1    1    2    0    0 -0.23989855840E-01  0.14272913528E-01  0.47048294510E-02  0.17124000234E+03  0.17124000000E+03 0.  1.
     -611    1    1    2    0    0  0.28044082429E-01 -0.31718241679E-02  0.20144283967E+01  0.20146261583E+01  0.51109989000E-03 0. -1.
      611    1    1    2    0    0  0.40821913014E-01  0.50717596955E-02  0.32147248994E+01  0.32149881168E+01  0.51109989000E-03 0.  1.
</event>
<event>
 6   3  0.2312675E+03  0.9118800E+02  0.7818608E-02  0.1180000E+00
       11   -1    0    0    0    0  0.00000000000E+00  0.00000000000E+00  0.54999999763E+01  0.55000000000E+01  0.51109989000E-03 0.  1.
     -623   -1    0    0    0    0  0.00000000000E+00  0.00000000000E+00  0.93234578044E-11  0.17124000000E+03  0.17124000000E+03 0.  1.
       11    1    1    2    0    0 -0.63312935408E-02  0.43075384862E-01  0.13550134210E+00  0.14232515236E+00  0.51109989000E-03 0.  1.
     -623    1    1    2    0    0 -0.82960488005E-01 -0.62226565445E-02  0.77260828294E-02  0.17124002038E+03  0.17124000000E+03 0.  1.
     -611    1    1    2    0    0  0.53051085955E-01 -0.20704774717E-01  0.34384137070E+01  0.34388853118E+01  0.51109989000E-03 0.  1.
      611    1    1    2    0    0  0.36240695589E-01 -0.16147953599E-01  0.19183588442E+01  0.19187691526E+01  0.51109989000E-03 0.  1.
</event>
<event>
 6   3  0.2312675E+03  0.9118800E+02  0.7818608E-02  0.1180000E+00
       11   -1    0    0    0    0  0.00000000000E+00  0.00000000000E+00  0.54999999763E+01  0.55000000000E+01  0.51109989000E-03 0.  1.
     -623   -1    0    0    0    0  0.00000000000E+00  0.00000000000E+00  0.93234578044E-11  0.17124000000E+03  0.17124000000E+03 0.  1.
       11    1    1    2    0    0  0.16607934709E-01 -0.19930908614E-01  0.12312257994E+00  0.12582724478E+00  0.51109989000E-03 0.  1.
     -623    1    1    2    0    0  0.31624814763E-01  0.86971032334E-02  0.15694141409E-01  0.17124000386E+03  0.17124000000E+03 0.  1.
     -611    1    1    2    0    0  0.69187592895E-01 -0.14524334175E+00  0.32371060382E+01  0.32411014047E+01  0.51109989000E-03 0.  1.
      611    1    1    2    0    0 -0.11742034237E+00  0.15647714713E+00  0.21240772167E+01  0.21330674903E+01  0.51109989000E-03 0. -1.
</event>
<event>
 6   3  0.2312675E+03  0.9118800E+02  0.7818608E-02  0.1180000E+00
       11   -1    0    0    0    0  0.00000000000E+00  0.00000000000E+00  0.54999999763E+01  0.55000000000E+01  0.51109989000E-03 0. -1.
     -623   -1    0    0    0    0  0.00000000000E+00  0.00000000000E+00  0.93234578044E-11  0.17124000000E+03  0.17124000000E+03 0. -1.
       11    1    1    2    0    0 -0.98871560379E-01 -0.20766343099E-01  0.86416510716E+00  0.87005081468E+00  0.51109989000E-03 0. -1.
     -623    1    1    2    0    0  0.26303221863E-01  0.17158936025E-01  0.64611421863E-02  0.17124000300E+03  0.17124000000E+03 0. -1.
     -611    1    1    2    0    0  0.19248255847E-01 -0.40432589353E-03  0.13191287090E+01  0.13192692943E+01  0.51109989000E-03 0.  1.
      611    1    1    2    0    0  0.53320082668E-01  0.40117329677E-02  0.33102450179E+01  0.33106768892E+01  0.51109989000E-03 0. -1.
</event>
<event>
 6   3  0.2312675E+03  0.9118800E+02  0.7818608E-02  0.1180000E+00
       11   -1    0    0    0    0  0.00000000000E+00  0.00000000000E+00  0.54999999763E+01  0.55000000000E+01  0.51109989000E-03 0.  1.
     -623   -1    0    0    0    0  0.00000000000E+00  0.00000000000E+00  0.93234578044E-11  0.17124000000E+03  0.17124000000E+03 0.  1.
       11    1    1    2    0    0 -0.61149737527E-01  0.73275651810E-01  0.97721496940E+00  0.98186453709E+00  0.51109989000E-03 0.  1.
     -623    1    1    2    0    0  0.10401246933E-01 -0.98458960151E-03  0.55139925577E-02  0.17124000041E+03  0.17124000000E+03 0.  1.
     -611    1    1    2    0    0  0.44584763003E-01 -0.62743446304E-01  0.39562194707E+01  0.39569681958E+01  0.51109989000E-03 0.  1.
      611    1    1    2    0    0  0.61637275707E-02 -0.95476158754E-02  0.56105154185E+00  0.56116685785E+00  0.51109989000E-03 0.  1.
</event>
<event>
 6   3  0.2312675E+03  0.9118800E+02  0.7818608E-02  0.1180000E+00
       11   -1    0    0    0    0  0.00000000000E+00  0.00000000000E+00  0.54999999763E+01  0.55000000000E+01  0.51109989000E-03 0.  1.
     -623   -1    0    0    0    0  0.00000000000E+00  0.00000000000E+00  0.93234578044E-11  0.17124000000E+03  0.17124000000E+03 0. -1.
       11    1    1    2    0    0  0.53828240908E-01  0.20147690748E-01  0.91729006839E+00  0.91908908151E+00  0.51109989000E-03 0.  1.
     -623    1    1    2    0    0 -0.22003614849E-02 -0.87072971558E-02  0.21048404996E-02  0.17124000025E+03  0.17124000000E+03 0. -1.
     -611    1    1    2    0    0 -0.36547996560E-01 -0.87855507014E-02  0.32575906998E+01  0.32578076018E+01  0.51109989000E-03 0.  1.
      611    1    1    2    0    0 -0.15079882873E-01 -0.26548428928E-02  0.13230143685E+01  0.13231030691E+01  0.51109989000E-03 0.  1.
</event>
<event>
 6   3  0.2312675E+03  0.9118800E+02  0.7818608E-02  0.1180000E+00
       11   -1    0    0    0    0  0.00000000000E+00  0.00000000000E+00  0.54999999763E+01  0.55000000000E+01  0.51109989000E-03 0.  1.
     -623   -1    0    0    0    0  0.00000000000E+00  0.00000000000E+00  0.93234578044E-11  0.17124000000E+03  0.17124000000E+03 0. -1.
       11    1    1    2    0    0  0.10233009077E-01  0.25772656560E-01  0.69773878404E+00  0.69828977959E+00  0.51109989000E-03 0.  1.
     -623    1    1    2    0    0  0.15358142955E-01 -0.24863079734E-01  0.16324534898E-02  0.17124000250E+03  0.17124000000E+03 0. -1.
     -611    1    1    2    0    0  0.33554976642E-01  0.18983008206E-01  0.15454159185E+01  0.15458967991E+01  0.51109989000E-03 0. -1.
      611    1    1    2    0    0 -0.59146128674E-01 -0.19892585033E-01  0.32552128202E+01  0.32558109198E+01  0.51109989000E-03 0.  1.
</event>
<event>
 6   3  0.2312675E+03  0.9118800E+02  0.7818608E-02  0.1180000E+00
       11   -1    0    0    0    0  0.00000000000E+00  0.00000000000E+00  0.54999999763E+01  0.55000000000E+01  0.51109989000E-03 0.  1.
     -623   -1    0    0    0    0  0.00000000000E+00  0.00000000000E+00  0.93234578044E-11  0.17124000000E+03  0.17124000000E+03 0. -1.
       11    1    1    2    0    0  0.10309883450E-01 -0.46071512586E-02  0.68336318354E+00  0.68345667118E+00  0.51109989000E-03 0.  1.
     -623    1    1    2    0    0  0.43986014830E-01 -0.25876686136E-01  0.50523191941E-03  0.17124000761E+03  0.17124000000E+03 0. -1.
     -611    1    1    2    0    0 -0.37813518058E-01  0.23196170187E-01  0.34063686367E+01  0.34066575224E+01  0.51109989000E-03 0.  1.
      611    1    1    2    0    0 -0.16482380220E-01  0.72876672075E-02  0.14097629240E+01  0.14098782011E+01  0.51109989000E-03 0. -1.
</event>
<event>
 6   3  0.2312675E+03  0.9118800E+02  0.7818608E-02  0.1180000E+00
       11   -1    0    0    0    0  0.00000000000E+00  0.00000000000E+00  0.54999999763E+01  0.55000000000E+01  0.51109989000E-03 0. -1.
     -623   -1    0    0    0    0  0.00000000000E+00  0.00000000000E+00  0.93234578044E-11  0.17124000000E+03  0.17124000000E+03 0. -1.
       11    1    1    2    0    0  0.97886648727E-01 -0.15678158880E+00  0.90161460088E+00  0.92036482567E+00  0.51109989000E-03 0. -1.
     -623    1    1    2    0    0  0.45399125911E-01 -0.53165598635E-01  0.25893931825E-01  0.17124001623E+03  0.17124000000E+03 0. -1.
     -611    1    1    2    0    0 -0.52582959994E-01  0.57584666535E-01  0.13369444445E+01  0.13392168123E+01  0.51109989000E-03 0.  1.
      611    1    1    2    0    0 -0.90702814645E-01  0.15236252090E+00  0.32355469991E+01  0.32404021329E+01  0.51109989000E-03 0. -1.
</event>
<event>
 6   3  0.2312675E+03  0.9118800E+02  0.7818608E-02  0.1180000E+00
       11   -1    0    0    0    0  0.00000000000E+00  0.00000000000E+00  0.54999999763E+01  0.55000000000E+01  0.51109989000E-03 0.  1.
     -623   -1    0    0    0    0  0.00000000000E+00  0.00000000000E+00  0.93234578044E-11  0.17124000000E+03  0.17124000000E+03 0. -1.
       11    1    1    2    0    0  0.67481065999E-03 -0.41093193719E-02  0.63495022303E+00  0.63496408468E+00  0.51109989000E-03 0.  1.
     -623    1    1    2    0    0 -0.24387301594E-02 -0.59986675589E-02  0.99058913162E-03  0.17124000013E+03  0.17124000000E+03 0. -1.
     -611    1    1    2    0    0  0.43922580185E-01 -0.42061527405E-02  0.14116094133E+01  0.14122989350E+01  0.51109989000E-03 0. -1.
      611    1    1    2    0    0 -0.42158660685E-01  0.14314139671E-01  0.34524497506E+01  0.34527368549E+01  0.51109989000E-03 0.  1.
</event>
<event>
 6   3  0.2312675E+03  0.9118800E+02  0.7818608E-02  0.1180000E+00
       11   -1    0    0    0    0  0.00000000000E+00  0.00000000000E+00  0.54999999763E+01  0.55000000000E+01  0.51109989000E-03 0. -1.
     -623   -1    0    0    0    0  0.00000000000E+00  0.00000000000E+00  0.93234578044E-11  0.17124000000E+03  0.17124000000E+03 0.  1.
       11    1    1    2    0    0 -0.31139588496E-01 -0.87781690867E-02  0.89842330067E+00  0.89900579455E+00  0.51109989000E-03 0. -1.
     -623    1    1    2    0    0  0.10260629219E+00  0.10057052261E-01  0.11710659862E-02  0.17124003104E+03  0.17124000000E+03 0.  1.
     -611    1    1    2    0    0 -0.63723906519E-01 -0.23873491622E-02  0.40648007770E+01  0.40653009794E+01  0.51109989000E-03 0. -1.
      611    1    1    2    0    0 -0.77427971791E-02  0.11084659871E-02  0.53560483293E+00  0.53566218635E+00  0.51109989000E-03 0.  1.
</event>
<event>
 6   3  0.2312675E+03  0.9118800E+02  0.7818608E-02  0.1180000E+00
       11   -1    0    0    0    0  0.00000000000E+00  0.00000000000E+00  0.54999999763E+01  0.55000000000E+01  0.51109989000E-03 0.  1.
     -623   -1    0    0    0    0  0.00000000000E+00  0.00000000000E+00  0.93234578044E-11  0.17124000000E+03  0.17124000000E+03 0.  1.
       11    1    1    2    0    0  0.31005437032E-02 -0.75801125643E-02  0.18485165463E+00  0.18503369131E+00  0.51109989000E-03 0.  1.
     -623    1    1    2    0    0 -0.72924399284E-01  0.26848740575E-01  0.69516552317E-03  0.17124001763E+03  0.17124000000E+03 0.  1.
     -611    1    1    2    0    0  0.55963824656E-01 -0.13969195643E-01  0.41500010365E+01  0.41504019025E+01  0.51109989000E-03 0.  1.
      611    1    1    2    0    0  0.13860030937E-01 -0.52994323717E-02  0.11644521205E+01  0.11645467730E+01  0.51109989000E-03 0.  1.
</event>
<event>
 6   3  0.2312675E+03  0.9118800E+02  0.7818608E-02  0.1180000E+00
       11   -1    0    0    0    0  0.00000000000E+00  0.00000000000E+00  0.54999999763E+01  0.55000000000E+01  0.51109989000E-03 0.  1.
     -623   -1    0    0    0    0  0.00000000000E+00  0.00000000000E+00  0.93234578044E-11  0.17124000000E+03  0.17124000000E+03 0. -1.
       11    1    1    2    0    0  0.88048339578E-01 -0.26417875513E-01  0.24678233834E+00  0.26334805484E+00  0.51109989000E-03 0.  1.
     -623    1    1    2    0    0  0.30307515202E-01 -0.83103244381E-02  0.21108845643E-01  0.17124000418E+03  0.17124000000E+03 0. -1.
     -611    1    1    2    0    0 -0.73044218634E-01 -0.63163356931E-01  0.33962171740E+01  0.33975897959E+01  0.51109989000E-03 0. -1.
      611    1    1    2    0    0 -0.45311636146E-01  0.97891556882E-01  0.18358916183E+01  0.18390579645E+01  0.51109989000E-03 0.  1.
</event>
<event>
 6   3  0.2312675E+03  0.9118800E+02  0.7818608E-02  0.1180000E+00
       11   -1    0    0    0    0  0.00000000000E+00  0.00000000000E+00  0.54999999763E+01  0.55000000000E+01  0.51109989000E-03 0. -1.
     -623   -1    0    0    0    0  0.00000000000E+00  0.00000000000E+00  0.93234578044E-11  0.17124000000E+03  0.17124000000E+03 0.  1.
       11    1    1    2    0    0 -0.75530517133E-02 -0.61804515955E-02  0.10661632024E+00  0.10706328753E+00  0.51109989000E-03 0. -1.
     -623    1    1    2    0    0 -0.10731573730E-01  0.19359889207E-01  0.18381546352E-02  0.17124000144E+03  0.17124000000E+03 0.  1.
     -611    1    1    2    0    0  0.61980086670E-01 -0.25389712154E-01  0.20781932908E+01  0.20792724169E+01  0.51109989000E-03 0. -1.
      611    1    1    2    0    0 -0.43695461226E-01  0.12210274542E-01  0.33133522107E+01  0.33136628551E+01  0.51109989000E-03 0.  1.
</event>
<event>
 6   3  0.2312675E+03  0.9118800E+02  0.7818608E-02  0.1180000E+00
       11   -1    0    0    0    0  0.00000000000E+00  0.00000000000E+00  0.54999999763E+01  0.55000000000E+01  0.51109989000E-03 0. -1.
     -623   -1    0    0    0    0  0.00000000000E+00  0.00000000000E+00  0.93234578044E-11  0.17124000000E+03  0.17124000000E+03 0.  1.
       11    1    1    2    0    0  0.13611993080E+00  0.10483744787E-01  0.10418460069E+01  0.10507530194E+01  0.51109989000E-03 0. -1.
     -623    1    1    2    0    0 -0.39696385595E-02  0.15255593166E-01  0.10954304409E-01  0.17124000108E+03  0.17124000000E+03 0.  1.
     -611    1    1    2    0    0 -0.10563038802E+00 -0.20737014135E-01  0.36654788352E+01  0.36670591971E+01  0.51109989000E-03 0. -1.
      611    1    1    2    0    0 -0.26519904219E-01 -0.50023238176E-02  0.78172082958E+00  0.78218670737E+00  0.51109989000E-03 0.  1.
</event>
<event>
 6   3  0.2312675E+03  0.9118800E+02  0.7818608E-02  0.1180000E+00
       11   -1    0    0    0    0  0.00000000000E+00  0.00000000000E+00  0.54999999763E+01  0.55000000000E+01  0.51109989000E-03 0. -1.
     -623   -1    0    0    0    0  0.00000000000E+00  0.00000000000E+00  0.93234578044E-11  0.17124000000E+03  0.17124000000E+03 0. -1.
       11    1    1    2    0    0 -0.60609800331E-01  0.33638213592E-01  0.54589301801E+00  0.55027677186E+00  0.51109989000E-03 0. -1.
     -623    1    1    2    0    0 -0.33294749054E-02  0.24730989085E-01  0.51553267660E-02  0.17124000190E+03  0.17124000000E+03 0. -1.
     -611    1    1    2    0    0  0.19963161692E-01 -0.21489543044E-01  0.14201163352E+01  0.14204193026E+01  0.51109989000E-03 0. -1.
      611    1    1    2    0    0  0.43976113545E-01 -0.36879659633E-01  0.35288352963E+01  0.35293020298E+01  0.51109989000E-03 0.  1.
</event>
<event>
 6   3  0.2312675E+03  0.9118800E+02  0.7818608E-02  0.1180000E+00
       11   -1    0    0    0    0  0.00000000000E+00  0.00000000000E+00  0.54999999763E+01  0.55000000000E+01  0.51109989000E-03 0. -1.
     -623   -1    0    0    0    0  0.00000000000E+00  0.00000000000E+00  0.93234578044E-11  0.17124000000E+03  0.17124000000E+03 0. -1.
       11    1    1    2    0    0 -0.13608272141E+00 -0.32394311875E-01  0.88294760829E+00  0.89396008787E+00  0.51109989000E-03 0. -1.
     -623    1    1    2    0    0 -0.10333811120E-01  0.11640215948E-01  0.13388559520E-01  0.17124000123E+03  0.17124000000E+03 0. -1.
     -611    1    1    2    0    0  0.19122883870E-01  0.29855295754E-02  0.60929778694E+00  0.60960532517E+00  0.51109989000E-03 0. -1.
      611    1    1    2    0    0  0.12729364859E+00  0.17768566341E-01  0.39943660193E+01  0.39964333539E+01  0.51109989000E-03 0. -1.
</event>
<event>
 6   3  0.2312675E+03  0.9118800E+02  0.7818608E-02  0.1180000E+00
       11   -1    0    0    0    0  0.00000000000E+00  0.00000000000E+00  0.54999999763E+01  0.55000000000E+01  0.51109989000E-03 0.  1.
     -623   -1    0    0    0    0  0.00000000000E+00  0.00000000000E+00  0.93234578044E-11  0.17124000000E+03  0.17124000000E+03 0.  1.
       11    1    1    2    0    0 -0.58255548966E-01  0.43562728982E-01  0.36538501630E+00  0.37255589070E+00  0.51109989000E-03 0.  1.
     -623    1    1    2    0    0  0.12370838115E-02  0.19103337565E-01  0.78722971291E-02  0.17124000125E+03  0.17124000000E+03 0.  1.
     -611    1    1    2    0    0  0.32979132572E-01 -0.36840486955E-01  0.29845713748E+01  0.29849809710E+01  0.51109989000E-03 0.  1.
      611    1    1    2    0    0  0.24039332569E-01 -0.25825579577E-01  0.21421712868E+01  0.21424618861E+01  0.51109989000E-03 0.  1.
</event>
<event>
 6   3  0.2312675E+03  0.9118800E+02  0.7818608E-02  0.1180000E+00
       11   -1    0    0    0    0  0.00000000000E+00  0.00000000000E+00  0.54999999763E+01  0.55000000000E+01  0.51109989000E-03 0.  1.
     -623   -1    0    0    0    0  0.00000000000E+00  0.00000000000E+00  0.93234578044E-11  0.17124000000E+03  0.17124000000E+03 0. -1.
       11    1    1    2    0    0 -0.19865260670E-01 -0.47438084973E-02  0.81683929240E+00  0.81709474550E+00  0.51109989000E-03 0.  1.
     -623    1    1    2    0    0  0.10865368523E+00  0.43833909156E-01  0.13021187241E-02  0.17124004009E+03  0.17124000000E+03 0. -1.
     -611    1    1    2    0    0 -0.23209184246E-01 -0.10376065960E-01  0.13071652988E+01  0.13074126008E+01  0.51109989000E-03 0. -1.
      611    1    1    2    0    0 -0.65579240470E-01 -0.28714034761E-01  0.33746932740E+01  0.33754525752E+01  0.51109989000E-03 0.  1.
</event>
<event>
 6   3  0.2312675E+03  0.9118800E+02  0.7818608E-02  0.1180000E+00
       11   -1    0    0    0    0  0.00000000000E+00  0.00000000000E+00  0.54999999763E+01  0.55000000000E+01  0.51109989000E-03 0.  1.
     -623   -1    0    0    0    0  0.00000000000E+00  0.00000000000E+00  0.93234578044E-11  0.17124000000E+03  0.17124000000E+03 0.  1.
       11    1    1    2    0    0 -0.21008175785E-01  0.82927298760E-02  0.58341178719E+00  0.58384902798E+00  0.51109989000E-03 0.  1.
     -623    1    1    2    0    0  0.81971655520E-01  0.72319662918E-04  0.84231365970E-03  0.17124001962E+03  0.17124000000E+03 0.  1.
     -611    1    1    2    0    0 -0.46981318980E-01 -0.70239616449E-02  0.37839037086E+01  0.37842019129E+01  0.51109989000E-03 0.  1.
      611    1    1    2    0    0 -0.13982160791E-01 -0.13410878985E-02  0.11318421696E+01  0.11319294402E+01  0.51109989000E-03 0.  1.
</event>
<event>
 6   3  0.2312675E+03  0.9118800E+02  0.7818608E-02  0.1180000E+00
       11   -1    0    0    0    0  0.00000000000E+00  0.00000000000E+00  0.54999999763E+01  0.55000000000E+01  0.51109989000E-03 0.  1.
     -623   -1    0    0    0    0  0.00000000000E+00  0.00000000000E+00  0.93234578044E-11  0.17124000000E+03  0.17124000000E+03 0.  1.
       11    1    1    2    0    0 -0.87342728329E-02  0.21502802578E-01  0.85089504697E+00  0.85121166594E+00  0.51109989000E-03 0.  1.
     -623    1    1    2    0    0 -0.93023592914E-01 -0.30217413578E-01  0.14676388541E-02  0.17124002794E+03  0.17124000000E+03 0.  1.
     -611    1    1    2    0    0  0.60910071110E-01  0.60471187209E-02  0.27288923092E+01  0.27295787405E+01  0.51109989000E-03 0.  1.
      611    1    1    2    0    0  0.40847794634E-01  0.26674922786E-02  0.19187449811E+01  0.19191816541E+01  0.51109989000E-03 0.  1.
</event>
<event>
 6   3  0.2312675E+03  0.9118800E+02  0.7818608E-02  0.1180000E+00
       11   -1    0    0    0    0  0.00000000000E+00  0.00000000000E+00  0.54999999763E+01  0.55000000000E+01  0.51109989000E-03 0.  1.
     -623   -1    0    0    0    0  0.00000000000E+00  0.00000000000E+00  0.93234578044E-11  0.17124000000E+03  0.17124000000E+03 0.  1.
       11    1    1    2    0    0 -0.84698067087E-02 -0.19960038677E-01  0.94257637822E+00  0.94282587511E+00  0.51109989000E-03 0.  1.
     -623    1    1    2    0    0 -0.47814687085E-01  0.18735773851E-01  0.68226351227E-03  0.17124000770E+03  0.17124000000E+03 0.  1.
     -611    1    1    2    0    0  0.46729017821E-01  0.10638172347E-01  0.38432290732E+01  0.38435279031E+01  0.51109989000E-03 0.  1.
      611    1    1    2    0    0  0.95554759740E-02 -0.94139075220E-02  0.71351226148E+00  0.71363852004E+00  0.51109989000E-03 0. -1.
</event>
<event>
 6   3  0.2312675E+03  0.9118800E+02  0.7818608E-02  0.1180000E+00
       11   -1    0    0    0    0  0.00000000000E+00  0.00000000000E+00  0.54999999763E+01  0.55000000000E+01  0.51109989000E-03 0.  1.
     -623   -1    0    0    0    0  0.00000000000E+00  0.00000000000E+00  0.93234578044E-11  0.17124000000E+03  0.17124000000E+03 0. -1.
       11    1    1    2    0    0  0.58110773891E-01 -0.22625264903E-01  0.40860764489E+00  0.41333912631E+00  0.51109989000E-03 0.  1.
     -623    1    1    2    0    0  0.22310873802E-01 -0.13016958233E-01  0.54943054086E-02  0.17124000204E+03  0.17124000000E+03 0. -1.
     -611    1    1    2    0    0 -0.25616303690E-01  0.11180889513E-01  0.16090734054E+01  0.16093162189E+01  0.51109989000E-03 0.  1.
      611    1    1    2    0    0 -0.54805343974E-01  0.24461333610E-01  0.34768246187E+01  0.34773426166E+01  0.51109989000E-03 0.  1.
</event>
<event>
 6   3  0.2312675E+03  0.9118800E+02  0.7818608E-02  0.1180000E+00
       11   -1    0    0    0    0  0.00000000000E+00  0.00000000000E+00  0.54999999763E+01  0.55000000000E+01  0.51109989000E-03 0. -1.
     -623   -1    0    0    0    0  0.00000000000E+00  0.00000000000E+00  0.93234578044E-11  0.17124000000E+03  0.17124000000E+03 0. -1.
       11    1    1    2    0    0 -0.79315031177E-01 -0.84642014357E-01  0.87939657632E+00  0.88701394827E+00  0.51109989000E-03 0. -1.
     -623    1    1    2    0    0  0.73413539958E-02 -0.58499200976E-02  0.90673823520E-02  0.17124000050E+03  0.17124000000E+03 0. -1.
     -611    1    1    2    0    0  0.22402712273E-01  0.28867669740E-01  0.14655849658E+01  0.14660405100E+01  0.51109989000E-03 0.  1.
      611    1    1    2    0    0  0.49570965011E-01  0.61624264844E-01  0.31459510584E+01  0.31469450509E+01  0.51109989000E-03 0. -1.
</event>
<event>
 6   3  0.2312675E+03  0.9118800E+02  0.7818608E-02  0.1180000E+00
       11   -1    0    0    0    0  0.00000000000E+00  0.00000000000E+00  0.54999999763E+01  0.55000000000E+01  0.51109989000E-03 0. -1.
     -623   -1    0    0    0    0  0.00000000000E+00  0.00000000000E+00  0.93234578044E-11  0.17124000000E+03  0.17124000000E+03 0. -1.
       11    1    1    2    0    0 -0.12604901566E-01 -0.17454384727E-02  0.10740389485E+01  0.10741144511E+01  0.51109989000E-03 0. -1.
     -623    1    1    2    0    0  0.61818084620E-01  0.29371268018E-01  0.44987746772E-03  0.17124001368E+03  0.17124000000E+03 0. -1.
     -611    1    1    2    0    0 -0.21902632973E-01 -0.12121443092E-01  0.20635369038E+01  0.20636888015E+01  0.51109989000E-03 0. -1.
      611    1    1    2    0    0 -0.27310549894E-01 -0.15504386366E-01  0.23619742299E+01  0.23621830531E+01  0.51109989000E-03 0. -1.
</event>
<event>
 6   3  0.2312675E+03  0.9118800E+02  0.7818608E-02  0.1180000E+00
       11   -1    0    0    0    0  0.00000000000E+00  0.00000000000E+00  0.54999999763E+01  0.55000000000E+01  0.51109989000E-03 0. -1.
     -623   -1    0    0    0    0  0.00000000000E+00  0.00000000000E+00  0.93234578044E-11  0.17124000000E+03  0.17124000000E+03 0. -1.
       11    1    1    2    0    0  0.37588323801E-02 -0.78151140145E-02  0.69227539396E-01  0.69770468407E-01  0.51109989000E-03 0. -1.
     -623    1    1    2    0    0 -0.22563259962E-02  0.16010001499E-02  0.18572524265E-02  0.17124000003E+03  0.17124000000E+03 0. -1.
     -611    1    1    2    0    0 -0.56857088452E-01 -0.13646418463E-02  0.18383499149E+01  0.18392295293E+01  0.51109989000E-03 0.  1.
      611    1    1    2    0    0  0.55354582068E-01  0.75787557108E-02  0.35905652697E+01  0.35909999699E+01  0.51109989000E-03 0. -1.
</event>
<event>
 6   3  0.2465518E+03  0.9118800E+02  0.7818608E-02  0.1180000E+00
       11   -1    0    0    0    0  0.00000000000E+00  0.00000000000E+00  0.54999999763E+01  0.55000000000E+01  0.51109989000E-03 0. -1.
     -623   -1    0    0    0    0  0.00000000000E+00  0.00000000000E+00  0.93234578044E-11  0.17124000000E+03  0.17124000000E+03 0. -1.
       11    1    1    2    0    0 -0.25507854654E-03 -0.12036870329E-02  0.65702491696E-03  0.14855411058E-02  0.51109989000E-03 0. -1.
     -623    1    1    2    0    0  0.22778548294E-02  0.11923441188E-02  0.14937709843E-02  0.17124000003E+03  0.17124000000E+03 0. -1.
     -611    1    1    2    0    0  0.38596414086E-01  0.12947620566E-01  0.33059779669E+01  0.33062286525E+01  0.51109989000E-03 0. -1.
      611    1    1    2    0    0 -0.40619190368E-01 -0.12936277652E-01  0.21918712135E+01  0.21922857805E+01  0.51109989000E-03 0.  1.
</event>
<event>
 6   3  0.2312675E+03  0.9118800E+02  0.7818608E-02  0.1180000E+00
       11   -1    0    0    0    0  0.00000000000E+00  0.00000000000E+00  0.54999999763E+01  0.55000000000E+01  0.51109989000E-03 0.  1.
     -623   -1    0    0    0    0  0.00000000000E+00  0.00000000000E+00  0.93234578044E-11  0.17124000000E+03  0.17124000000E+03 0.  1.
       11    1    1    2    0    0  0.74052734310E-02 -0.15940128193E-01  0.62687505743E+00  0.62712161867E+00  0.51109989000E-03 0.  1.
     -623    1    1    2    0    0  0.14158401759E-02 -0.35666516250E-02  0.11511390205E-02  0.17124000005E+03  0.17124000000E+03 0.  1.
     -611    1    1    2    0    0  0.27633338919E-01  0.37717610656E-01  0.17006498675E+01  0.17012925829E+01  0.51109989000E-03 0. -1.
      611    1    1    2    0    0 -0.36454452526E-01 -0.18210830838E-01  0.31713239124E+01  0.31715857517E+01  0.51109989000E-03 0.  1.
</event>
<event>
 6   3  0.2312675E+03  0.9118800E+02  0.7818608E-02  0.1180000E+00
       11   -1    0    0    0    0  0.00000000000E+00  0.00000000000E+00  0.54999999763E+01  0.55000000000E+01  0.51109989000E-03 0.  1.
     -623   -1    0    0    0    0  0.00000000000E+00  0.00000000000E+00  0.93234578044E-11  0.17124000000E+03  0.17124000000E+03 0.  1.
       11    1    1    2    0    0  0.36054432316E-02 -0.20160792830E-01  0.12404761057E+00  0.12572799092E+00  0.51109989000E-03 0.  1.
     -623    1    1    2    0    0  0.30181121798E-01  0.40567028255E-01  0.37126186529E-02  0.17124000751E+03  0.17124000000E+03 0.  1.
     -611    1    1    2    0    0 -0.73959715511E-01 -0.56801919500E-01  0.33347279957E+01  0.33360317091E+01  0.51109989000E-03 0.  1.
      611    1    1    2    0    0  0.40173150481E-01  0.36395684075E-01  0.20375117514E+01  0.20382327949E+01  0.51109989000E-03 0. -1.
</event>
<event>
 6   3  0.2312675E+03  0.9118800E+02  0.7818608E-02  0.1180000E+00
       11   -1    0    0    0    0  0.00000000000E+00  0.00000000000E+00  0.54999999763E+01  0.55000000000E+01  0.51109989000E-03 0. -1.
     -623   -1    0    0    0    0  0.00000000000E+00  0.00000000000E+00  0.93234578044E-11  0.17124000000E+03  0.17124000000E+03 0. -1.
       11    1    1    2    0    0 -0.46158117781E-01 -0.11744555045E-01  0.10869484225E+01  0.10879915629E+01  0.51109989000E-03 0. -1.
     -623    1    1    2    0    0 -0.94241448229E-03  0.33341768370E-02  0.13027695008E-02  0.17124000004E+03  0.17124000000E+03 0. -1.
     -611    1    1    2    0    0  0.18007091694E-01  0.35451160782E-02  0.16866723924E+01  0.16867723153E+01  0.51109989000E-03 0. -1.
      611    1    1    2    0    0  0.29093440555E-01  0.48652621269E-02  0.27250763905E+01  0.27252360805E+01  0.51109989000E-03 0. -1.
</event>
<event>
 6   3  0.2312675E+03  0.9118800E+02  0.7818608E-02  0.1180000E+00
       11   -1    0    0    0    0  0.00000000000E+00  0.00000000000E+00  0.54999999763E+01  0.55000000000E+01  0.51109989000E-03 0.  1.
     -623   -1    0    0    0    0  0.00000000000E+00  0.00000000000E+00  0.93234578044E-11  0.17124000000E+03  0.17124000000E+03 0. -1.
       11    1    1    2    0    0  0.16805114591E-02 -0.19356279299E-01  0.99282452044E+00  0.99301474273E+00  0.51109989000E-03 0.  1.
     -623    1    1    2    0    0 -0.18499625402E-01  0.24016433586E-01  0.96582390203E-03  0.17124000269E+03  0.17124000000E+03 0. -1.
     -611    1    1    2    0    0 -0.23004327121E-01 -0.10399022689E-01  0.56124753134E+00  0.56181526448E+00  0.51109989000E-03 0. -1.
      611    1    1    2    0    0  0.39823441063E-01  0.57388684031E-02  0.39449621004E+01  0.39451673065E+01  0.51109989000E-03 0.  1.
</event>
<event>
 6   3  0.2312675E+03  0.9118800E+02  0.7818608E-02  0.1180000E+00
       11   -1    0    0    0    0  0.00000000000E+00  0.00000000000E+00  0.54999999763E+01  0.55000000000E+01  0.51109989000E-03 0.  1.
     -623   -1    0    0    0    0  0.00000000000E+00  0.00000000000E+00  0.93234578044E-11  0.17124000000E+03  0.17124000000E+03 0. -1.
       11    1    1    2    0    0 -0.20705240970E-01  0.30788126387E-01  0.39540998520E+00  0.39714724391E+00  0.51109989000E-03 0.  1.
     -623    1    1    2    0    0  0.33860749047E-02 -0.23830476307E-01  0.49962081520E-02  0.17124000176E+03  0.17124000000E+03 0. -1.
     -611    1    1    2    0    0 -0.71575406717E-01  0.34954265832E-01  0.28471769921E+01  0.28482910534E+01  0.51109989000E-03 0.  1.
      611    1    1    2    0    0  0.88894572782E-01 -0.41911915912E-01  0.22524167908E+01  0.22545599381E+01  0.51109989000E-03 0. -1.
</event>
<event>
 6   3  0.2312675E+03  0.9118800E+02  0.7818608E-02  0.1180000E+00
       11   -1    0    0    0    0  0.00000000000E+00  0.00000000000E+00  0.54999999763E+01  0.55000000000E+01  0.51109989000E-03 0.  1.
     -623   -1    0    0    0    0  0.00000000000E+00  0.00000000000E+00  0.93234578044E-11  0.17124000000E+03  0.17124000000E+03 0. -1.
       11    1    1    2    0    0  0.38728197511E-02  0.15503000134E-02  0.53895966213E-01  0.54059583425E-01  0.51109989000E-03 0.  1.
     -623    1    1    2    0    0 -0.69988602614E-01 -0.29537063817E-01  0.67354637904E-03  0.17124001685E+03  0.17124000000E+03 0. -1.
     -611    1    1    2    0    0  0.12381252875E-01  0.33838390616E-02  0.63391799181E+00  0.63404812700E+00  0.51109989000E-03 0. -1.
      611    1    1    2    0    0  0.53734529984E-01  0.24602924741E-01  0.48115124716E+01  0.48118754378E+01  0.51109989000E-03 0.  1.
</event>
<event>
 6   3  0.2312675E+03  0.9118800E+02  0.7818608E-02  0.1180000E+00
       11   -1    0    0    0    0  0.00000000000E+00  0.00000000000E+00  0.54999999763E+01  0.55000000000E+01  0.51109989000E-03 0. -1.
     -623   -1    0    0    0    0  0.00000000000E+00  0.00000000000E+00  0.93234578044E-11  0.17124000000E+03  0.17124000000E+03 0. -1.
       11    1    1    2    0    0  0.56721024609E-01 -0.85210425326E-02  0.10136430852E+01  0.10152647183E+01  0.51109989000E-03 0. -1.
     -623    1    1    2    0    0  0.11667230861E-02  0.22525391637E-03  0.20057226290E-02  0.17124000002E+03  0.17124000000E+03 0. -1.
     -611    1    1    2    0    0 -0.17165507852E-01  0.66374744518E-03  0.14193972151E+01  0.14195012542E+01  0.51109989000E-03 0.  1.
      611    1    1    2    0    0 -0.40722239844E-01  0.76320411711E-02  0.30649539534E+01  0.30652340117E+01  0.51109989000E-03 0. -1.
</event>
<event>
 6   3  0.2312675E+03  0.9118800E+02  0.7818608E-02  0.1180000E+00
       11   -1    0    0    0    0  0.00000000000E+00  0.00000000000E+00  0.54999999763E+01  0.55000000000E+01  0.51109989000E-03 0. -1.
     -623   -1    0    0    0    0  0.00000000000E+00  0.00000000000E+00  0.93234578044E-11  0.17124000000E+03  0.17124000000E+03 0. -1.
       11    1    1    2    0    0  0.29901703059E-03 -0.38523788921E-02  0.17998812006E-01  0.18415990091E-01  0.51109989000E-03 0. -1.
     -623    1    1    2    0    0  0.29803217904E-02  0.82737970094E-03  0.12730706876E-02  0.17124000003E+03  0.17124000000E+03 0. -1.
     -611    1    1    2    0    0 -0.34296451803E-01  0.36190629638E-01  0.33579716770E+01  0.33583418607E+01  0.51109989000E-03 0. -1.
      611    1    1    2    0    0  0.31017112982E-01 -0.33165630446E-01  0.21227564166E+01  0.21232421166E+01  0.51109989000E-03 0.  1.
</event>
<event>
 6   3  0.2312675E+03  0.9118800E+02  0.7818608E-02  0.1180000E+00
       11   -1    0    0    0    0  0.00000000000E+00  0.00000000000E+00  0.54999999763E+01  0.55000000000E+01  0.51109989000E-03 0. -1.
     -623   -1    0    0    0    0  0.00000000000E+00  0.00000000000E+00  0.93234578044E-11  0.17124000000E+03  0.17124000000E+03 0. -1.
       11    1    1    2    0    0  0.29128602073E-01 -0.28660545777E-01  0.39030860239E+00  0.39244231253E+00  0.51109989000E-03 0. -1.
     -623    1    1    2    0    0  0.40102468251E-01  0.19095881960E-01  0.26214495737E-02  0.17124000578E+03  0.17124000000E+03 0. -1.
     -611    1    1    2    0    0 -0.29997007746E-01  0.18649721279E-02  0.20444889649E+01  0.20447099274E+01  0.51109989000E-03 0. -1.
      611    1    1    2    0    0 -0.39234062579E-01  0.76996916893E-02  0.30625809596E+01  0.30628419796E+01  0.51109989000E-03 0.  1.
</event>
<event>
 6   3  0.2312675E+03  0.9118800E+02  0.7818608E-02  0.1180000E+00
       11   -1    0    0    0    0  0.00000000000E+00  0.00000000000E+00  0.54999999763E+01  0.55000000000E+01  0.51109989000E-03 0.  1.
     -623   -1    0    0    0    0  0.00000000000E+00  0.00000000000E+00  0.93234578044E-11  0.17124000000E+03  0.17124000000E+03 0. -1.
       11    1    1    2    0    0 -0.28738386325E-02 -0.36586755178E-04  0.82473451290E+00  0.82473967910E+00  0.51109989000E-03 0.  1.
     -623    1    1    2    0    0 -0.27615703805E-03 -0.19916513905E-02  0.30545210224E-03  0.17124000001E+03  0.17124000000E+03 0. -1.
     -611    1    1    2    0    0  0.26522162087E-01  0.99064696001E-02  0.24731392820E+01  0.24733013833E+01  0.51109989000E-03 0. -1.
      611    1    1    2    0    0 -0.23372166417E-01 -0.78782314544E-02  0.22018207293E+01  0.22019589255E+01  0.51109989000E-03 0.  1.
</event>
<event>
 6   3  0.2312675E+03  0.9118800E+02  0.7818608E-02  0.1180000E+00
       11   -1    0    0    0    0  0.00000000000E+00  0.00000000000E+00  0.54999999763E+01  0.55000000000E+01  0.51109989000E-03 0. -1.
     -623   -1    0    0    0    0  0.00000000000E+00  0.00000000000E+00  0.93234578044E-11  0.17124000000E+03  0.17124000000E+03 0.  1.
       11    1    1    2    0    0 -0.60878856157E-01  0.14471550862E-01  0.89699606129E+00  0.89917620971E+00  0.51109989000E-03 0. -1.
     -623    1    1    2    0    0  0.78872421414E-02  0.40027634159E-02  0.25232091103E-02  0.17124000025E+03  0.17124000000E+03 0.  1.
     -611    1    1    2    0    0  0.23900753182E-01 -0.77188062554E-02  0.21260262790E+01  0.21261746933E+01  0.51109989000E-03 0.  1.
      611    1    1    2    0    0  0.29090860836E-01 -0.10755508023E-01  0.24744544271E+01  0.24746488503E+01  0.51109989000E-03 0. -1.
</event>
<event>
 6   3  0.2312675E+03  0.9118800E+02  0.7818608E-02  0.1180000E+00
       11   -1    0    0    0    0  0.00000000000E+00  0.00000000000E+00  0.54999999763E+01  0.55000000000E+01  0.51109989000E-03 0. -1.
     -623   -1    0    0    0    0  0.00000000000E+00  0.00000000000E+00  0.93234578044E-11  0.17124000000E+03  0.17124000000E+03 0.  1.
       11    1    1    2    0    0  0.33764059046E-01  0.12866567857E-02  0.19460767418E+00  0.19751980974E+00  0.51109989000E-03 0. -1.
     -623    1    1    2    0    0  0.59420525293E-02 -0.11072238206E-01  0.65242119959E-02  0.17124000059E+03  0.17124000000E+03 0.  1.
     -611    1    1    2    0    0 -0.93877520360E-01 -0.56781551011E-01  0.28767640865E+01  0.28788555025E+01  0.51109989000E-03 0. -1.
      611    1    1    2    0    0  0.54171408785E-01  0.66567132432E-01  0.24221040036E+01  0.24236241024E+01  0.51109989000E-03 0.  1.
</event>
<event>
 6   3  0.2312675E+03  0.9118800E+02  0.7818608E-02  0.1180000E+00
       11   -1    0    0    0    0  0.00000000000E+00  0.00000000000E+00  0.54999999763E+01  0.55000000000E+01  0.51109989000E-03 0.  1.
     -623   -1    0    0    0    0  0.00000000000E+00  0.00000000000E+00  0.93234578044E-11  0.17124000000E+03  0.17124000000E+03 0.  1.
       11    1    1    2    0    0  0.12384324342E-04  0.15893314278E-01  0.64759309384E+00  0.64778829412E+00  0.51109989000E-03 0.  1.
     -623    1    1    2    0    0  0.50876961236E-01 -0.47484244220E-02  0.48391239604E-03  0.17124000762E+03  0.17124000000E+03 0.  1.
     -611    1    1    2    0    0 -0.28820025460E-01 -0.53104339830E-02  0.28650015234E+01  0.28651514419E+01  0.51109989000E-03 0.  1.
      611    1    1    2    0    0 -0.22069320100E-01 -0.58344558726E-02  0.19869214466E+01  0.19870526394E+01  0.51109989000E-03 0.  1.
</event>
<event>
 6   3  0.2312675E+03  0.9118800E+02  0.7818608E-02  0.1180000E+00
       11   -1    0    0    0    0  0.00000000000E+00  0.00000000000E+00  0.54999999763E+01  0.55000000000E+01  0.51109989000E-03 0.  1.
     -623   -1    0    0    0    0  0.00000000000E+00  0.00000000000E+00  0.93234578044E-11  0.17124000000E+03  0.17124000000E+03 0.  1.
       11    1    1    2    0    0  0.35201997742E-02 -0.11248931813E-01  0.47485464990E+00  0.47500118950E+00  0.51109989000E-03 0.  1.
     -623    1    1    2    0    0  0.86728514071E-01  0.21866552146E-01  0.11064298974E-02  0.17124002336E+03  0.17124000000E+03 0.  1.
     -611    1    1    2    0    0 -0.61499233724E-01  0.41769351360E-02  0.38413156240E+01  0.38418101966E+01  0.51109989000E-03 0.  1.
      611    1    1    2    0    0 -0.28749480120E-01 -0.14794555469E-01  0.11827232724E+01  0.11831652513E+01  0.51109989000E-03 0. -1.
</event>
<event>
 6   3  0.2312675E+03  0.9118800E+02  0.7818608E-02  0.1180000E+00
       11   -1    0    0    0    0  0.00000000000E+00  0.00000000000E+00  0.54999999763E+01  0.55000000000E+01  0.51109989000E-03 0. -1.
     -623   -1    0    0    0    0  0.00000000000E+00  0.00000000000E+00  0.93234578044E-11  0.17124000000E+03  0.17124000000E+03 0.  1.
       11    1    1    2    0    0 -0.80535652891E-01 -0.61022680591E-01  0.10880417335E+01  0.10927235854E+01  0.51109989000E-03 0. -1.
     -623    1    1    2    0    0  0.19186635141E-01  0.45241423435E-01  0.51443840410E-02  0.17124000713E+03  0.17124000000E+03 0.  1.
     -611    1    1    2    0    0  0.23178269545E-01  0.60856571037E-02  0.16842525567E+01  0.16844231069E+01  0.51109989000E-03 0. -1.
      611    1    1    2    0    0  0.38170748198E-01  0.96956000505E-02  0.27225613015E+01  0.27228461786E+01  0.51109989000E-03 0. -1.
</event>
<event>
 6   3  0.2312675E+03  0.9118800E+02  0.7818608E-02  0.1180000E+00
       11   -1    0    0    0    0  0.00000000000E+00  0.00000000000E+00  0.54999999763E+01  0.55000000000E+01  0.51109989000E-03 0. -1.
     -623   -1    0    0    0    0  0.00000000000E+00  0.00000000000E+00  0.93234578044E-11  0.17124000000E+03  0.17124000000E+03 0. -1.
       11    1    1    2    0    0  0.64974247134E-01  0.42428587580E-01  0.22004488882E+00  0.23332777836E+00  0.51109989000E-03 0. -1.
     -623    1    1    2    0    0  0.10416886493E+00 -0.74563285644E-01  0.16211792309E-01  0.17124004869E+03  0.17124000000E+03 0. -1.
     -611    1    1    2    0    0 -0.52751993516E-01  0.14464161146E-01  0.13439542044E+01  0.13450669684E+01  0.51109989000E-03 0.  1.
      611    1    1    2    0    0 -0.11639111855E+00  0.17670536919E-01  0.39197890907E+01  0.39215565682E+01  0.51109989000E-03 0. -1.
</event>
<event>
 6   3  0.2312675E+03  0.9118800E+02  0.7818608E-02  0.1180000E+00
       11   -1    0    0    0    0  0.00000000000E+00  0.00000000000E+00  0.54999999763E+01  0.55000000000E+01  0.51109989000E-03 0.  1.
     -623   -1    0    0    0    0  0.00000000000E+00  0.00000000000E+00  0.93234578044E-11  0.17124000000E+03  0.17124000000E+03 0. -1.
       11    1    1    2    0    0 -0.60746629208E-01 -0.63673217733E-01  0.80357039329E+00  0.80837495620E+00  0.51109989000E-03 0.  1.
     -623    1    1    2    0    0 -0.19508816218E-01 -0.83280288278E-02  0.60784643952E-02  0.17124000142E+03  0.17124000000E+03 0. -1.
     -611    1    1    2    0    0  0.41441684419E-01  0.42955694500E-01  0.29125820905E+01  0.29131936599E+01  0.51109989000E-03 0. -1.
      611    1    1    2    0    0  0.38813761006E-01  0.29045552061E-01  0.17777690281E+01  0.17784299622E+01  0.51109989000E-03 0.  1.
</event>
<event>
 6   3  0.2312675E+03  0.9118800E+02  0.7818608E-02  0.1180000E+00
       11   -1    0    0    0    0  0.00000000000E+00  0.00000000000E+00  0.54999999763E+01  0.55000000000E+01  0.51109989000E-03 0. -1.
     -623   -1    0    0    0    0  0.00000000000E+00  0.00000000000E+00  0.93234578044E-11  0.17124000000E+03  0.17124000000E+03 0.  1.
       11    1    1    2    0    0 -0.35440073933E-01 -0.32281291579E-01  0.64630040110E+00  0.64807603744E+00  0.51109989000E-03 0. -1.
     -623    1    1    2    0    0 -0.21788257777E-01  0.12779165791E-01  0.21545675334E-02  0.17124000188E+03  0.17124000000E+03 0.  1.
     -611    1    1    2    0    0  0.68953693410E-02  0.26911035224E-02  0.58493235523E+00  0.58497940953E+00  0.51109989000E-03 0. -1.
      611    1    1    2    0    0  0.50332962374E-01  0.16811022268E-01  0.42666126529E+01  0.42669426770E+01  0.51109989000E-03 0. -1.
</event>
<event>
 6   3  0.2312675E+03  0.9118800E+02  0.7818608E-02  0.1180000E+00
       11   -1    0    0    0    0  0.00000000000E+00  0.00000000000E+00  0.54999999763E+01  0.55000000000E+01  0.51109989000E-03 0.  1.
     -623   -1    0    0    0    0  0.00000000000E+00  0.00000000000E+00  0.93234578044E-11  0.17124000000E+03  0.17124000000E+03 0. -1.
       11    1    1    2    0    0  0.77469571756E-01 -0.15593335316E-01  0.33965262427E+00  0.34872460918E+00  0.51109989000E-03 0.  1.
     -623    1    1    2    0    0 -0.71270598060E-02  0.32596643968E-01  0.95840495511E-02  0.17124000352E+03  0.17124000000E+03 0. -1.
     -611    1    1    2    0    0 -0.22049487181E-01 -0.50150992516E-02  0.15871519493E+01  0.15873131079E+01  0.51109989000E-03 0.  1.
      611    1    1    2    0    0 -0.48293024867E-01 -0.11988209424E-01  0.35636113603E+01  0.35639587711E+01  0.51109989000E-03 0.  1.
</event>
<event>
 6   3  0.2312675E+03  0.9118800E+02  0.7818608E-02  0.1180000E+00
       11   -1    0    0    0    0  0.00000000000E+00  0.00000000000E+00  0.54999999763E+01  0.55000000000E+01  0.51109989000E-03 0.  1.
     -623   -1    0    0    0    0  0.00000000000E+00  0.00000000000E+00  0.93234578044E-11  0.17124000000E+03  0.17124000000E+03 0. -1.
       11    1    1    2    0    0 -0.14527064206E-01  0.76911144577E-02  0.19104433706E+00  0.19175085080E+00  0.51109989000E-03 0.  1.
     -623    1    1    2    0    0  0.37218296226E-02  0.83985036320E-02  0.15985352508E-02  0.17124000025E+03  0.17124000000E+03 0. -1.
     -611    1    1    2    0    0 -0.33776525616E-01  0.20155233418E-01  0.18971256304E+01  0.18975334005E+01  0.51109989000E-03 0. -1.
      611    1    1    2    0    0  0.44581760199E-01 -0.36244851508E-01  0.34102314736E+01  0.34107154949E+01  0.51109989000E-03 0.  1.
</event>
<event>
 6   3  0.2312675E+03  0.9118800E+02  0.7818608E-02  0.1180000E+00
       11   -1    0    0    0    0  0.00000000000E+00  0.00000000000E+00  0.54999999763E+01  0.55000000000E+01  0.51109989000E-03 0. -1.
     -623   -1    0    0    0    0  0.00000000000E+00  0.00000000000E+00  0.93234578044E-11  0.17124000000E+03  0.17124000000E+03 0. -1.
       11    1    1    2    0    0  0.72192954059E-02  0.20366837178E-01  0.81512351054E+00  0.81541003485E+00  0.51109989000E-03 0. -1.
     -623    1    1    2    0    0  0.43374951001E-01 -0.19914166968E-01  0.56709352744E-03  0.17124000665E+03  0.17124000000E+03 0. -1.
     -611    1    1    2    0    0 -0.18500439518E-01  0.92502035521E-03  0.17373392193E+01  0.17374380410E+01  0.51109989000E-03 0. -1.
      611    1    1    2    0    0 -0.32093806919E-01 -0.13776905642E-02  0.29469701557E+01  0.29471452748E+01  0.51109989000E-03 0. -1.
</event>
<event>
 6   3  0.2312675E+03  0.9118800E+02  0.7818608E-02  0.1180000E+00
       11   -1    0    0    0    0  0.00000000000E+00  0.00000000000E+00  0.54999999763E+01  0.55000000000E+01  0.51109989000E-03 0. -1.
     -623   -1    0    0    0    0  0.00000000000E+00  0.00000000000E+00  0.93234578044E-11  0.17124000000E+03  0.17124000000E+03 0.  1.
       11    1    1    2    0    0 -0.44238651143E-02 -0.74992575065E-03  0.48692795702E+00  0.48694889826E+00  0.51109989000E-03 0.  1.
     -623    1    1    2    0    0  0.68612367668E-01 -0.28022926276E-01  0.53062575870E-03  0.17124001604E+03  0.17124000000E+03 0.  1.
     -611    1    1    2    0    0 -0.25704960006E-01  0.11300905609E-01  0.20049807214E+01  0.20051774011E+01  0.51109989000E-03 0. -1.
      611    1    1    2    0    0 -0.38483542540E-01  0.17471946415E-01  0.30075606714E+01  0.30078576604E+01  0.51109989000E-03 0. -1.
</event>
<event>
 6   3  0.2312675E+03  0.9118800E+02  0.7818608E-02  0.1180000E+00
       11   -1    0    0    0    0  0.00000000000E+00  0.00000000000E+00  0.54999999763E+01  0.55000000000E+01  0.51109989000E-03 0. -1.
     -623   -1    0    0    0    0  0.00000000000E+00  0.00000000000E+00  0.93234578044E-11  0.17124000000E+03  0.17124000000E+03 0.  1.
       11    1    1    2    0    0  0.55424923593E-01  0.23034224940E-01  0.56993124393E+00  0.57308322406E+00  0.51109989000E-03 0. -1.
     -623    1    1    2    0    0 -0.58786260797E-01 -0.88273648816E-01  0.47883960636E-02  0.17124003291E+03  0.17124000000E+03 0.  1.
     -611    1    1    2    0    0  0.30279618781E-01  0.83570851175E-01  0.29623129199E+01  0.29636462405E+01  0.51109989000E-03 0. -1.
      611    1    1    2    0    0 -0.26918281577E-01 -0.18331427299E-01  0.19629674164E+01  0.19632376255E+01  0.51109989000E-03 0.  1.
</event>
<event>
 6   3  0.2312675E+03  0.9118800E+02  0.7818608E-02  0.1180000E+00
       11   -1    0    0    0    0  0.00000000000E+00  0.00000000000E+00  0.54999999763E+01  0.55000000000E+01  0.51109989000E-03 0.  1.
     -623   -1    0    0    0    0  0.00000000000E+00  0.00000000000E+00  0.93234578044E-11  0.17124000000E+03  0.17124000000E+03 0. -1.
       11    1    1    2    0    0 -0.53511442761E-02 -0.26994152470E-02  0.81159612710E+00  0.81161841794E+00  0.51109989000E-03 0.  1.
     -623    1    1    2    0    0  0.54410640398E-01  0.17956458577E-01  0.31352605949E-03  0.17124000959E+03  0.17124000000E+03 0. -1.
     -611    1    1    2    0    0 -0.15900644852E-01 -0.46839856455E-02  0.15155296562E+01  0.15156203913E+01  0.51109989000E-03 0.  1.
      611    1    1    2    0    0 -0.33158851078E-01 -0.10573057622E-01  0.31725606475E+01  0.31727515853E+01  0.51109989000E-03 0.  1.
</event>
<event>
 6   3  0.2312675E+03  0.9118800E+02  0.7818608E-02  0.1180000E+00
       11   -1    0    0    0    0  0.00000000000E+00  0.00000000000E+00  0.54999999763E+01  0.55000000000E+01  0.51109989000E-03 0.  1.
     -623   -1    0    0    0    0  0.00000000000E+00  0.00000000000E+00  0.93234578044E-11  0.17124000000E+03  0.17124000000E+03 0.  1.
       11    1    1    2    0    0 -0.16100227267E-01 -0.91032174155E-02  0.11269928581E+00  0.11420803882E+00  0.51109989000E-03 0.  1.
     -623    1    1    2    0    0  0.66740822598E-03 -0.28864450596E-02  0.24690248549E-02  0.17124000004E+03  0.17124000000E+03 0.  1.
     -611    1    1    2    0    0 -0.37151946160E-01  0.74370425335E-02  0.11347530997E+01  0.11353855888E+01  0.51109989000E-03 0. -1.
      611    1    1    2    0    0  0.52584765201E-01  0.45526199416E-02  0.42500785659E+01  0.42504063290E+01  0.51109989000E-03 0.  1.
</event>
<event>
 6   3  0.2312675E+03  0.9118800E+02  0.7818608E-02  0.1180000E+00
       11   -1    0    0    0    0  0.00000000000E+00  0.00000000000E+00  0.54999999763E+01  0.55000000000E+01  0.51109989000E-03 0. -1.
     -623   -1    0    0    0    0  0.00000000000E+00  0.00000000000E+00  0.93234578044E-11  0.17124000000E+03  0.17124000000E+03 0. -1.
       11    1    1    2    0    0 -0.11172529252E-01 -0.22189800715E-01  0.43465031098E+00  0.43536004264E+00  0.51109989000E-03 0. -1.
     -623    1    1    2    0    0  0.98085570320E-02 -0.15424072844E-01  0.21333776525E-02  0.17124000099E+03  0.17124000000E+03 0. -1.
     -611    1    1    2    0    0 -0.41517000552E-01 -0.26258838438E-02  0.85478849939E+00  0.85580032514E+00  0.51109989000E-03 0.  1.
      611    1    1    2    0    0  0.42880972772E-01  0.40239757403E-01  0.42084277882E+01  0.42088386433E+01  0.51109989000E-03 0. -1.
</event>
<event>
 6   3  0.2312675E+03  0.9118800E+02  0.7818608E-02  0.1180000E+00
       11   -1    0    0    0    0  0.00000000000E+00  0.00000000000E+00  0.54999999763E+01  0.55000000000E+01  0.51109989000E-03 0. -1.
     -623   -1    0    0    0    0  0.00000000000E+00  0.00000000000E+00  0.93234578044E-11  0.17124000000E+03  0.17124000000E+03 0.  1.
       11    1    1    2    0    0  0.19998851572E-02 -0.16483500684E-03  0.10216167287E-01  0.10423915212E-01  0.51109989000E-03 0. -1.
     -623    1    1    2    0    0 -0.14574265941E-02 -0.22140279569E-02  0.16314354488E-02  0.17124000003E+03  0.17124000000E+03 0.  1.
     -611    1    1    2    0    0 -0.35959790062E-01 -0.46564204657E-01  0.35347576962E+01  0.35352473130E+01  0.51109989000E-03 0. -1.
      611    1    1    2    0    0  0.35417331499E-01  0.48943067620E-01  0.19533946772E+01  0.19543287434E+01  0.51109989000E-03 0.  1.
</event>
<event>
 6   3  0.2312675E+03  0.9118800E+02  0.7818608E-02  0.1180000E+00
       11   -1    0    0    0    0  0.00000000000E+00  0.00000000000E+00  0.54999999763E+01  0.55000000000E+01  0.51109989000E-03 0.  1.
     -623   -1    0    0    0    0  0.00000000000E+00  0.00000000000E+00  0.93234578044E-11  0.17124000000E+03  0.17124000000E+03 0. -1.
       11    1    1    2    0    0 -0.22817827719E-01  0.52875278377E-01  0.56754420558E+00  0.57045870564E+00  0.51109989000E-03 0.  1.
     -623    1    1    2    0    0  0.59867363560E-02  0.10387876634E-02  0.40476009722E-02  0.17124000016E+03  0.17124000000E+03 0. -1.
     -611    1    1    2    0    0  0.39788433465E-01 -0.14900129861E-01  0.37831336783E+01  0.37833722818E+01  0.51109989000E-03 0.  1.
      611    1    1    2    0    0 -0.22957342102E-01 -0.39013936179E-01  0.11452744915E+01  0.11461688570E+01  0.51109989000E-03 0. -1.
</event>
<event>
 6   3  0.2312675E+03  0.9118800E+02  0.7818608E-02  0.1180000E+00
       11   -1    0    0    0    0  0.00000000000E+00  0.00000000000E+00  0.54999999763E+01  0.55000000000E+01  0.51109989000E-03 0. -1.
     -623   -1    0    0    0    0  0.00000000000E+00  0.00000000000E+00  0.93234578044E-11  0.17124000000E+03  0.17124000000E+03 0. -1.
       11    1    1    2    0    0 -0.50730727927E-01  0.54213949234E-01  0.73680759767E+00  0.74053930095E+00  0.51109989000E-03 0. -1.
     -623    1    1    2    0    0 -0.14030449955E-02  0.43494895233E-02  0.49288456614E-02  0.17124000013E+03  0.17124000000E+03 0. -1.
     -611    1    1    2    0    0  0.39330168953E-01 -0.75620515975E-01  0.36951007360E+01  0.36960837430E+01  0.51109989000E-03 0. -1.
      611    1    1    2    0    0  0.12803603970E-01  0.17057077218E-01  0.10631627969E+01  0.10633768242E+01  0.51109989000E-03 0.  1.
</event>
<event>
 6   3  0.2312675E+03  0.9118800E+02  0.7818608E-02  0.1180000E+00
       11   -1    0    0    0    0  0.00000000000E+00  0.00000000000E+00  0.54999999763E+01  0.55000000000E+01  0.51109989000E-03 0. -1.
     -623   -1    0    0    0    0  0.00000000000E+00  0.00000000000E+00  0.93234578044E-11  0.17124000000E+03  0.17124000000E+03 0.  1.
       11    1    1    2    0    0 -0.26350521606E-01 -0.49785880452E-02  0.35622243148E+00  0.35723076329E+00  0.51109989000E-03 0. -1.
     -623    1    1    2    0    0  0.41001106219E-02 -0.90542275670E-02  0.14142141837E-02  0.17124000029E+03  0.17124000000E+03 0.  1.
     -611    1    1    2    0    0  0.41842169905E-01  0.16188096151E-01  0.36025894338E+01  0.36028688168E+01  0.51109989000E-03 0. -1.
      611    1    1    2    0    0 -0.19591758921E-01 -0.21552805393E-02  0.15397738968E+01  0.15399001255E+01  0.51109989000E-03 0.  1.
</event>
<event>
 6   3  0.2312675E+03  0.9118800E+02  0.7818608E-02  0.1180000E+00
       11   -1    0    0    0    0  0.00000000000E+00  0.00000000000E+00  0.54999999763E+01  0.55000000000E+01  0.51109989000E-03 0.  1.
     -623   -1    0    0    0    0  0.00000000000E+00  0.00000000000E+00  0.93234578044E-11  0.17124000000E+03  0.17124000000E+03 0. -1.
       11    1    1    2    0    0  0.54084852151E-01  0.40591762913E-01  0.82101499624E+00  0.82379533121E+00  0.51109989000E-03 0.  1.
     -623    1    1    2    0    0 -0.40874897003E-02 -0.38146562694E-03  0.32212204420E-02  0.17124000008E+03  0.17124000000E+03 0. -1.
     -611    1    1    2    0    0 -0.35667267639E-01 -0.27867565194E-01  0.33525301799E+01  0.33528357585E+01  0.51109989000E-03 0.  1.
      611    1    1    2    0    0 -0.14330094834E-01 -0.12342732111E-01  0.13232335817E+01  0.13233688328E+01  0.51109989000E-03 0. -1.
</event>
<event>
 6   3  0.2312675E+03  0.9118800E+02  0.7818608E-02  0.1180000E+00
       11   -1    0    0    0    0  0.00000000000E+00  0.00000000000E+00  0.54999999763E+01  0.55000000000E+01  0.51109989000E-03 0.  1.
     -623   -1    0    0    0    0  0.00000000000E+00  0.00000000000E+00  0.93234578044E-11  0.17124000000E+03  0.17124000000E+03 0. -1.
       11    1    1    2    0    0  0.50448948802E-01 -0.47646629128E-01  0.76255422710E+00  0.76570523584E+00  0.51109989000E-03 0.  1.
     -623    1    1    2    0    0  0.47841995424E-02 -0.33586969213E-01  0.48427112662E-02  0.17124000343E+03  0.17124000000E+03 0. -1.
     -611    1    1    2    0    0 -0.74646909957E-01  0.70426354724E-01  0.41396409244E+01  0.41409128555E+01  0.51109989000E-03 0.  1.
      611    1    1    2    0    0  0.19413761612E-01  0.10807243617E-01  0.59296211348E+00  0.59337847948E+00  0.51109989000E-03 0. -1.
</event>
<event>
 6   3  0.2312675E+03  0.9118800E+02  0.7818608E-02  0.1180000E+00
       11   -1    0    0    0    0  0.00000000000E+00  0.00000000000E+00  0.54999999763E+01  0.55000000000E+01  0.51109989000E-03 0.  1.
     -623   -1    0    0    0    0  0.00000000000E+00  0.00000000000E+00  0.93234578044E-11  0.17124000000E+03  0.17124000000E+03 0.  1.
       11    1    1    2    0    0 -0.13110201792E-01  0.27846090295E-02  0.13385927063E-01  0.18949292992E-01  0.51109989000E-03 0.  1.
     -623    1    1    2    0    0 -0.15101277397E-02  0.10021571162E-01  0.60138461204E-02  0.17124000041E+03  0.17124000000E+03 0.  1.
     -611    1    1    2    0    0  0.39609381864E-01 -0.19418640467E-01  0.36821073163E+01  0.36823715913E+01  0.51109989000E-03 0.  1.
      611    1    1    2    0    0 -0.24989052333E-01  0.66124602753E-02  0.17984928868E+01  0.17986787102E+01  0.51109989000E-03 0. -1.
</event>
<event>
 6   3  0.2312675E+03  0.9118800E+02  0.7818608E-02  0.1180000E+00
       11   -1    0    0    0    0  0.00000000000E+00  0.00000000000E+00  0.54999999763E+01  0.55000000000E+01  0.51109989000E-03 0.  1.
     -623   -1    0    0    0    0  0.00000000000E+00  0.00000000000E+00  0.93234578044E-11  0.17124000000E+03  0.17124000000E+03 0.  1.
       11    1    1    2    0    0  0.14091917409E-01  0.76422740292E-02  0.72130024236E+00  0.72147854254E+00  0.51109989000E-03 0.  1.
     -623    1    1    2    0    0 -0.26864074974E-02  0.38096889292E-02  0.15419525776E-02  0.17124000007E+03  0.17124000000E+03 0.  1.
     -611    1    1    2    0    0  0.51032421467E-01 -0.29411999585E-02  0.21751927538E+01  0.21757933579E+01  0.51109989000E-03 0. -1.
      611    1    1    2    0    0 -0.62437931379E-01 -0.85107629998E-02  0.26019650275E+01  0.26027280292E+01  0.51109989000E-03 0.  1.
</event>
<event>
 6   3  0.2312675E+03  0.9118800E+02  0.7818608E-02  0.1180000E+00
       11   -1    0    0    0    0  0.00000000000E+00  0.00000000000E+00  0.54999999763E+01  0.55000000000E+01  0.51109989000E-03 0. -1.
     -623   -1    0    0    0    0  0.00000000000E+00  0.00000000000E+00  0.93234578044E-11  0.17124000000E+03  0.17124000000E+03 0. -1.
       11    1    1    2    0    0 -0.14788667958E-02  0.26529628071E-01  0.12577262130E+00  0.12854968574E+00  0.51109989000E-03 0. -1.
     -623    1    1    2    0    0 -0.60408918581E-01  0.21542972846E-01  0.37535212043E-02  0.17124001205E+03  0.17124000000E+03 0. -1.
     -611    1    1    2    0    0 -0.11918022934E-01  0.26452115415E-02  0.61980671866E+00  0.61992714583E+00  0.51109989000E-03 0.  1.
      611    1    1    2    0    0  0.73805808311E-01 -0.50717812459E-01  0.47506671151E+01  0.47515111169E+01  0.51109989000E-03 0. -1.
</event>
<event>
 6   3  0.2312675E+03  0.9118800E+02  0.7818608E-02  0.1180000E+00
       11   -1    0    0    0    0  0.00000000000E+00  0.00000000000E+00  0.54999999763E+01  0.55000000000E+01  0.51109989000E-03 0. -1.
     -623   -1    0    0    0    0  0.00000000000E+00  0.00000000000E+00  0.93234578044E-11  0.17124000000E+03  0.17124000000E+03 0. -1.
       11    1    1    2    0    0  0.22053463286E-02 -0.47955065187E-02  0.34687025928E+00  0.34691079319E+00  0.51109989000E-03 0. -1.
     -623    1    1    2    0    0 -0.66945152777E-01  0.44673031048E-01  0.62075727206E-03  0.17124001891E+03  0.17124000000E+03 0. -1.
     -611    1    1    2    0    0  0.20052833010E-01 -0.11958028991E-01  0.15424603530E+01  0.15426371292E+01  0.51109989000E-03 0.  1.
      611    1    1    2    0    0  0.44686973452E-01 -0.27919495545E-01  0.36100486077E+01  0.36104331644E+01  0.51109989000E-03 0. -1.
</event>
<event>
 6   3  0.2312675E+03  0.9118800E+02  0.7818608E-02  0.1180000E+00
       11   -1    0    0    0    0  0.00000000000E+00  0.00000000000E+00  0.54999999763E+01  0.55000000000E+01  0.51109989000E-03 0.  1.
     -623   -1    0    0    0    0  0.00000000000E+00  0.00000000000E+00  0.93234578044E-11  0.17124000000E+03  0.17124000000E+03 0.  1.
       11    1    1    2    0    0 -0.43286614935E-01 -0.55172233140E-02  0.10892376521E+01  0.10901115057E+01  0.51109989000E-03 0.  1.
     -623    1    1    2    0    0 -0.60331140994E-02  0.40900368406E-02  0.11572862804E-02  0.17124000016E+03  0.17124000000E+03 0.  1.
     -611    1    1    2    0    0  0.33366732851E-01  0.36743410616E-02  0.31940792486E+01  0.31942556797E+01  0.51109989000E-03 0. -1.
      611    1    1    2    0    0  0.15952996183E-01 -0.22471545881E-02  0.12155257892E+01  0.12156326556E+01  0.51109989000E-03 0.  1.
</event>
<event>
 6   3  0.2312675E+03  0.9118800E+02  0.7818608E-02  0.1180000E+00
       11   -1    0    0    0    0  0.00000000000E+00  0.00000000000E+00  0.54999999763E+01  0.55000000000E+01  0.51109989000E-03 0. -1.
     -623   -1    0    0    0    0  0.00000000000E+00  0.00000000000E+00  0.93234578044E-11  0.17124000000E+03  0.17124000000E+03 0.  1.
       11    1    1    2    0    0  0.58305488054E-01  0.60062845767E-02  0.10025624940E+01  0.10042745745E+01  0.51109989000E-03 0. -1.
     -623    1    1    2    0    0 -0.13435871916E-02 -0.39444463791E-03  0.20817685709E-02  0.17124000002E+03  0.17124000000E+03 0.  1.
     -611    1    1    2    0    0 -0.21119767833E-01 -0.13868976876E-02  0.19214113210E+01  0.19215279581E+01  0.51109989000E-03 0.  1.
      611    1    1    2    0    0 -0.35842133030E-01 -0.42249422512E-02  0.25739443928E+01  0.25741974492E+01  0.51109989000E-03 0. -1.
</event>
<event>
 6   3  0.2312675E+03  0.9118800E+02  0.7818608E-02  0.1180000E+00
       11   -1    0    0    0    0  0.00000000000E+00  0.00000000000E+00  0.54999999763E+01  0.55000000000E+01  0.51109989000E-03 0.  1.
     -623   -1    0    0    0    0  0.00000000000E+00  0.00000000000E+00  0.93234578044E-11  0.17124000000E+03  0.17124000000E+03 0.  1.
       11    1    1    2    0    0  0.47481133969E-02  0.10484195214E-02  0.46897075129E+00  0.46899623725E+00  0.51109989000E-03 0. -1.
     -623    1    1    2    0    0 -0.65659041191E-01 -0.53345481689E-03  0.41082115294E-03  0.17124001259E+03  0.17124000000E+03 0.  1.
     -611    1    1    2    0    0  0.36736249524E-01 -0.33116101983E-02  0.30805515609E+01  0.30807724193E+01  0.51109989000E-03 0.  1.
      611    1    1    2    0    0  0.24174678109E-01  0.27966454925E-02  0.19500668294E+01  0.19502187407E+01  0.51109989000E-03 0. -1.
</event>
<event>
 6   3  0.2312675E+03  0.9118800E+02  0.7818608E-02  0.1180000E+00
       11   -1    0    0    0    0  0.00000000000E+00  0.00000000000E+00  0.54999999763E+01  0.55000000000E+01  0.51109989000E-03 0.  1.
     -623   -1    0    0    0    0  0.00000000000E+00  0.00000000000E+00  0.93234578044E-11  0.17124000000E+03  0.17124000000E+03 0. -1.
       11    1    1    2    0    0 -0.61842208494E-03 -0.98088357466E-03  0.25461650787E-01  0.25493165013E-01  0.51109989000E-03 0.  1.
     -623    1    1    2    0    0  0.26590698264E-02  0.64222358641E-03  0.59034453767E-03  0.17124000002E+03  0.17124000000E+03 0. -1.
     -611    1    1    2    0    0  0.37711406492E-01  0.39224809148E-02  0.29385433914E+01  0.29387880258E+01  0.51109989000E-03 0. -1.
      611    1    1    2    0    0 -0.39752054234E-01 -0.35838209265E-02  0.25354045896E+01  0.25357187864E+01  0.51109989000E-03 0.  1.
</event>
<event>
 6   3  0.2312675E+03  0.9118800E+02  0.7818608E-02  0.1180000E+00
       11   -1    0    0    0    0  0.00000000000E+00  0.00000000000E+00  0.54999999763E+01  0.55000000000E+01  0.51109989000E-03 0. -1.
     -623   -1    0    0    0    0  0.00000000000E+00  0.00000000000E+00  0.93234578044E-11  0.17124000000E+03  0.17124000000E+03 0.  1.
       11    1    1    2    0    0 -0.31134241327E-02 -0.25630016338E-02  0.13705802619E-02  0.42897669583E-02  0.51109989000E-03 0. -1.
     -623    1    1    2    0    0  0.21787494013E-02 -0.20700567218E-03  0.12032157912E-01  0.17124000044E+03  0.17124000000E+03 0.  1.
     -611    1    1    2    0    0  0.15690596007E+00 -0.31730037339E-02  0.23532603230E+01  0.23584876420E+01  0.51109989000E-03 0.  1.
      611    1    1    2    0    0 -0.15597128533E+00  0.59430110399E-02  0.31333369151E+01  0.31372221543E+01  0.51109989000E-03 0. -1.
</event>
<event>
 6   3  0.2312675E+03  0.9118800E+02  0.7818608E-02  0.1180000E+00
       11   -1    0    0    0    0  0.00000000000E+00  0.00000000000E+00  0.54999999763E+01  0.55000000000E+01  0.51109989000E-03 0. -1.
     -623   -1    0    0    0    0  0.00000000000E+00  0.00000000000E+00  0.93234578044E-11  0.17124000000E+03  0.17124000000E+03 0.  1.
       11    1    1    2    0    0 -0.29085025332E-01  0.79117379533E-02  0.18640223977E+00  0.18882423179E+00  0.51109989000E-03 0. -1.
     -623    1    1    2    0    0 -0.43470726032E-01 -0.14803690714E-01  0.41543311637E-02  0.17124000621E+03  0.17124000000E+03 0.  1.
     -611    1    1    2    0    0 -0.27229340287E-01 -0.16299980813E-01  0.97831054806E+00  0.97882527349E+00  0.51109989000E-03 0.  1.
      611    1    1    2    0    0  0.99785091651E-01  0.23191933573E-01  0.43311328573E+01  0.43323442868E+01  0.51109989000E-03 0. -1.
</event>
<event>
 6   3  0.2312675E+03  0.9118800E+02  0.7818608E-02  0.1180000E+00
       11   -1    0    0    0    0  0.00000000000E+00  0.00000000000E+00  0.54999999763E+01  0.55000000000E+01  0.51109989000E-03 0.  1.
     -623   -1    0    0    0    0  0.00000000000E+00  0.00000000000E+00  0.93234578044E-11  0.17124000000E+03  0.17124000000E+03 0. -1.
       11    1    1    2    0    0  0.72372218589E-01  0.24855224396E-01  0.71584173831E+00  0.71992025651E+00  0.51109989000E-03 0.  1.
     -623    1    1    2    0    0 -0.10142116165E-02  0.19214546688E-01  0.48448209438E-02  0.17124000115E+03  0.17124000000E+03 0. -1.
     -611    1    1    2    0    0 -0.59841929179E-01 -0.30980290475E-01  0.40208669947E+01  0.40214316462E+01  0.51109989000E-03 0.  1.
      611    1    1    2    0    0 -0.11516077793E-01 -0.13089480609E-01  0.75844642228E+00  0.75864694769E+00  0.51109989000E-03 0. -1.
</event>
<event>
 6   3  0.2312675E+03  0.9118800E+02  0.7818608E-02  0.1180000E+00
       11   -1    0    0    0    0  0.00000000000E+00  0.00000000000E+00  0.54999999763E+01  0.55000000000E+01  0.51109989000E-03 0. -1.
     -623   -1    0    0    0    0  0.00000000000E+00  0.00000000000E+00  0.93234578044E-11  0.17124000000E+03  0.17124000000E+03 0. -1.
       11    1    1    2    0    0 -0.60375236760E-01  0.15613867907E+00  0.65772629347E+00  0.67869624624E+00  0.51109989000E-03 0. -1.
     -623    1    1    2    0    0 -0.99866127976E-02  0.36931768410E-01  0.25893151794E-01  0.17124000623E+03  0.17124000000E+03 0. -1.
     -611    1    1    2    0    0  0.78289232013E-01 -0.18155985007E+00  0.40839010625E+01  0.40886845479E+01  0.51109989000E-03 0. -1.
      611    1    1    2    0    0 -0.79273824556E-02 -0.11510597412E-01  0.73247946852E+00  0.73261297441E+00  0.51109989000E-03 0.  1.
</event>
<event>
 6   3  0.2312675E+03  0.9118800E+02  0.7818608E-02  0.1180000E+00
       11   -1    0    0    0    0  0.00000000000E+00  0.00000000000E+00  0.54999999763E+01  0.55000000000E+01  0.51109989000E-03 0. -1.
     -623   -1    0    0    0    0  0.00000000000E+00  0.00000000000E+00  0.93234578044E-11  0.17124000000E+03  0.17124000000E+03 0. -1.
       11    1    1    2    0    0  0.82822327930E-01  0.82189070540E-01  0.10591191135E+01  0.10655271649E+01  0.51109989000E-03 0. -1.
     -623    1    1    2    0    0 -0.13648964667E-01 -0.30549655753E-01  0.72776344858E-02  0.17124000342E+03  0.17124000000E+03 0. -1.
     -611    1    1    2    0    0 -0.46851901995E-01 -0.27143533049E-01  0.29380900557E+01  0.29385889996E+01  0.51109989000E-03 0.  1.
      611    1    1    2    0    0 -0.22321461267E-01 -0.24495881737E-01  0.14955131725E+01  0.14958804117E+01  0.51109989000E-03 0. -1.
</event>
<event>
 6   3  0.2312675E+03  0.9118800E+02  0.7818608E-02  0.1180000E+00
       11   -1    0    0    0    0  0.00000000000E+00  0.00000000000E+00  0.54999999763E+01  0.55000000000E+01  0.51109989000E-03 0.  1.
     -623   -1    0    0    0    0  0.00000000000E+00  0.00000000000E+00  0.93234578044E-11  0.17124000000E+03  0.17124000000E+03 0.  1.
       11    1    1    2    0    0  0.43890346307E-01 -0.44655110431E-01  0.10812630046E+01  0.10830745070E+01  0.51109989000E-03 0.  1.
     -623    1    1    2    0    0  0.42599144156E-02  0.12504704724E-01  0.21920024570E-02  0.17124000052E+03  0.17124000000E+03 0.  1.
     -611    1    1    2    0    0 -0.15647425479E-01  0.11316628175E-01  0.15107611458E+01  0.15108846445E+01  0.51109989000E-03 0. -1.
      611    1    1    2    0    0 -0.32502835240E-01  0.20833777528E-01  0.29057838230E+01  0.29060403245E+01  0.51109989000E-03 0.  1.
</event>
<event>
 6   3  0.2312675E+03  0.9118800E+02  0.7818608E-02  0.1180000E+00
       11   -1    0    0    0    0  0.00000000000E+00  0.00000000000E+00  0.54999999763E+01  0.55000000000E+01  0.51109989000E-03 0. -1.
     -623   -1    0    0    0    0  0.00000000000E+00  0.00000000000E+00  0.93234578044E-11  0.17124000000E+03  0.17124000000E+03 0. -1.
       11    1    1    2    0    0 -0.10043106312E-03  0.76825516846E-03  0.10351745215E-02  0.13903639056E-02  0.51109989000E-03 0. -1.
     -623    1    1    2    0    0  0.16326254232E-02 -0.67599200766E-03  0.98002578948E-03  0.17124000001E+03  0.17124000000E+03 0. -1.
     -611    1    1    2    0    0 -0.41096162736E-01  0.48910777655E-02  0.33394475227E+01  0.33397040041E+01  0.51109989000E-03 0.  1.
      611    1    1    2    0    0  0.39563968376E-01 -0.49833409263E-02  0.21585372534E+01  0.21589056202E+01  0.51109989000E-03 0. -1.
</event>
<event>
 6   3  0.2312675E+03  0.9118800E+02  0.7818608E-02  0.1180000E+00
       11   -1    0    0    0    0  0.00000000000E+00  0.00000000000E+00  0.54999999763E+01  0.55000000000E+01  0.51109989000E-03 0. -1.
     -623   -1    0    0    0    0  0.00000000000E+00  0.00000000000E+00  0.93234578044E-11  0.17124000000E+03  0.17124000000E+03 0. -1.
       11    1    1    2    0    0  0.36598684817E-02  0.36577025220E-02  0.85930009220E-01  0.86087171708E-01  0.51109989000E-03 0. -1.
     -623    1    1    2    0    0 -0.10209730622E-01 -0.74861882005E-02  0.78095283958E-03  0.17124000047E+03  0.17124000000E+03 0. -1.
     -611    1    1    2    0    0 -0.35655966787E-01  0.12394035599E-01  0.30186497746E+01  0.30188858347E+01  0.51109989000E-03 0. -1.
      611    1    1    2    0    0  0.42205828927E-01 -0.85655499211E-02  0.23946392395E+01  0.23950265237E+01  0.51109989000E-03 0.  1.
</event>
<event>
 6   3  0.2312675E+03  0.9118800E+02  0.7818608E-02  0.1180000E+00
       11   -1    0    0    0    0  0.00000000000E+00  0.00000000000E+00  0.54999999763E+01  0.55000000000E+01  0.51109989000E-03 0.  1.
     -623   -1    0    0    0    0  0.00000000000E+00  0.00000000000E+00  0.93234578044E-11  0.17124000000E+03  0.17124000000E+03 0.  1.
       11    1    1    2    0    0 -0.50147292883E-01  0.97356559760E-02  0.84908188090E+00  0.85061732623E+00  0.51109989000E-03 0.  1.
     -623    1    1    2    0    0 -0.66459225981E-02  0.64134025264E-02  0.19109660298E-02  0.17124000026E+03  0.17124000000E+03 0.  1.
     -611    1    1    2    0    0  0.50558271364E-01 -0.14329975386E-01  0.41168749171E+01  0.41172103214E+01  0.51109989000E-03 0.  1.
      611    1    1    2    0    0  0.62349441057E-02 -0.18190831127E-02  0.53213221126E+00  0.53217209160E+00  0.51109989000E-03 0.  1.
</event>
<event>
 6   3  0.2312675E+03  0.9118800E+02  0.7818608E-02  0.1180000E+00
       11   -1    0    0    0    0  0.00000000000E+00  0.00000000000E+00  0.54999999763E+01  0.55000000000E+01  0.51109989000E-03 0. -1.
     -623   -1    0    0    0    0  0.00000000000E+00  0.00000000000E+00  0.93234578044E-11  0.17124000000E+03  0.17124000000E+03 0.  1.
       11    1    1    2    0    0  0.20390291202E-02 -0.86986170497E-02  0.24030623345E-01  0.25642848122E-01  0.51109989000E-03 0. -1.
     -623    1    1    2    0    0 -0.11764774900E-01  0.48411486269E-02  0.24508510502E-02  0.17124000049E+03  0.17124000000E+03 0.  1.
     -611    1    1    2    0    0  0.40921451135E-01 -0.27784758656E-01  0.34177752941E+01  0.34181332303E+01  0.51109989000E-03 0. -1.
      611    1    1    2    0    0 -0.31195705355E-01  0.31642227079E-01  0.20557432079E+01  0.20562234316E+01  0.51109989000E-03 0.  1.
</event>
<event>
 6   3  0.2312675E+03  0.9118800E+02  0.7818608E-02  0.1180000E+00
       11   -1    0    0    0    0  0.00000000000E+00  0.00000000000E+00  0.54999999763E+01  0.55000000000E+01  0.51109989000E-03 0.  1.
     -623   -1    0    0    0    0  0.00000000000E+00  0.00000000000E+00  0.93234578044E-11  0.17124000000E+03  0.17124000000E+03 0. -1.
       11    1    1    2    0    0  0.56655242308E-02 -0.71993696718E-02  0.89862395951E-01  0.90329621485E-01  0.51109989000E-03 0.  1.
     -623    1    1    2    0    0 -0.50387430316E-03 -0.57918905276E-02  0.11678775671E-02  0.17124000010E+03  0.17124000000E+03 0. -1.
     -611    1    1    2    0    0 -0.43608163361E-01 -0.54918093428E-02  0.24724129391E+01  0.24728036385E+01  0.51109989000E-03 0.  1.
      611    1    1    2    0    0  0.38446513433E-01  0.18483069542E-01  0.29365567635E+01  0.29368666372E+01  0.51109989000E-03 0. -1.
</event>
<event>
 6   3  0.2312675E+03  0.9118800E+02  0.7818608E-02  0.1180000E+00
       11   -1    0    0    0    0  0.00000000000E+00  0.00000000000E+00  0.54999999763E+01  0.55000000000E+01  0.51109989000E-03 0. -1.
     -623   -1    0    0    0    0  0.00000000000E+00  0.00000000000E+00  0.93234578044E-11  0.17124000000E+03  0.17124000000E+03 0. -1.
       11    1    1    2    0    0 -0.53637863020E-01  0.35986259947E-01  0.48590661362E+00  0.49018111922E+00  0.51109989000E-03 0. -1.
     -623    1    1    2    0    0 -0.16431610530E-03 -0.64806196520E-02  0.46802102516E-02  0.17124000019E+03  0.17124000000E+03 0. -1.
     -611    1    1    2    0    0  0.40643743976E-01 -0.15578834959E-01  0.38640343832E+01  0.38642795693E+01  0.51109989000E-03 0. -1.
      611    1    1    2    0    0  0.13158435149E-01 -0.13926805336E-01  0.11453787692E+01  0.11455391248E+01  0.51109989000E-03 0.  1.
</event>
<event>
 6   3  0.2312675E+03  0.9118800E+02  0.7818608E-02  0.1180000E+00
       11   -1    0    0    0    0  0.00000000000E+00  0.00000000000E+00  0.54999999763E+01  0.55000000000E+01  0.51109989000E-03 0. -1.
     -623   -1    0    0    0    0  0.00000000000E+00  0.00000000000E+00  0.93234578044E-11  0.17124000000E+03  0.17124000000E+03 0. -1.
       11    1    1    2    0    0  0.24995030719E-01 -0.67531115899E-01  0.10966192821E+01  0.10989810345E+01  0.51109989000E-03 0. -1.
     -623    1    1    2    0    0  0.31282205517E-01 -0.31365278029E-01  0.38390343842E-02  0.17124000577E+03  0.17124000000E+03 0. -1.
     -611    1    1    2    0    0 -0.40684184514E-01  0.70831873193E-01  0.31419161901E+01  0.31429778816E+01  0.51109989000E-03 0. -1.
      611    1    1    2    0    0 -0.15593051681E-01  0.28064520663E-01  0.12576254664E+01  0.12580353078E+01  0.51109989000E-03 0.  1.
</event>
<event>
 6   3  0.2312675E+03  0.9118800E+02  0.7818608E-02  0.1180000E+00
       11   -1    0    0    0    0  0.00000000000E+00  0.00000000000E+00  0.54999999763E+01  0.55000000000E+01  0.51109989000E-03 0. -1.
     -623   -1    0    0    0    0  0.00000000000E+00  0.00000000000E+00  0.93234578044E-11  0.17124000000E+03  0.17124000000E+03 0.  1.
       11    1    1    2    0    0 -0.66079356945E-02  0.13425212608E-02  0.58860590786E+00  0.58864475124E+00  0.51109989000E-03 0. -1.
     -623    1    1    2    0    0  0.18505859624E-02 -0.65135822408E-02  0.12621050343E-02  0.17124000014E+03  0.17124000000E+03 0.  1.
     -611    1    1    2    0    0  0.56866199835E-01  0.80707088000E-04  0.27589021370E+01  0.27594881834E+01  0.51109989000E-03 0. -1.
      611    1    1    2    0    0 -0.52108850103E-01  0.50903538921E-02  0.21512298265E+01  0.21518669270E+01  0.51109989000E-03 0.  1.
</event>
<event>
 6   3  0.2312675E+03  0.9118800E+02  0.7818608E-02  0.1180000E+00
       11   -1    0    0    0    0  0.00000000000E+00  0.00000000000E+00  0.54999999763E+01  0.55000000000E+01  0.51109989000E-03 0.  1.
     -623   -1    0    0    0    0  0.00000000000E+00  0.00000000000E+00  0.93234578044E-11  0.17124000000E+03  0.17124000000E+03 0.  1.
       11    1    1    2    0    0 -0.76099947519E-01  0.84899753483E-01  0.78757966091E+00  0.79578964159E+00  0.51109989000E-03 0.  1.
     -623    1    1    2    0    0 -0.11516095819E+00 -0.56264896340E-01  0.12301741312E-01  0.17124004841E+03  0.17124000000E+03 0.  1.
     -611    1    1    2    0    0  0.75979854712E-01 -0.19416487331E-01  0.16787220314E+01  0.16805528430E+01  0.51109989000E-03 0. -1.
      611    1    1    2    0    0  0.11528105099E+00 -0.92183698117E-02  0.30213965426E+01  0.30236091064E+01  0.51109989000E-03 0.  1.
</event>
<event>
 6   3  0.2312675E+03  0.9118800E+02  0.7818608E-02  0.1180000E+00
       11   -1    0    0    0    0  0.00000000000E+00  0.00000000000E+00  0.54999999763E+01  0.55000000000E+01  0.51109989000E-03 0.  1.
     -623   -1    0    0    0    0  0.00000000000E+00  0.00000000000E+00  0.93234578044E-11  0.17124000000E+03  0.17124000000E+03 0.  1.
       11    1    1    2    0    0 -0.73378213636E-01 -0.37961030740E-01  0.65370458097E+00  0.65890465356E+00  0.51109989000E-03 0.  1.
     -623    1    1    2    0    0 -0.26332660265E-02  0.12241249373E-01  0.95059558806E-02  0.17124000072E+03  0.17124000000E+03 0.  1.
     -611    1    1    2    0    0 -0.59783345866E-01  0.28392521533E-01  0.12753214836E+01  0.12770377173E+01  0.51109989000E-03 0. -1.
      611    1    1    2    0    0  0.13579482553E+00 -0.26727401649E-02  0.35614679559E+01  0.35640569075E+01  0.51109989000E-03 0.  1.
</event>
<event>
 6   3  0.2312675E+03  0.9118800E+02  0.7818608E-02  0.1180000E+00
       11   -1    0    0    0    0  0.00000000000E+00  0.00000000000E+00  0.54999999763E+01  0.55000000000E+01  0.51109989000E-03 0. -1.
     -623   -1    0    0    0    0  0.00000000000E+00  0.00000000000E+00  0.93234578044E-11  0.17124000000E+03  0.17124000000E+03 0. -1.
       11    1    1    2    0    0  0.41436697868E-01 -0.54833194869E-03  0.31673389009E-01  0.52160956591E-01  0.51109989000E-03 0. -1.
     -623    1    1    2    0    0  0.18379486420E-01 -0.10317067213E-01  0.20852661687E-01  0.17124000257E+03  0.17124000000E+03 0. -1.
     -611    1    1    2    0    0 -0.11902003563E-01 -0.27569577118E-02  0.76709882579E+00  0.76719627753E+00  0.51109989000E-03 0.  1.
      611    1    1    2    0    0 -0.47914180725E-01  0.13622356873E-01  0.46803750998E+01  0.46806401991E+01  0.51109989000E-03 0. -1.
</event>
<event>
 6   3  0.2312675E+03  0.9118800E+02  0.7818608E-02  0.1180000E+00
       11   -1    0    0    0    0  0.00000000000E+00  0.00000000000E+00  0.54999999763E+01  0.55000000000E+01  0.51109989000E-03 0.  1.
     -623   -1    0    0    0    0  0.00000000000E+00  0.00000000000E+00  0.93234578044E-11  0.17124000000E+03  0.17124000000E+03 0.  1.
       11    1    1    2    0    0  0.36849384457E-01  0.31523239863E-01  0.97858912065E+00  0.97979003876E+00  0.51109989000E-03 0.  1.
     -623    1    1    2    0    0  0.36574481918E-01 -0.31653610477E-04  0.19729744425E-02  0.17124000392E+03  0.17124000000E+03 0.  1.
     -611    1    1    2    0    0 -0.39050502757E-01 -0.38972486147E-02  0.21237594982E+01  0.21241221240E+01  0.51109989000E-03 0. -1.
      611    1    1    2    0    0 -0.34373363619E-01 -0.27594337638E-01  0.23956783831E+01  0.23960839201E+01  0.51109989000E-03 0.  1.
</event>
<event>
 6   3  0.2312675E+03  0.9118800E+02  0.7818608E-02  0.1180000E+00
       11   -1    0    0    0    0  0.00000000000E+00  0.00000000000E+00  0.54999999763E+01  0.55000000000E+01  0.51109989000E-03 0.  1.
     -623   -1    0    0    0    0  0.00000000000E+00  0.00000000000E+00  0.93234578044E-11  0.17124000000E+03  0.17124000000E+03 0.  1.
       11    1    1    2    0    0  0.21374750948E-02 -0.78822569851E-02  0.10906203815E+00  0.10936858856E+00  0.51109989000E-03 0.  1.
     -623    1    1    2    0    0 -0.15540709297E+00 -0.57756522380E-01  0.29661452064E-02  0.17124008028E+03  0.17124000000E+03 0.  1.
     -611    1    1    2    0    0  0.10660596482E+00  0.45461437304E-01  0.37449222187E+01  0.37467151292E+01  0.51109989000E-03 0.  1.
      611    1    1    2    0    0  0.46663653101E-01  0.20177342082E-01  0.16430495759E+01  0.16438359990E+01  0.51109989000E-03 0.  1.
</event>
<event>
 6   3  0.2312675E+03  0.9118800E+02  0.7818608E-02  0.1180000E+00
       11   -1    0    0    0    0  0.00000000000E+00  0.00000000000E+00  0.54999999763E+01  0.55000000000E+01  0.51109989000E-03 0. -1.
     -623   -1    0    0    0    0  0.00000000000E+00  0.00000000000E+00  0.93234578044E-11  0.17124000000E+03  0.17124000000E+03 0.  1.
       11    1    1    2    0    0  0.73536774122E-01  0.40659561850E-01  0.10619064201E+01  0.10652259682E+01  0.51109989000E-03 0. -1.
     -623    1    1    2    0    0  0.83952954869E-02 -0.82549520106E-02  0.42088081590E-02  0.17124000046E+03  0.17124000000E+03 0.  1.
     -611    1    1    2    0    0 -0.68866372183E-01 -0.24564032323E-01  0.38186048500E+01  0.38193048099E+01  0.51109989000E-03 0. -1.
      611    1    1    2    0    0 -0.13065697428E-01 -0.78405775170E-02  0.61527989814E+00  0.61546876556E+00  0.51109989000E-03 0.  1.
</event>
<event>
 6   3  0.2312675E+03  0.9118800E+02  0.7818608E-02  0.1180000E+00
       11   -1    0    0    0    0  0.00000000000E+00  0.00000000000E+00  0.54999999763E+01  0.55000000000E+01  0.51109989000E-03 0. -1.
     -623   -1    0    0    0    0  0.00000000000E+00  0.00000000000E+00  0.93234578044E-11  0.17124000000E+03  0.17124000000E+03 0.  1.
       11    1    1    2    0    0  0.10785452536E-01 -0.86770835564E-02  0.44717458148E+00  0.44738907599E+00  0.51109989000E-03 0. -1.
     -623    1    1    2    0    0  0.11354250905E-02  0.28172743177E-02  0.13567591700E-02  0.17124000003E+03  0.17124000000E+03 0.  1.
     -611    1    1    2    0    0  0.44912452760E-01  0.11249937922E-01  0.29642640284E+01  0.29646256392E+01  0.51109989000E-03 0. -1.
      611    1    1    2    0    0 -0.56833330386E-01 -0.53901286836E-02  0.20872046073E+01  0.20879852525E+01  0.51109989000E-03 0.  1.
</event>
<event>
 6   3  0.2312675E+03  0.9118800E+02  0.7818608E-02  0.1180000E+00
       11   -1    0    0    0    0  0.00000000000E+00  0.00000000000E+00  0.54999999763E+01  0.55000000000E+01  0.51109989000E-03 0.  1.
     -623   -1    0    0    0    0  0.00000000000E+00  0.00000000000E+00  0.93234578044E-11  0.17124000000E+03  0.17124000000E+03 0. -1.
       11    1    1    2    0    0 -0.80473990510E-02  0.14614159288E-01  0.49716611791E+00  0.49744622252E+00  0.51109989000E-03 0.  1.
     -623    1    1    2    0    0  0.98473708253E-01 -0.41487160267E-01  0.12294879079E-02  0.17124003334E+03  0.17124000000E+03 0. -1.
     -611    1    1    2    0    0 -0.75691159955E-01  0.16944000986E-01  0.42323322365E+01  0.42330429566E+01  0.51109989000E-03 0.  1.
      611    1    1    2    0    0 -0.14735149251E-01  0.99289999944E-02  0.76927213422E+00  0.76947747685E+00  0.51109989000E-03 0. -1.
</event>
<event>
 6   3  0.2312675E+03  0.9118800E+02  0.7818608E-02  0.1180000E+00
       11   -1    0    0    0    0  0.00000000000E+00  0.00000000000E+00  0.54999999763E+01  0.55000000000E+01  0.51109989000E-03 0.  1.
     -623   -1    0    0    0    0  0.00000000000E+00  0.00000000000E+00  0.93234578044E-11  0.17124000000E+03  0.17124000000E+03 0.  1.
       11    1    1    2    0    0  0.85196126711E-01 -0.73317156894E-01  0.62557579591E+00  0.63559352039E+00  0.51109989000E-03 0.  1.
     -623    1    1    2    0    0  0.60796978835E-01  0.37062935943E-01  0.12363124842E-01  0.17124001525E+03  0.17124000000E+03 0.  1.
     -611    1    1    2    0    0 -0.13155355351E+00  0.31642348684E-01  0.43242958439E+01  0.43264121836E+01  0.51109989000E-03 0.  1.
      611    1    1    2    0    0 -0.14439552021E-01  0.46118722649E-02  0.53776521117E+00  0.53797904569E+00  0.51109989000E-03 0. -1.
</event>
<event>
 6   3  0.2312675E+03  0.9118800E+02  0.7818608E-02  0.1180000E+00
       11   -1    0    0    0    0  0.00000000000E+00  0.00000000000E+00  0.54999999763E+01  0.55000000000E+01  0.51109989000E-03 0.  1.
     -623   -1    0    0    0    0  0.00000000000E+00  0.00000000000E+00  0.93234578044E-11  0.17124000000E+03  0.17124000000E+03 0. -1.
       11    1    1    2    0    0 -0.66056972806E-02 -0.25051903549E-02  0.14733759106E+00  0.14750775633E+00  0.51109989000E-03 0.  1.
     -623    1    1    2    0    0 -0.13243012529E-01 -0.10961700156E-01  0.15174218640E-02  0.17124000087E+03  0.17124000000E+03 0. -1.
     -611    1    1    2    0    0 -0.28671424541E-01  0.45332273721E-01  0.16037539681E+01  0.16046507773E+01  0.51109989000E-03 0.  1.
      611    1    1    2    0    0  0.48520134350E-01 -0.31865383210E-01  0.37473909952E+01  0.37478405967E+01  0.51109989000E-03 0. -1.
</event>
<event>
 6   3  0.2312675E+03  0.9118800E+02  0.7818608E-02  0.1180000E+00
       11   -1    0    0    0    0  0.00000000000E+00  0.00000000000E+00  0.54999999763E+01  0.55000000000E+01  0.51109989000E-03 0.  1.
     -623   -1    0    0    0    0  0.00000000000E+00  0.00000000000E+00  0.93234578044E-11  0.17124000000E+03  0.17124000000E+03 0. -1.
       11    1    1    2    0    0  0.41328617167E-01  0.30315938090E-01  0.59751766534E+00  0.59971220790E+00  0.51109989000E-03 0.  1.
     -623    1    1    2    0    0  0.86583959006E-02 -0.44617394995E-02  0.25181673001E-02  0.17124000030E+03  0.17124000000E+03 0. -1.
     -611    1    1    2    0    0 -0.24456043610E-01 -0.12282822221E-01  0.24076629509E+01  0.24078185381E+01  0.51109989000E-03 0.  1.
      611    1    1    2    0    0 -0.25530969380E-01 -0.13571376329E-01  0.24923011851E+01  0.24924689509E+01  0.51109989000E-03 0.  1.
</event>
<event>
 6   3  0.2312675E+03  0.9118800E+02  0.7818608E-02  0.1180000E+00
       11   -1    0    0    0    0  0.00000000000E+00  0.00000000000E+00  0.54999999763E+01  0.55000000000E+01  0.51109989000E-03 0. -1.
     -623   -1    0    0    0    0  0.00000000000E+00  0.00000000000E+00  0.93234578044E-11  0.17124000000E+03  0.17124000000E+03 0. -1.
       11    1    1    2    0    0 -0.11427940580E-01 -0.12249101082E-01  0.24083093245E-01  0.29341010660E-01  0.51109989000E-03 0. -1.
     -623    1    1    2    0    0 -0.33280670200E-02  0.10432525477E-01  0.79565282967E-02  0.17124000053E+03  0.17124000000E+03 0. -1.
     -611    1    1    2    0    0  0.43309388508E-01  0.66146939475E-01  0.42014272616E+01  0.42021711551E+01  0.51109989000E-03 0. -1.
      611    1    1    2    0    0 -0.28553380908E-01 -0.64330363870E-01  0.12665330931E+01  0.12684872993E+01  0.51109989000E-03 0.  1.
</event>
<event>
 6   3  0.2312675E+03  0.9118800E+02  0.7818608E-02  0.1180000E+00
       11   -1    0    0    0    0  0.00000000000E+00  0.00000000000E+00  0.54999999763E+01  0.55000000000E+01  0.51109989000E-03 0.  1.
     -623   -1    0    0    0    0  0.00000000000E+00  0.00000000000E+00  0.93234578044E-11  0.17124000000E+03  0.17124000000E+03 0. -1.
       11    1    1    2    0    0  0.65975582501E-01  0.35700833527E-01  0.98686736036E+00  0.98971449175E+00  0.51109989000E-03 0.  1.
     -623    1    1    2    0    0 -0.89642096305E-02 -0.71479496063E-02  0.33057143701E-02  0.17124000042E+03  0.17124000000E+03 0. -1.
     -611    1    1    2    0    0 -0.30477162699E-01 -0.10710181004E-01  0.22705656554E+01  0.22707955043E+01  0.51109989000E-03 0.  1.
      611    1    1    2    0    0 -0.26534210173E-01 -0.17842702917E-01  0.22392612462E+01  0.22394895883E+01  0.51109989000E-03 0. -1.
</event>
<event>
 6   3  0.2312675E+03  0.9118800E+02  0.7818608E-02  0.1180000E+00
       11   -1    0    0    0    0  0.00000000000E+00  0.00000000000E+00  0.54999999763E+01  0.55000000000E+01  0.51109989000E-03 0.  1.
     -623   -1    0    0    0    0  0.00000000000E+00  0.00000000000E+00  0.93234578044E-11  0.17124000000E+03  0.17124000000E+03 0. -1.
       11    1    1    2    0    0  0.26175234087E-01  0.48553981058E-02  0.72811982850E+00  0.72860652183E+00  0.51109989000E-03 0.  1.
     -623    1    1    2    0    0 -0.15981331500E-01 -0.74348915468E-02  0.90479285197E-03  0.17124000091E+03  0.17124000000E+03 0. -1.
     -611    1    1    2    0    0 -0.35063382087E-01 -0.79063039887E-02  0.25577386325E+01  0.25579912283E+01  0.51109989000E-03 0. -1.
      611    1    1    2    0    0  0.24869479499E-01  0.10485797429E-01  0.22132367223E+01  0.22134013402E+01  0.51109989000E-03 0.  1.
</event>
<event>
 6   3  0.2312675E+03  0.9118800E+02  0.7818608E-02  0.1180000E+00
       11   -1    0    0    0    0  0.00000000000E+00  0.00000000000E+00  0.54999999763E+01  0.55000000000E+01  0.51109989000E-03 0.  1.
     -623   -1    0    0    0    0  0.00000000000E+00  0.00000000000E+00  0.93234578044E-11  0.17124000000E+03  0.17124000000E+03 0. -1.
       11    1    1    2    0    0 -0.50773442590E-01 -0.42428863883E-01  0.54982372096E+00  0.55379105836E+00  0.51109989000E-03 0.  1.
     -623    1    1    2    0    0 -0.45882133862E-02  0.41170104333E-02  0.44258909145E-02  0.17124000017E+03  0.17124000000E+03 0. -1.
     -611    1    1    2    0    0  0.19770581929E-01  0.13192353209E-01  0.17458832079E+01  0.17460450598E+01  0.51109989000E-03 0.  1.
      611    1    1    2    0    0  0.35591073999E-01  0.25119500208E-01  0.31998671523E+01  0.32001637094E+01  0.51109989000E-03 0.  1.
</event>
<event>
 6   3  0.2312675E+03  0.9118800E+02  0.7818608E-02  0.1180000E+00
       11   -1    0    0    0    0  0.00000000000E+00  0.00000000000E+00  0.54999999763E+01  0.55000000000E+01  0.51109989000E-03 0. -1.
     -623   -1    0    0    0    0  0.00000000000E+00  0.00000000000E+00  0.93234578044E-11  0.17124000000E+03  0.17124000000E+03 0. -1.
       11    1    1    2    0    0 -0.39873732525E-02  0.37687570198E-02  0.12499809923E+00  0.12511949772E+00  0.51109989000E-03 0. -1.
     -623    1    1    2    0    0 -0.11715291993E-02 -0.74077791801E-03  0.71233947613E-03  0.17124000001E+03  0.17124000000E+03 0. -1.
     -611    1    1    2    0    0 -0.31974889092E-01 -0.19318721250E-01  0.20165378797E+01  0.20168839550E+01  0.51109989000E-03 0. -1.
      611    1    1    2    0    0  0.37133791544E-01  0.16290742149E-01  0.33577516579E+01  0.33579965402E+01  0.51109989000E-03 0.  1.
</event>
<event>
 6   3  0.2312675E+03  0.9118800E+02  0.7818608E-02  0.1180000E+00
       11   -1    0    0    0    0  0.00000000000E+00  0.00000000000E+00  0.54999999763E+01  0.55000000000E+01  0.51109989000E-03 0.  1.
     -623   -1    0    0    0    0  0.00000000000E+00  0.00000000000E+00  0.93234578044E-11  0.17124000000E+03  0.17124000000E+03 0.  1.
       11    1    1    2    0    0  0.13541940889E-02 -0.46174628696E-02  0.13037760513E-01  0.13906805071E-01  0.51109989000E-03 0.  1.
     -623    1    1    2    0    0 -0.16655588837E-02  0.22846867014E-02  0.15614366332E-02  0.17124000003E+03  0.17124000000E+03 0.  1.
     -611    1    1    2    0    0  0.43577529415E-01  0.10792390199E-03  0.29586673899E+01  0.29589883403E+01  0.51109989000E-03 0. -1.
      611    1    1    2    0    0 -0.43266164620E-01  0.22248522662E-02  0.25267333892E+01  0.25271048241E+01  0.51109989000E-03 0.  1.
</event>
<event>
 6   3  0.2312675E+03  0.9118800E+02  0.7818608E-02  0.1180000E+00
       11   -1    0    0    0    0  0.00000000000E+00  0.00000000000E+00  0.54999999763E+01  0.55000000000E+01  0.51109989000E-03 0. -1.
     -623   -1    0    0    0    0  0.00000000000E+00  0.00000000000E+00  0.93234578044E-11  0.17124000000E+03  0.17124000000E+03 0.  1.
       11    1    1    2    0    0  0.68799099995E-01  0.39872258597E-01  0.74063045996E+00  0.74488714085E+00  0.51109989000E-03 0. -1.
     -623    1    1    2    0    0  0.16011590055E-02  0.49623431413E-02  0.49914008726E-02  0.17124000015E+03  0.17124000000E+03 0.  1.
     -611    1    1    2    0    0 -0.25802109492E-01 -0.18609910727E-01  0.17566164796E+01  0.17569046062E+01  0.51109989000E-03 0.  1.
      611    1    1    2    0    0 -0.44598149499E-01 -0.26224691006E-01  0.29977616352E+01  0.29982081002E+01  0.51109989000E-03 0. -1.
</event>
<event>
 6   3  0.2312675E+03  0.9118800E+02  0.7818608E-02  0.1180000E+00
       11   -1    0    0    0    0  0.00000000000E+00  0.00000000000E+00  0.54999999763E+01  0.55000000000E+01  0.51109989000E-03 0.  1.
     -623   -1    0    0    0    0  0.00000000000E+00  0.00000000000E+00  0.93234578044E-11  0.17124000000E+03  0.17124000000E+03 0.  1.
       11    1    1    2    0    0 -0.30431338435E-01  0.20731686333E-01  0.51472529729E+00  0.51604094999E+00  0.51109989000E-03 0.  1.
     -623    1    1    2    0    0 -0.13207858173E-02 -0.22350477334E-01  0.20891905620E-02  0.17124000148E+03  0.17124000000E+03 0.  1.
     -611    1    1    2    0    0  0.55494567173E-01 -0.14238972620E-01  0.37744283542E+01  0.37748631840E+01  0.51109989000E-03 0.  1.
      611    1    1    2    0    0 -0.23742442921E-01  0.15857763620E-01  0.12087571342E+01  0.12090943896E+01  0.51109989000E-03 0. -1.
</event>
<event>
 6   3  0.2312675E+03  0.9118800E+02  0.7818608E-02  0.1180000E+00
       11   -1    0    0    0    0  0.00000000000E+00  0.00000000000E+00  0.54999999763E+01  0.55000000000E+01  0.51109989000E-03 0.  1.
     -623   -1    0    0    0    0  0.00000000000E+00  0.00000000000E+00  0.93234578044E-11  0.17124000000E+03  0.17124000000E+03 0.  1.
       11    1    1    2    0    0 -0.15296099915E+00  0.12391341333E+00  0.93677231557E+00  0.95723259122E+00  0.51109989000E-03 0.  1.
     -623    1    1    2    0    0  0.10439140741E-01 -0.33350347703E-01  0.23611109912E-01  0.17124000519E+03  0.17124000000E+03 0.  1.
     -611    1    1    2    0    0  0.73670687748E-01 -0.46927727450E-01  0.22485748647E+01  0.22502708204E+01  0.51109989000E-03 0.  1.
      611    1    1    2    0    0  0.68851170661E-01 -0.43635338174E-01  0.22910416861E+01  0.22924913948E+01  0.51109989000E-03 0. -1.
</event>
<event>
 6   3  0.2312675E+03  0.9118800E+02  0.7818608E-02  0.1180000E+00
       11   -1    0    0    0    0  0.00000000000E+00  0.00000000000E+00  0.54999999763E+01  0.55000000000E+01  0.51109989000E-03 0.  1.
     -623   -1    0    0    0    0  0.00000000000E+00  0.00000000000E+00  0.93234578044E-11  0.17124000000E+03  0.17124000000E+03 0. -1.
       11    1    1    2    0    0  0.42456441710E-03  0.14732429563E-02  0.27984275674E-02  0.32315816097E-02  0.51109989000E-03 0.  1.
     -623    1    1    2    0    0 -0.19144980775E-02 -0.16282289319E-02  0.10433789723E-02  0.17124000002E+03  0.17124000000E+03 0. -1.
     -611    1    1    2    0    0  0.37830662323E-01  0.10577789883E-01  0.37224446127E+01  0.37226519048E+01  0.51109989000E-03 0.  1.
      611    1    1    2    0    0 -0.36340728662E-01 -0.10422803907E-01  0.17737135571E+01  0.17741164920E+01  0.51109989000E-03 0. -1.
</event>
<event>
 6   3  0.2312675E+03  0.9118800E+02  0.7818608E-02  0.1180000E+00
       11   -1    0    0    0    0  0.00000000000E+00  0.00000000000E+00  0.54999999763E+01  0.55000000000E+01  0.51109989000E-03 0.  1.
     -623   -1    0    0    0    0  0.00000000000E+00  0.00000000000E+00  0.93234578044E-11  0.17124000000E+03  0.17124000000E+03 0. -1.
       11    1    1    2    0    0 -0.46368452462E-01 -0.39724392395E-02  0.12526066504E+00  0.13362750124E+00  0.51109989000E-03 0.  1.
     -623    1    1    2    0    0 -0.14981461115E-01  0.43475310296E-02  0.87187422055E-02  0.17124000093E+03  0.17124000000E+03 0. -1.
     -611    1    1    2    0    0  0.36185837404E-01 -0.85618070006E-03  0.31900966656E+01  0.31903020461E+01  0.51109989000E-03 0.  1.
      611    1    1    2    0    0  0.25164076192E-01  0.48108890987E-03  0.21759239050E+01  0.21760695218E+01  0.51109989000E-03 0. -1.
</event>
<event>
 6   3  0.2312675E+03  0.9118800E+02  0.7818608E-02  0.1180000E+00
       11   -1    0    0    0    0  0.00000000000E+00  0.00000000000E+00  0.54999999763E+01  0.55000000000E+01  0.51109989000E-03 0. -1.
     -623   -1    0    0    0    0  0.00000000000E+00  0.00000000000E+00  0.93234578044E-11  0.17124000000E+03  0.17124000000E+03 0. -1.
       11    1    1    2    0    0 -0.47631683179E-02 -0.13764849752E-01  0.49305921487E+00  0.49327457816E+00  0.51109989000E-03 0. -1.
     -623    1    1    2    0    0  0.63707357478E-01 -0.15034836317E-02  0.61652438882E-03  0.17124001186E+03  0.17124000000E+03 0. -1.
     -611    1    1    2    0    0 -0.29319013180E-01  0.52191774328E-03  0.23026858674E+01  0.23028726282E+01  0.51109989000E-03 0.  1.
      611    1    1    2    0    0 -0.29625175980E-01  0.14746415641E-01  0.27036383696E+01  0.27038409352E+01  0.51109989000E-03 0. -1.
</event>
<event>
 6   3  0.2312675E+03  0.9118800E+02  0.7818608E-02  0.1180000E+00
       11   -1    0    0    0    0  0.00000000000E+00  0.00000000000E+00  0.54999999763E+01  0.55000000000E+01  0.51109989000E-03 0. -1.
     -623   -1    0    0    0    0  0.00000000000E+00  0.00000000000E+00  0.93234578044E-11  0.17124000000E+03  0.17124000000E+03 0.  1.
       11    1    1    2    0    0  0.33196275490E-01 -0.67569504012E-03  0.36650091273E+00  0.36800221403E+00  0.51109989000E-03 0. -1.
     -623    1    1    2    0    0  0.25352116102E-01 -0.24530087877E-01  0.19026610622E-02  0.17124000364E+03  0.17124000000E+03 0.  1.
     -611    1    1    2    0    0 -0.52178830215E-01  0.23761234924E-01  0.46234943305E+01  0.46238498367E+01  0.51109989000E-03 0. -1.
      611    1    1    2    0    0 -0.63695613797E-02  0.14445479942E-02  0.50810207226E+00  0.50814430538E+00  0.51109989000E-03 0.  1.
</event>
<event>
 6   3  0.2312675E+03  0.9118800E+02  0.7818608E-02  0.1180000E+00
       11   -1    0    0    0    0  0.00000000000E+00  0.00000000000E+00  0.54999999763E+01  0.55000000000E+01  0.51109989000E-03 0.  1.
     -623   -1    0    0    0    0  0.00000000000E+00  0.00000000000E+00  0.93234578044E-11  0.17124000000E+03  0.17124000000E+03 0.  1.
       11    1    1    2    0    0  0.96659939731E-01 -0.58977095670E-01  0.49108668143E+00  0.50397205445E+00  0.51109989000E-03 0.  1.
     -623    1    1    2    0    0 -0.24567481024E-01  0.91687204878E-02  0.13656962774E-01  0.17124000255E+03  0.17124000000E+03 0.  1.
     -611    1    1    2    0    0 -0.16133852978E-01  0.12018713501E-01  0.11747324599E+01  0.11749048320E+01  0.51109989000E-03 0. -1.
      611    1    1    2    0    0 -0.55958605706E-01  0.37789661666E-01  0.38205238706E+01  0.38211205596E+01  0.51109989000E-03 0.  1.
</event>
<event>
 6   3  0.2312675E+03  0.9118800E+02  0.7818608E-02  0.1180000E+00
       11   -1    0    0    0    0  0.00000000000E+00  0.00000000000E+00  0.54999999763E+01  0.55000000000E+01  0.51109989000E-03 0.  1.
     -623   -1    0    0    0    0  0.00000000000E+00  0.00000000000E+00  0.93234578044E-11  0.17124000000E+03  0.17124000000E+03 0.  1.
       11    1    1    2    0    0  0.67332944046E-02 -0.32750177362E-02  0.77302657428E-01  0.77666112709E-01  0.51109989000E-03 0.  1.
     -623    1    1    2    0    0 -0.76314531000E-02  0.52810999610E-02  0.20159962768E-02  0.17124000026E+03  0.17124000000E+03 0.  1.
     -611    1    1    2    0    0  0.56343510409E-01 -0.14305463394E-01  0.41232356128E+01  0.41236454039E+01  0.51109989000E-03 0.  1.
      611    1    1    2    0    0 -0.55445351714E-01  0.12299381170E-01  0.12974457097E+01  0.12986882200E+01  0.51109989000E-03 0. -1.
</event>
<event>
 6   3  0.2312675E+03  0.9118800E+02  0.7818608E-02  0.1180000E+00
       11   -1    0    0    0    0  0.00000000000E+00  0.00000000000E+00  0.54999999763E+01  0.55000000000E+01  0.51109989000E-03 0. -1.
     -623   -1    0    0    0    0  0.00000000000E+00  0.00000000000E+00  0.93234578044E-11  0.17124000000E+03  0.17124000000E+03 0. -1.
       11    1    1    2    0    0  0.37178030634E-01  0.23311071920E-01  0.29423133629E+00  0.29748605432E+00  0.51109989000E-03 0. -1.
     -623    1    1    2    0    0  0.39929357829E-01 -0.29553942855E-01  0.38378119269E-02  0.17124000725E+03  0.17124000000E+03 0. -1.
     -611    1    1    2    0    0 -0.20661265349E-01  0.76568435570E-03  0.14275335663E+01  0.14276833747E+01  0.51109989000E-03 0. -1.
      611    1    1    2    0    0 -0.56446123098E-01  0.54771865779E-02  0.37743972606E+01  0.37748233212E+01  0.51109989000E-03 0. -1.
</event>
<event>
 6   3  0.2312675E+03  0.9118800E+02  0.7818608E-02  0.1180000E+00
       11   -1    0    0    0    0  0.00000000000E+00  0.00000000000E+00  0.54999999763E+01  0.55000000000E+01  0.51109989000E-03 0. -1.
     -623   -1    0    0    0    0  0.00000000000E+00  0.00000000000E+00  0.93234578044E-11  0.17124000000E+03  0.17124000000E+03 0. -1.
       11    1    1    2    0    0  0.34803346574E-01 -0.11916168432E-01  0.17603903461E+00  0.17984235022E+00  0.51109989000E-03 0. -1.
     -623    1    1    2    0    0  0.21424796180E-01  0.11316254171E-01  0.62842967601E-02  0.17124000183E+03  0.17124000000E+03 0. -1.
     -611    1    1    2    0    0  0.38258936723E-01  0.34689238417E-01  0.10212539857E+01  0.10225590712E+01  0.51109989000E-03 0.  1.
      611    1    1    2    0    0 -0.94487079477E-01 -0.34089324156E-01  0.42964226592E+01  0.42975967491E+01  0.51109989000E-03 0. -1.
</event>
<event>
 6   3  0.2312675E+03  0.9118800E+02  0.7818608E-02  0.1180000E+00
       11   -1    0    0    0    0  0.00000000000E+00  0.00000000000E+00  0.54999999763E+01  0.55000000000E+01  0.51109989000E-03 0. -1.
     -623   -1    0    0    0    0  0.00000000000E+00  0.00000000000E+00  0.93234578044E-11  0.17124000000E+03  0.17124000000E+03 0.  1.
       11    1    1    2    0    0  0.11665292005E+00  0.39037679973E-01  0.65312037026E+00  0.66460388465E+00  0.51109989000E-03 0. -1.
     -623    1    1    2    0    0 -0.21264497089E-01  0.10382253743E-01  0.12880203751E-01  0.17124000212E+03  0.17124000000E+03 0.  1.
     -611    1    1    2    0    0 -0.66311011496E-01 -0.55359553356E-01  0.36636747693E+01  0.36646930167E+01  0.51109989000E-03 0. -1.
      611    1    1    2    0    0 -0.29077411466E-01  0.59396196393E-02  0.11703246330E+01  0.11707009792E+01  0.51109989000E-03 0.  1.
</event>
<event>
 6   3  0.2312675E+03  0.9118800E+02  0.7818608E-02  0.1180000E+00
       11   -1    0    0    0    0  0.00000000000E+00  0.00000000000E+00  0.54999999763E+01  0.55000000000E+01  0.51109989000E-03 0.  1.
     -623   -1    0    0    0    0  0.00000000000E+00  0.00000000000E+00  0.93234578044E-11  0.17124000000E+03  0.17124000000E+03 0.  1.
       11    1    1    2    0    0  0.71763993531E-02  0.25783298596E-01  0.76808442088E+00  0.76855072573E+00  0.51109989000E-03 0.  1.
     -623    1    1    2    0    0 -0.79460340827E-03  0.83256509566E-03  0.10361170217E-02  0.17124000001E+03  0.17124000000E+03 0.  1.
     -611    1    1    2    0    0  0.30728628155E-01 -0.11989969819E-01  0.18573123564E+01  0.18576053021E+01  0.51109989000E-03 0. -1.
      611    1    1    2    0    0 -0.37110424100E-01 -0.14625893873E-01  0.28735670820E+01  0.28738439652E+01  0.51109989000E-03 0.  1.
</event>
<event>
 6   3  0.2312675E+03  0.9118800E+02  0.7818608E-02  0.1180000E+00
       11   -1    0    0    0    0  0.00000000000E+00  0.00000000000E+00  0.54999999763E+01  0.55000000000E+01  0.51109989000E-03 0.  1.
     -623   -1    0    0    0    0  0.00000000000E+00  0.00000000000E+00  0.93234578044E-11  0.17124000000E+03  0.17124000000E+03 0.  1.
       11    1    1    2    0    0 -0.89443266026E-01  0.13317867150E+00  0.71294617368E+00  0.73077299086E+00  0.51109989000E-03 0.  1.
     -623    1    1    2    0    0  0.17885199912E-01 -0.12080599549E-01  0.19913580846E-01  0.17124000252E+03  0.17124000000E+03 0.  1.
     -611    1    1    2    0    0  0.26752860155E-01 -0.40170837326E-01  0.15124181914E+01  0.15131881769E+01  0.51109989000E-03 0. -1.
      611    1    1    2    0    0  0.44805205958E-01 -0.80927234625E-01  0.32547220303E+01  0.32560363142E+01  0.51109989000E-03 0.  1.
</event>
<event>
 6   3  0.2312675E+03  0.9118800E+02  0.7818608E-02  0.1180000E+00
       11   -1    0    0    0    0  0.00000000000E+00  0.00000000000E+00  0.54999999763E+01  0.55000000000E+01  0.51109989000E-03 0. -1.
     -623   -1    0    0    0    0  0.00000000000E+00  0.00000000000E+00  0.93234578044E-11  0.17124000000E+03  0.17124000000E+03 0. -1.
       11    1    1    2    0    0 -0.17246747775E-02 -0.34605784372E-02  0.68460608414E+00  0.68461719360E+00  0.51109989000E-03 0. -1.
     -623    1    1    2    0    0 -0.64424583748E-01  0.16530459751E-01  0.50210184801E-03  0.17124001292E+03  0.17124000000E+03 0. -1.
     -611    1    1    2    0    0  0.39303335114E-01 -0.95591400903E-02  0.26497224966E+01  0.26500312639E+01  0.51109989000E-03 0.  1.
      611    1    1    2    0    0  0.26845923410E-01 -0.35107412237E-02  0.21651692936E+01  0.21653386248E+01  0.51109989000E-03 0. -1.
</event>
<event>
 6   3  0.2312675E+03  0.9118800E+02  0.7818608E-02  0.1180000E+00
       11   -1    0    0    0    0  0.00000000000E+00  0.00000000000E+00  0.54999999763E+01  0.55000000000E+01  0.51109989000E-03 0.  1.
     -623   -1    0    0    0    0  0.00000000000E+00  0.00000000000E+00  0.93234578044E-11  0.17124000000E+03  0.17124000000E+03 0.  1.
       11    1    1    2    0    0 -0.63777784208E-01  0.58467270923E-01  0.36620339439E+00  0.37628608108E+00  0.51109989000E-03 0.  1.
     -623    1    1    2    0    0 -0.77211039064E-02 -0.40829230872E-02  0.10871820265E-01  0.17124000057E+03  0.17124000000E+03 0.  1.
     -611    1    1    2    0    0  0.41234912031E-01 -0.30451999082E-01  0.29993870054E+01  0.29998250468E+01  0.51109989000E-03 0.  1.
      611    1    1    2    0    0  0.30263976087E-01 -0.23932348756E-01  0.21235377565E+01  0.21238883045E+01  0.51109989000E-03 0. -1.
</event>
<event>
 6   3  0.2312675E+03  0.9118800E+02  0.7818608E-02  0.1180000E+00
       11   -1    0    0    0    0  0.00000000000E+00  0.00000000000E+00  0.54999999763E+01  0.55000000000E+01  0.51109989000E-03 0. -1.
     -623   -1    0    0    0    0  0.00000000000E+00  0.00000000000E+00  0.93234578044E-11  0.17124000000E+03  0.17124000000E+03 0. -1.
       11    1    1    2    0    0  0.95063327829E-02 -0.40203294276E-02  0.96479056528E-01  0.97030938279E-01  0.51109989000E-03 0. -1.
     -623    1    1    2    0    0 -0.60124002341E-02 -0.84604978454E-03  0.19181953267E-02  0.17124000012E+03  0.17124000000E+03 0. -1.
     -611    1    1    2    0    0  0.43851928974E-01  0.22303736664E-01  0.11327251844E+01  0.11337932144E+01  0.51109989000E-03 0.  1.
      611    1    1    2    0    0 -0.47345861523E-01 -0.17437357452E-01  0.42688775399E+01  0.42691757289E+01  0.51109989000E-03 0. -1.
</event>
<event>
 6   3  0.2312675E+03  0.9118800E+02  0.7818608E-02  0.1180000E+00
       11   -1    0    0    0    0  0.00000000000E+00  0.00000000000E+00  0.54999999763E+01  0.55000000000E+01  0.51109989000E-03 0.  1.
     -623   -1    0    0    0    0  0.00000000000E+00  0.00000000000E+00  0.93234578044E-11  0.17124000000E+03  0.17124000000E+03 0.  1.
       11    1    1    2    0    0  0.22587937338E-01 -0.20510482320E-01  0.31261135050E-01  0.43685404724E-01  0.51109989000E-03 0.  1.
     -623    1    1    2    0    0  0.51322116343E-01 -0.15868104501E-01  0.13058755442E-01  0.17124000892E+03  0.17124000000E+03 0.  1.
     -611    1    1    2    0    0 -0.13971549635E-01  0.93747453518E-02  0.10403921845E+01  0.10405283508E+01  0.51109989000E-03 0.  1.
      611    1    1    2    0    0 -0.59938504046E-01  0.27003841469E-01  0.44152879013E+01  0.44157773205E+01  0.51109989000E-03 0.  1.
</event>
<event>
 6   3  0.2312675E+03  0.9118800E+02  0.7818608E-02  0.1180000E+00
       11   -1    0    0    0    0  0.00000000000E+00  0.00000000000E+00  0.54999999763E+01  0.55000000000E+01  0.51109989000E-03 0.  1.
     -623   -1    0    0    0    0  0.00000000000E+00  0.00000000000E+00  0.93234578044E-11  0.17124000000E+03  0.17124000000E+03 0. -1.
       11    1    1    2    0    0  0.96456532756E-02  0.47717776004E-02  0.20511284755E-01  0.23168567370E-01  0.51109989000E-03 0.  1.
     -623    1    1    2    0    0  0.27785124144E-02 -0.10994181046E-01  0.43503643541E-02  0.17124000043E+03  0.17124000000E+03 0. -1.
     -611    1    1    2    0    0 -0.71409388982E-01 -0.63231002248E-02  0.36286484610E+01  0.36293565817E+01  0.51109989000E-03 0.  1.
      611    1    1    2    0    0  0.58985223292E-01  0.12545503671E-01  0.18464898662E+01  0.18474744202E+01  0.51109989000E-03 0. -1.
</event>
<event>
 6   3  0.2312675E+03  0.9118800E+02  0.7818608E-02  0.1180000E+00
       11   -1    0    0    0    0  0.00000000000E+00  0.00000000000E+00  0.54999999763E+01  0.55000000000E+01  0.51109989000E-03 0. -1.
     -623   -1    0    0    0    0  0.00000000000E+00  0.00000000000E+00  0.93234578044E-11  0.17124000000E+03  0.17124000000E+03 0. -1.
       11    1    1    2    0    0 -0.10726454135E-01 -0.21289527277E-01  0.40438627335E+00  0.40508865707E+00  0.51109989000E-03 0. -1.
     -623    1    1    2    0    0 -0.40372132485E-01  0.82243491435E-01  0.27461540573E-02  0.17124002453E+03  0.17124000000E+03 0. -1.
     -611    1    1    2    0    0  0.74270278119E-01  0.31666669871E-02  0.29410220769E+01  0.29419614580E+01  0.51109989000E-03 0. -1.
      611    1    1    2    0    0 -0.23171691499E-01 -0.64120631144E-01  0.21518454719E+01  0.21529253537E+01  0.51109989000E-03 0.  1.
</event>
<event>
 6   3  0.2312675E+03  0.9118800E+02  0.7818608E-02  0.1180000E+00
       11   -1    0    0    0    0  0.00000000000E+00  0.00000000000E+00  0.54999999763E+01  0.55000000000E+01  0.51109989000E-03 0. -1.
     -623   -1    0    0    0    0  0.00000000000E+00  0.00000000000E+00  0.93234578044E-11  0.17124000000E+03  0.17124000000E+03 0. -1.
       11    1    1    2    0    0  0.10606935035E-01  0.20993117804E-02  0.59344704041E-01  0.60323870081E-01  0.51109989000E-03 0. -1.
     -623    1    1    2    0    0 -0.75304241122E-01  0.13173303991E-01  0.14109385902E-02  0.17124001707E+03  0.17124000000E+03 0. -1.
     -611    1    1    2    0    0  0.49406216025E-01 -0.74440768415E-02  0.39931188495E+01  0.39934314563E+01  0.51109989000E-03 0. -1.
      611    1    1    2    0    0  0.15291090060E-01 -0.78285389299E-02  0.14461254840E+01  0.14462276031E+01  0.51109989000E-03 0.  1.
</event>
<event>
 6   3  0.2312675E+03  0.9118800E+02  0.7818608E-02  0.1180000E+00
       11   -1    0    0    0    0  0.00000000000E+00  0.00000000000E+00  0.54999999763E+01  0.55000000000E+01  0.51109989000E-03 0. -1.
     -623   -1    0    0    0    0  0.00000000000E+00  0.00000000000E+00  0.93234578044E-11  0.17124000000E+03  0.17124000000E+03 0.  1.
       11    1    1    2    0    0 -0.20968743904E-01 -0.25225861939E-01  0.40071958859E+00  0.40206029676E+00  0.51109989000E-03 0. -1.
     -623    1    1    2    0    0 -0.35404169199E-01  0.11170750028E-01  0.16759474876E-02  0.17124000403E+03  0.17124000000E+03 0.  1.
     -611    1    1    2    0    0  0.35573744723E-01  0.92038735537E-02  0.32326648811E+01  0.32328737521E+01  0.51109989000E-03 0. -1.
      611    1    1    2    0    0  0.20799168411E-01  0.48512383645E-02  0.18649395619E+01  0.18650619214E+01  0.51109989000E-03 0. -1.
</event>
<event>
 6   3  0.2312675E+03  0.9118800E+02  0.7818608E-02  0.1180000E+00
       11   -1    0    0    0    0  0.00000000000E+00  0.00000000000E+00  0.54999999763E+01  0.55000000000E+01  0.51109989000E-03 0. -1.
     -623   -1    0    0    0    0  0.00000000000E+00  0.00000000000E+00  0.93234578044E-11  0.17124000000E+03  0.17124000000E+03 0. -1.
       11    1    1    2    0    0 -0.57744393065E-01 -0.64916844170E-01  0.27029584411E+00  0.28391674159E+00  0.51109989000E-03 0. -1.
     -623    1    1    2    0    0 -0.25654896766E-01 -0.42066128022E-02  0.14748816520E-01  0.17124000261E+03  0.17124000000E+03 0. -1.
     -611    1    1    2    0    0  0.63077542916E-01  0.51355857371E-01  0.39339544096E+01  0.39347952626E+01  0.51109989000E-03 0.  1.
      611    1    1    2    0    0  0.20321746956E-01  0.17767599635E-01  0.12810009086E+01  0.12812853898E+01  0.51109989000E-03 0. -1.
</event>
<event>
 6   3  0.2312675E+03  0.9118800E+02  0.7818608E-02  0.1180000E+00
       11   -1    0    0    0    0  0.00000000000E+00  0.00000000000E+00  0.54999999763E+01  0.55000000000E+01  0.51109989000E-03 0. -1.
     -623   -1    0    0    0    0  0.00000000000E+00  0.00000000000E+00  0.93234578044E-11  0.17124000000E+03  0.17124000000E+03 0. -1.
       11    1    1    2    0    0  0.11687639048E+00  0.61533467373E-02  0.41304046709E+00  0.42930250757E+00  0.51109989000E-03 0. -1.
     -623    1    1    2    0    0 -0.31801208435E-01 -0.19072579012E-01  0.16998349753E-01  0.17124000486E+03  0.17124000000E+03 0. -1.
     -611    1    1    2    0    0 -0.27884815658E-01  0.27612809706E-02  0.16900503133E+01  0.16902826717E+01  0.51109989000E-03 0. -1.
      611    1    1    2    0    0 -0.57190366377E-01  0.10157951302E-01  0.33799108454E+01  0.33804099612E+01  0.51109989000E-03 0.  1.
</event>
<event>
 6   3  0.2312675E+03  0.9118800E+02  0.7818608E-02  0.1180000E+00
       11   -1    0    0    0    0  0.00000000000E+00  0.00000000000E+00  0.54999999763E+01  0.55000000000E+01  0.51109989000E-03 0. -1.
     -623   -1    0    0    0    0  0.00000000000E+00  0.00000000000E+00  0.93234578044E-11  0.17124000000E+03  0.17124000000E+03 0.  1.
       11    1    1    2    0    0  0.13708675170E-01 -0.14344416279E-01  0.47585029398E+00  0.47626405864E+00  0.51109989000E-03 0. -1.
     -623    1    1    2    0    0  0.34252536405E-02  0.23142679618E-01  0.11628655919E-02  0.17124000160E+03  0.17124000000E+03 0.  1.
     -611    1    1    2    0    0  0.32206365353E-01 -0.12518026787E-01  0.14881160859E+01  0.14885172815E+01  0.51109989000E-03 0.  1.
      611    1    1    2    0    0 -0.49340294164E-01  0.37197634484E-02  0.35348707308E+01  0.35352170578E+01  0.51109989000E-03 0. -1.
</event>
<event>
 6   3  0.2312675E+03  0.9118800E+02  0.7818608E-02  0.1180000E+00
       11   -1    0    0    0    0  0.00000000000E+00  0.00000000000E+00  0.54999999763E+01  0.55000000000E+01  0.51109989000E-03 0. -1.
     -623   -1    0    0    0    0  0.00000000000E+00  0.00000000000E+00  0.93234578044E-11  0.17124000000E+03  0.17124000000E+03 0.  1.
       11    1    1    2    0    0  0.15550350000E-03  0.64623987923E-02  0.42586931995E+00  0.42591868434E+00  0.51109989000E-03 0. -1.
     -623    1    1    2    0    0 -0.14433748658E-02 -0.20823387473E-02  0.48345343876E-03  0.17124000002E+03  0.17124000000E+03 0.  1.
     -611    1    1    2    0    0 -0.30263874236E-01 -0.13890538540E-01  0.24043785553E+01  0.24046091881E+01  0.51109989000E-03 0.  1.
      611    1    1    2    0    0  0.31551745601E-01  0.95104784945E-02  0.26692686476E+01  0.26694721081E+01  0.51109989000E-03 0. -1.
</event>
<event>
 6   3  0.2312675E+03  0.9118800E+02  0.7818608E-02  0.1180000E+00
       11   -1    0    0    0    0  0.00000000000E+00  0.00000000000E+00  0.54999999763E+01  0.55000000000E+01  0.51109989000E-03 0.  1.
     -623   -1    0    0    0    0  0.00000000000E+00  0.00000000000E+00  0.93234578044E-11  0.17124000000E+03  0.17124000000E+03 0. -1.
       11    1    1    2    0    0  0.43018776853E-02  0.14827925837E-02  0.18383476033E-01  0.18945137625E-01  0.51109989000E-03 0.  1.
     -623    1    1    2    0    0 -0.43674376890E-02 -0.22528908337E-02  0.21702718839E-02  0.17124000008E+03  0.17124000000E+03 0. -1.
     -611    1    1    2    0    0 -0.58950215060E-01 -0.23451777605E-01  0.35160969483E+01  0.35166693227E+01  0.51109989000E-03 0.  1.
      611    1    1    2    0    0  0.59015775063E-01  0.24221875855E-01  0.19633492800E+01  0.19643854554E+01  0.51109989000E-03 0. -1.
</event>
<event>
 6   3  0.2312675E+03  0.9118800E+02  0.7818608E-02  0.1180000E+00
       11   -1    0    0    0    0  0.00000000000E+00  0.00000000000E+00  0.54999999763E+01  0.55000000000E+01  0.51109989000E-03 0.  1.
     -623   -1    0    0    0    0  0.00000000000E+00  0.00000000000E+00  0.93234578044E-11  0.17124000000E+03  0.17124000000E+03 0.  1.
       11    1    1    2    0    0 -0.97578498369E-02  0.69817250960E-02  0.26863080928E-01  0.29425269052E-01  0.51109989000E-03 0.  1.
     -623    1    1    2    0    0  0.29973036994E-02  0.60527309746E-02  0.32058304327E-02  0.17124000016E+03  0.17124000000E+03 0.  1.
     -611    1    1    2    0    0 -0.36573502939E-01 -0.30199255808E-02  0.18011655338E+01  0.18015394202E+01  0.51109989000E-03 0. -1.
      611    1    1    2    0    0  0.43334049076E-01 -0.10014530490E-01  0.36687655311E+01  0.36690351476E+01  0.51109989000E-03 0.  1.
</event>
<event>
 6   3  0.2312675E+03  0.9118800E+02  0.7818608E-02  0.1180000E+00
       11   -1    0    0    0    0  0.00000000000E+00  0.00000000000E+00  0.54999999763E+01  0.55000000000E+01  0.51109989000E-03 0.  1.
     -623   -1    0    0    0    0  0.00000000000E+00  0.00000000000E+00  0.93234578044E-11  0.17124000000E+03  0.17124000000E+03 0.  1.
       11    1    1    2    0    0 -0.20559679036E-02 -0.51718574462E-02  0.21154199695E-01  0.21880048019E-01  0.51109989000E-03 0.  1.
     -623    1    1    2    0    0  0.42484130641E-02 -0.18694627560E-02  0.20806157496E-02  0.17124000008E+03  0.17124000000E+03 0.  1.
     -611    1    1    2    0    0 -0.39117738085E-01  0.47701787967E-01  0.20932199601E+01  0.20941288692E+01  0.51109989000E-03 0. -1.
      611    1    1    2    0    0  0.36925292924E-01 -0.40660467765E-01  0.33835452007E+01  0.33839910072E+01  0.51109989000E-03 0.  1.
</event>
<event>
 6   3  0.3967700E+03  0.9118800E+02  0.7818608E-02  0.1180000E+00
       11   -1    0    0    0    0  0.00000000000E+00  0.00000000000E+00  0.54999999763E+01  0.55000000000E+01  0.51109989000E-03 0.  1.
     -623   -1    0    0    0    0  0.00000000000E+00  0.00000000000E+00  0.93234578044E-11  0.17124000000E+03  0.17124000000E+03 0.  1.
       11    1    1    2    0    0 -0.28594894731E-02  0.66872264992E-02  0.66312597403E-02  0.98554810709E-02  0.51109989000E-03 0.  1.
     -623    1    1    2    0    0  0.42320227299E-02 -0.70213347238E-02  0.58639458162E-02  0.17124000030E+03  0.17124000000E+03 0.  1.
     -611    1    1    2    0    0 -0.64841219334E-01  0.23552583138E-02  0.45628837621E+01  0.45633450908E+01  0.51109989000E-03 0.  1.
      611    1    1    2    0    0  0.63468686077E-01 -0.20211500893E-02  0.92462100862E+00  0.92679913140E+00  0.51109989000E-03 0. -1.
</event>
<event>
 6   3  0.3051678E+03  0.9118800E+02  0.7818608E-02  0.1180000E+00
       11   -1    0    0    0    0  0.00000000000E+00  0.00000000000E+00  0.54999999763E+01  0.55000000000E+01  0.51109989000E-03 0.  1.
     -623   -1    0    0    0    0  0.00000000000E+00  0.00000000000E+00  0.93234578044E-11  0.17124000000E+03  0.17124000000E+03 0.  1.
       11    1    1    2    0    0 -0.16066551953E-01 -0.42207474756E-01  0.10624121066E+01  0.10633716897E+01  0.51109989000E-03 0.  1.
     -623    1    1    2    0    0 -0.12313989863E-01  0.30363264109E-01  0.13377696319E-02  0.17124000314E+03  0.17124000000E+03 0.  1.
     -611    1    1    2    0    0  0.40902508091E-01  0.18160670685E-02  0.34728363214E+01  0.34730776971E+01  0.51109989000E-03 0.  1.
      611    1    1    2    0    0 -0.12521966275E-01  0.10028143579E-01  0.96341377857E+00  0.96354747328E+00  0.51109989000E-03 0. -1.
</event>
<event>
 6   3  0.2312675E+03  0.9118800E+02  0.7818608E-02  0.1180000E+00
       11   -1    0    0    0    0  0.00000000000E+00  0.00000000000E+00  0.54999999763E+01  0.55000000000E+01  0.51109989000E-03 0.  1.
     -623   -1    0    0    0    0  0.00000000000E+00  0.00000000000E+00  0.93234578044E-11  0.17124000000E+03  0.17124000000E+03 0. -1.
       11    1    1    2    0    0 -0.19047926862E-01 -0.71937172136E-02  0.74433646009E-01  0.77169955076E-01  0.51109989000E-03 0.  1.
     -623    1    1    2    0    0 -0.14239530260E-01  0.11356978791E-02  0.30400317200E-02  0.17124000062E+03  0.17124000000E+03 0. -1.
     -611    1    1    2    0    0  0.45100534272E-01  0.35603188129E-02  0.42425499321E+01  0.42427911711E+01  0.51109989000E-03 0.  1.
      611    1    1    2    0    0 -0.11813077150E-01  0.24977005217E-02  0.11799763665E+01  0.11800382510E+01  0.51109989000E-03 0. -1.
</event>
<event>
 6   3  0.2312675E+03  0.9118800E+02  0.7818608E-02  0.1180000E+00
       11   -1    0    0    0    0  0.00000000000E+00  0.00000000000E+00  0.54999999763E+01  0.55000000000E+01  0.51109989000E-03 0. -1.
     -623   -1    0    0    0    0  0.00000000000E+00  0.00000000000E+00  0.93234578044E-11  0.17124000000E+03  0.17124000000E+03 0.  1.
       11    1    1    2    0    0  0.84762096345E-02  0.30669324188E-02  0.60127471554E+00  0.60134249557E+00  0.51109989000E-03 0. -1.
     -623    1    1    2    0    0 -0.61810758131E-01 -0.20077126736E-02  0.36962116191E-03  0.17124001117E+03  0.17124000000E+03 0.  1.
     -611    1    1    2    0    0  0.26871530294E-01 -0.70828809387E-04  0.24394437422E+01  0.24395917930E+01  0.51109989000E-03 0. -1.
      611    1    1    2    0    0  0.26463018145E-01 -0.98839093825E-03  0.24589118923E+01  0.24590545386E+01  0.51109989000E-03 0.  1.
</event>
<event>
 6   3  0.2312675E+03  0.9118800E+02  0.7818608E-02  0.1180000E+00
       11   -1    0    0    0    0  0.00000000000E+00  0.00000000000E+00  0.54999999763E+01  0.55000000000E+01  0.51109989000E-03 0. -1.
     -623   -1    0    0    0    0  0.00000000000E+00  0.00000000000E+00  0.93234578044E-11  0.17124000000E+03  0.17124000000E+03 0.  1.
       11    1    1    2    0    0  0.30307699818E-01  0.35170060582E-02  0.53441340677E+00  0.53528392145E+00  0.51109989000E-03 0. -1.
     -623    1    1    2    0    0  0.29930946088E-01  0.90406422137E-02  0.13739260631E-02  0.17124000286E+03  0.17124000000E+03 0.  1.
     -611    1    1    2    0    0 -0.35550015533E-01  0.10126553289E-01  0.25968088786E+01  0.25970719982E+01  0.51109989000E-03 0.  1.
      611    1    1    2    0    0 -0.24688630373E-01 -0.22684201561E-01  0.23674037649E+01  0.23676412205E+01  0.51109989000E-03 0. -1.
</event>
<event>
 6   3  0.2312675E+03  0.9118800E+02  0.7818608E-02  0.1180000E+00
       11   -1    0    0    0    0  0.00000000000E+00  0.00000000000E+00  0.54999999763E+01  0.55000000000E+01  0.51109989000E-03 0.  1.
     -623   -1    0    0    0    0  0.00000000000E+00  0.00000000000E+00  0.93234578044E-11  0.17124000000E+03  0.17124000000E+03 0.  1.
       11    1    1    2    0    0 -0.42849163850E-01 -0.38448773807E-01  0.55307831267E+00  0.55606675878E+00  0.51109989000E-03 0.  1.
     -623    1    1    2    0    0 -0.26162536327E-01  0.22060523378E-01  0.35019666913E-02  0.17124000346E+03  0.17124000000E+03 0.  1.
     -611    1    1    2    0    0  0.38446286451E-01  0.78534984147E-02  0.26558297141E+01  0.26561196370E+01  0.51109989000E-03 0.  1.
      611    1    1    2    0    0  0.30565413739E-01  0.85347520181E-02  0.22875899838E+01  0.22878101499E+01  0.51109989000E-03 0. -1.
</event>
<event>
 6   3  0.2312675E+03  0.9118800E+02  0.7818608E-02  0.1180000E+00
       11   -1    0    0    0    0  0.00000000000E+00  0.00000000000E+00  0.54999999763E+01  0.55000000000E+01  0.51109989000E-03 0. -1.
     -623   -1    0    0    0    0  0.00000000000E+00  0.00000000000E+00  0.93234578044E-11  0.17124000000E+03  0.17124000000E+03 0. -1.
       11    1    1    2    0    0 -0.11673383211E-02 -0.14518119298E-02  0.31874709906E-01  0.31933192626E-01  0.51109989000E-03 0. -1.
     -623    1    1    2    0    0  0.16330651482E-02  0.67890479435E-03  0.12029272374E-02  0.17124000001E+03  0.17124000000E+03 0. -1.
     -611    1    1    2    0    0 -0.52212748085E-01  0.96177428119E-02  0.18443544204E+01  0.18451184681E+01  0.51109989000E-03 0.  1.
      611    1    1    2    0    0  0.51747021258E-01 -0.88448356765E-02  0.36225679189E+01  0.36229483261E+01  0.51109989000E-03 0. -1.
</event>
<event>
 6   3  0.2312675E+03  0.9118800E+02  0.7818608E-02  0.1180000E+00
       11   -1    0    0    0    0  0.00000000000E+00  0.00000000000E+00  0.54999999763E+01  0.55000000000E+01  0.51109989000E-03 0. -1.
     -623   -1    0    0    0    0  0.00000000000E+00  0.00000000000E+00  0.93234578044E-11  0.17124000000E+03  0.17124000000E+03 0. -1.
       11    1    1    2    0    0  0.56051549660E-01  0.35579153172E-01  0.70898939392E+00  0.71209119800E+00  0.51109989000E-03 0. -1.
     -623    1    1    2    0    0 -0.27254336227E-02 -0.20208404456E-02  0.35188186868E-02  0.17124000007E+03  0.17124000000E+03 0. -1.
     -611    1    1    2    0    0 -0.25402345849E-01 -0.14581101508E-01  0.20731712883E+01  0.20733782432E+01  0.51109989000E-03 0.  1.
      611    1    1    2    0    0 -0.27923770188E-01 -0.18977211218E-01  0.27143204753E+01  0.27145304890E+01  0.51109989000E-03 0. -1.
</event>
<event>
 6   3  0.2312675E+03  0.9118800E+02  0.7818608E-02  0.1180000E+00
       11   -1    0    0    0    0  0.00000000000E+00  0.00000000000E+00  0.54999999763E+01  0.55000000000E+01  0.51109989000E-03 0. -1.
     -623   -1    0    0    0    0  0.00000000000E+00  0.00000000000E+00  0.93234578044E-11  0.17124000000E+03  0.17124000000E+03 0. -1.
       11    1    1    2    0    0  0.36783726264E-02 -0.15000849835E-01  0.23378189943E-01  0.28024220044E-01  0.51109989000E-03 0. -1.
     -623    1    1    2    0    0 -0.34494615997E-02 -0.42882849462E-02  0.59020768399E-02  0.17124000019E+03  0.17124000000E+03 0. -1.
     -611    1    1    2    0    0 -0.44656339858E-01 -0.25028458667E-01  0.18335877332E+01  0.18343022786E+01  0.51109989000E-03 0.  1.
      611    1    1    2    0    0  0.44427428831E-01  0.44317593448E-01  0.36371319763E+01  0.36376733113E+01  0.51109989000E-03 0. -1.
</event>
<event>
 6   3  0.2312675E+03  0.9118800E+02  0.7818608E-02  0.1180000E+00
       11   -1    0    0    0    0  0.00000000000E+00  0.00000000000E+00  0.54999999763E+01  0.55000000000E+01  0.51109989000E-03 0. -1.
     -623   -1    0    0    0    0  0.00000000000E+00  0.00000000000E+00  0.93234578044E-11  0.17124000000E+03  0.17124000000E+03 0.  1.
       11    1    1    2    0    0  0.12649844225E-01  0.42734294418E-03  0.80140378862E+00  0.80150389570E+00  0.51109989000E-03 0. -1.
     -623    1    1    2    0    0  0.16478736523E-02  0.21617965276E-02  0.67090364732E-03  0.17124000002E+03  0.17124000000E+03 0.  1.
     -611    1    1    2    0    0  0.29438230259E-01 -0.14737098337E-02  0.18705955264E+01  0.18708278023E+01  0.51109989000E-03 0.  1.
      611    1    1    2    0    0 -0.43735948136E-01 -0.11154296381E-02  0.28273297573E+01  0.28276682788E+01  0.51109989000E-03 0. -1.
</event>
<event>
 6   3  0.2312675E+03  0.9118800E+02  0.7818608E-02  0.1180000E+00
       11   -1    0    0    0    0  0.00000000000E+00  0.00000000000E+00  0.54999999763E+01  0.55000000000E+01  0.51109989000E-03 0. -1.
     -623   -1    0    0    0    0  0.00000000000E+00  0.00000000000E+00  0.93234578044E-11  0.17124000000E+03  0.17124000000E+03 0.  1.
       11    1    1    2    0    0  0.52784794092E-02 -0.65379373074E-02  0.57093498959E-01  0.57710794619E-01  0.51109989000E-03 0. -1.
     -623    1    1    2    0    0 -0.10165804746E-01  0.16612863864E-02  0.27230589894E-02  0.17124000033E+03  0.17124000000E+03 0.  1.
     -611    1    1    2    0    0 -0.51378380236E-01 -0.57678484939E-02  0.45355606263E+01  0.45358553176E+01  0.51109989000E-03 0. -1.
      611    1    1    2    0    0  0.56265705572E-01  0.10644499415E-01  0.90462279203E+00  0.90643355635E+00  0.51109989000E-03 0.  1.
</event>
<event>
 6   3  0.2312675E+03  0.9118800E+02  0.7818608E-02  0.1180000E+00
       11   -1    0    0    0    0  0.00000000000E+00  0.00000000000E+00  0.54999999763E+01  0.55000000000E+01  0.51109989000E-03 0. -1.
     -623   -1    0    0    0    0  0.00000000000E+00  0.00000000000E+00  0.93234578044E-11  0.17124000000E+03  0.17124000000E+03 0. -1.
       11    1    1    2    0    0  0.47259063379E-02 -0.43825123735E-02  0.31940028832E-01  0.32587839301E-01  0.51109989000E-03 0. -1.
     -623    1    1    2    0    0 -0.25143559721E-02 -0.80458354472E-03  0.11670292713E-02  0.17124000002E+03  0.17124000000E+03 0. -1.
     -611    1    1    2    0    0 -0.33137385857E-01  0.22076155783E-01  0.31365616876E+01  0.31368144549E+01  0.51109989000E-03 0. -1.
      611    1    1    2    0    0  0.30925835491E-01 -0.16889059865E-01  0.23303312305E+01  0.23305976815E+01  0.51109989000E-03 0.  1.
</event>
<event>
 6   3  0.2312675E+03  0.9118800E+02  0.7818608E-02  0.1180000E+00
       11   -1    0    0    0    0  0.00000000000E+00  0.00000000000E+00  0.54999999763E+01  0.55000000000E+01  0.51109989000E-03 0.  1.
     -623   -1    0    0    0    0  0.00000000000E+00  0.00000000000E+00  0.93234578044E-11  0.17124000000E+03  0.17124000000E+03 0. -1.
       11    1    1    2    0    0 -0.20030278770E-01 -0.19756060720E-01  0.10213897385E+01  0.10217772620E+01  0.51109989000E-03 0.  1.
     -623    1    1    2    0    0 -0.29016841614E-01 -0.39739550686E-01  0.21787771562E-02  0.17124000708E+03  0.17124000000E+03 0. -1.
     -611    1    1    2    0    0 -0.28880237789E-01  0.14990864605E-01  0.75303347447E+00  0.75373633922E+00  0.51109989000E-03 0. -1.
      611    1    1    2    0    0  0.77927358174E-01  0.44504746801E-01  0.37233979862E+01  0.37244793153E+01  0.51109989000E-03 0.  1.
</event>
<event>
 6   3  0.2312675E+03  0.9118800E+02  0.7818608E-02  0.1180000E+00
       11   -1    0    0    0    0  0.00000000000E+00  0.00000000000E+00  0.54999999763E+01  0.55000000000E+01  0.51109989000E-03 0.  1.
     -623   -1    0    0    0    0  0.00000000000E+00  0.00000000000E+00  0.93234578044E-11  0.17124000000E+03  0.17124000000E+03 0. -1.
       11    1    1    2    0    0 -0.88310601024E-01 -0.19838474069E-01  0.74049143614E+00  0.74600278520E+00  0.51109989000E-03 0.  1.
     -623    1    1    2    0    0  0.55879784765E-02  0.92470852341E-02  0.62459271268E-02  0.17124000045E+03  0.17124000000E+03 0. -1.
     -611    1    1    2    0    0  0.39363645311E-01  0.43481743174E-02  0.23892652595E+01  0.23895935103E+01  0.51109989000E-03 0.  1.
      611    1    1    2    0    0  0.43358977229E-01  0.62432145167E-02  0.23639973531E+01  0.23644032493E+01  0.51109989000E-03 0. -1.
</event>
<event>
 6   3  0.2312675E+03  0.9118800E+02  0.7818608E-02  0.1180000E+00
       11   -1    0    0    0    0  0.00000000000E+00  0.00000000000E+00  0.54999999763E+01  0.55000000000E+01  0.51109989000E-03 0. -1.
     -623   -1    0    0    0    0  0.00000000000E+00  0.00000000000E+00  0.93234578044E-11  0.17124000000E+03  0.17124000000E+03 0. -1.
       11    1    1    2    0    0  0.57967447503E-01  0.79922170150E-01  0.97860910073E+00  0.98357704910E+00  0.51109989000E-03 0. -1.
     -623    1    1    2    0    0  0.10034966452E-01 -0.29620344078E-01  0.57810342721E-02  0.17124000295E+03  0.17124000000E+03 0. -1.
     -611    1    1    2    0    0 -0.21845417505E-01 -0.12277644421E-01  0.16063744421E+01  0.16065699712E+01  0.51109989000E-03 0.  1.
      611    1    1    2    0    0 -0.46156996451E-01 -0.38024181652E-01  0.29092353993E+01  0.29098500264E+01  0.51109989000E-03 0. -1.
</event>
<event>
 6   3  0.2448615E+03  0.9118800E+02  0.7818608E-02  0.1180000E+00
       11   -1    0    0    0    0  0.00000000000E+00  0.00000000000E+00  0.54999999763E+01  0.55000000000E+01  0.51109989000E-03 0.  1.
     -623   -1    0    0    0    0  0.00000000000E+00  0.00000000000E+00  0.93234578044E-11  0.17124000000E+03  0.17124000000E+03 0. -1.
       11    1    1    2    0    0  0.11876789317E-02 -0.23227229496E-02  0.69828815258E+00  0.69829321269E+00  0.51109989000E-03 0.  1.
     -623    1    1    2    0    0 -0.73529851172E-04  0.11104922422E-02  0.39433297525E-03  0.17124000000E+03  0.17124000000E+03 0. -1.
     -611    1    1    2    0    0  0.29409860605E-01 -0.52704192582E-02  0.22509933643E+01  0.22511917076E+01  0.51109989000E-03 0.  1.
      611    1    1    2    0    0 -0.30524009685E-01  0.64826499656E-02  0.25503241260E+01  0.25505150752E+01  0.51109989000E-03 0. -1.
</event>
<event>
 6   3  0.2312675E+03  0.9118800E+02  0.7818608E-02  0.1180000E+00
       11   -1    0    0    0    0  0.00000000000E+00  0.00000000000E+00  0.54999999763E+01  0.55000000000E+01  0.51109989000E-03 0. -1.
     -623   -1    0    0    0    0  0.00000000000E+00  0.00000000000E+00  0.93234578044E-11  0.17124000000E+03  0.17124000000E+03 0.  1.
       11    1    1    2    0    0 -0.36452325202E-01  0.35708708959E-01  0.30822827294E+00  0.31242409217E+00  0.51109989000E-03 0. -1.
     -623    1    1    2    0    0 -0.24808092841E-01 -0.36004151085E-01  0.45709462970E-02  0.17124000564E+03  0.17124000000E+03 0.  1.
     -611    1    1    2    0    0  0.16298861716E-01 -0.10323830224E-02  0.10879112074E+01  0.10880339035E+01  0.51109989000E-03 0.  1.
      611    1    1    2    0    0  0.44961556327E-01  0.13278251481E-02  0.40992895496E+01  0.40995363613E+01  0.51109989000E-03 0. -1.
</event>
<event>
 6   3  0.2312675E+03  0.9118800E+02  0.7818608E-02  0.1180000E+00
       11   -1    0    0    0    0  0.00000000000E+00  0.00000000000E+00  0.54999999763E+01  0.55000000000E+01  0.51109989000E-03 0. -1.
     -623   -1    0    0    0    0  0.00000000000E+00  0.00000000000E+00  0.93234578044E-11  0.17124000000E+03  0.17124000000E+03 0. -1.
       11    1    1    2    0    0  0.11777214616E-01  0.12120448508E-01  0.78857738435E-01  0.80649936084E-01  0.51109989000E-03 0. -1.
     -623    1    1    2    0    0  0.67082866171E-03  0.38961085281E-02  0.22021720304E-02  0.17124000006E+03  0.17124000000E+03 0. -1.
     -611    1    1    2    0    0  0.25940782846E-01 -0.76938249488E-02  0.19585741730E+01  0.19587611318E+01  0.51109989000E-03 0. -1.
      611    1    1    2    0    0 -0.38388826124E-01 -0.83227320876E-02  0.34603658927E+01  0.34605888722E+01  0.51109989000E-03 0.  1.
</event>
<event>
 6   3  0.2312675E+03  0.9118800E+02  0.7818608E-02  0.1180000E+00
       11   -1    0    0    0    0  0.00000000000E+00  0.00000000000E+00  0.54999999763E+01  0.55000000000E+01  0.51109989000E-03 0.  1.
     -623   -1    0    0    0    0  0.00000000000E+00  0.00000000000E+00  0.93234578044E-11  0.17124000000E+03  0.17124000000E+03 0.  1.
       11    1    1    2    0    0 -0.28915776729E-01  0.22083205415E-01  0.36657794490E+00  0.36837947964E+00  0.51109989000E-03 0.  1.
     -623    1    1    2    0    0  0.67906787086E-01  0.14407553989E-01  0.94536202477E-02  0.17124001433E+03  0.17124000000E+03 0.  1.
     -611    1    1    2    0    0 -0.12765882377E+00  0.64997921872E-01  0.29338062527E+01  0.29373016349E+01  0.51109989000E-03 0.  1.
      611    1    1    2    0    0  0.88667813412E-01 -0.10148868128E+00  0.21901621584E+01  0.21943045539E+01  0.51109989000E-03 0. -1.
</event>
<event>
 6   3  0.2312675E+03  0.9118800E+02  0.7818608E-02  0.1180000E+00
       11   -1    0    0    0    0  0.00000000000E+00  0.00000000000E+00  0.54999999763E+01  0.55000000000E+01  0.51109989000E-03 0.  1.
     -623   -1    0    0    0    0  0.00000000000E+00  0.00000000000E+00  0.93234578044E-11  0.17124000000E+03  0.17124000000E+03 0.  1.
       11    1    1    2    0    0  0.22750862212E-02  0.12508647816E-02  0.33951862756E-03  0.26678035932E-02  0.51109989000E-03 0.  1.
     -623    1    1    2    0    0 -0.91003446238E-02 -0.13673297085E-01  0.64022589290E-02  0.17124000091E+03  0.17124000000E+03 0.  1.
     -611    1    1    2    0    0 -0.52230477852E-01  0.60157031674E-01  0.92011532909E+00  0.92355799565E+00  0.51109989000E-03 0. -1.
      611    1    1    2    0    0  0.59055736255E-01 -0.47734599370E-01  0.45731428696E+01  0.45737732934E+01  0.51109989000E-03 0.  1.
</event>
<event>
 6   3  0.2312675E+03  0.9118800E+02  0.7818608E-02  0.1180000E+00
       11   -1    0    0    0    0  0.00000000000E+00  0.00000000000E+00  0.54999999763E+01  0.55000000000E+01  0.51109989000E-03 0.  1.
     -623   -1    0    0    0    0  0.00000000000E+00  0.00000000000E+00  0.93234578044E-11  0.17124000000E+03  0.17124000000E+03 0.  1.
       11    1    1    2    0    0 -0.64747587247E-02 -0.22360671166E-01  0.10541120670E+01  0.10543692110E+01  0.51109989000E-03 0.  1.
     -623    1    1    2    0    0 -0.20104725643E-01  0.20022431633E-01  0.76366700213E-03  0.17124000235E+03  0.17124000000E+03 0.  1.
     -611    1    1    2    0    0 -0.14945212899E-01  0.11488848301E-01  0.67190427501E+00  0.67216885454E+00  0.51109989000E-03 0. -1.
      611    1    1    2    0    0  0.41524697267E-01 -0.91506087679E-02  0.37732199673E+01  0.37734595820E+01  0.51109989000E-03 0.  1.
</event>
<event>
 6   3  0.2312675E+03  0.9118800E+02  0.7818608E-02  0.1180000E+00
       11   -1    0    0    0    0  0.00000000000E+00  0.00000000000E+00  0.54999999763E+01  0.55000000000E+01  0.51109989000E-03 0. -1.
     -623   -1    0    0    0    0  0.00000000000E+00  0.00000000000E+00  0.93234578044E-11  0.17124000000E+03  0.17124000000E+03 0.  1.
       11    1    1    2    0    0 -0.94270588753E-01  0.80316046183E-01  0.72205871392E+00  0.73260266090E+00  0.51109989000E-03 0. -1.
     -623    1    1    2    0    0  0.21334433249E-02  0.94895843566E-02  0.12333757941E-01  0.17124000072E+03  0.17124000000E+03 0.  1.
     -611    1    1    2    0    0  0.21717757578E-01 -0.21450658377E-01  0.81835297792E+00  0.81892224871E+00  0.51109989000E-03 0.  1.
      611    1    1    2    0    0  0.70419387850E-01 -0.68354972163E-01  0.39472545265E+01  0.39484743700E+01  0.51109989000E-03 0. -1.
</event>
<event>
 6   3  0.2312675E+03  0.9118800E+02  0.7818608E-02  0.1180000E+00
       11   -1    0    0    0    0  0.00000000000E+00  0.00000000000E+00  0.54999999763E+01  0.55000000000E+01  0.51109989000E-03 0.  1.
     -623   -1    0    0    0    0  0.00000000000E+00  0.00000000000E+00  0.93234578044E-11  0.17124000000E+03  0.17124000000E+03 0. -1.
       11    1    1    2    0    0  0.70388186396E-01 -0.11935851233E-01  0.73980679094E+00  0.74324377594E+00  0.51109989000E-03 0.  1.
     -623    1    1    2    0    0 -0.45645388134E-02  0.62658639649E-01  0.41802852262E-02  0.17124001158E+03  0.17124000000E+03 0. -1.
     -611    1    1    2    0    0 -0.19374648990E-01 -0.15541809786E-01  0.12386976724E+01  0.12389467744E+01  0.51109989000E-03 0. -1.
      611    1    1    2    0    0 -0.46448998595E-01 -0.35180978631E-01  0.35173152278E+01  0.35177978742E+01  0.51109989000E-03 0.  1.
</event>
<event>
 6   3  0.2312675E+03  0.9118800E+02  0.7818608E-02  0.1180000E+00
       11   -1    0    0    0    0  0.00000000000E+00  0.00000000000E+00  0.54999999763E+01  0.55000000000E+01  0.51109989000E-03 0. -1.
     -623   -1    0    0    0    0  0.00000000000E+00  0.00000000000E+00  0.93234578044E-11  0.17124000000E+03  0.17124000000E+03 0.  1.
       11    1    1    2    0    0  0.30470044415E-02 -0.17818167837E-01  0.38326967956E+00  0.38369607743E+00  0.51109989000E-03 0. -1.
     -623    1    1    2    0    0  0.63937862517E-02  0.70996410830E-02  0.20465071727E-02  0.17124000028E+03  0.17124000000E+03 0.  1.
     -611    1    1    2    0    0 -0.35931280382E-01 -0.45728757393E-01  0.33782683750E+01  0.33787689550E+01  0.51109989000E-03 0. -1.
      611    1    1    2    0    0  0.26490489688E-01  0.56447284148E-01  0.17364154145E+01  0.17375346889E+01  0.51109989000E-03 0.  1.
</event>
<event>
 6   3  0.2312675E+03  0.9118800E+02  0.7818608E-02  0.1180000E+00
       11   -1    0    0    0    0  0.00000000000E+00  0.00000000000E+00  0.54999999763E+01  0.55000000000E+01  0.51109989000E-03 0. -1.
     -623   -1    0    0    0    0  0.00000000000E+00  0.00000000000E+00  0.93234578044E-11  0.17124000000E+03  0.17124000000E+03 0. -1.
       11    1    1    2    0    0 -0.18517097710E-02  0.48738335670E-02  0.22781777279E-01  0.23376348770E-01  0.51109989000E-03 0. -1.
     -623    1    1    2    0    0  0.44486739183E-03 -0.38791710015E-02  0.12516855769E-02  0.17124000005E+03  0.17124000000E+03 0. -1.
     -611    1    1    2    0    0 -0.39823847326E-01 -0.12384340267E-01  0.29513295018E+01  0.29516241970E+01  0.51109989000E-03 0.  1.
      611    1    1    2    0    0  0.41230689705E-01  0.11389677701E-01  0.25246370115E+01  0.25249994051E+01  0.51109989000E-03 0. -1.
</event>
<event>
 6   3  0.2312675E+03  0.9118800E+02  0.7818608E-02  0.1180000E+00
       11   -1    0    0    0    0  0.00000000000E+00  0.00000000000E+00  0.54999999763E+01  0.55000000000E+01  0.51109989000E-03 0. -1.
     -623   -1    0    0    0    0  0.00000000000E+00  0.00000000000E+00  0.93234578044E-11  0.17124000000E+03  0.17124000000E+03 0.  1.
       11    1    1    2    0    0  0.44152567906E-01  0.62832789053E-03  0.17900905376E+00  0.18437555858E+00  0.51109989000E-03 0. -1.
     -623    1    1    2    0    0  0.12677442674E+00 -0.86668623907E-01  0.88867438313E-02  0.17124006909E+03  0.17124000000E+03 0.  1.
     -611    1    1    2    0    0 -0.21005956687E-01  0.86569264267E-02  0.67998718989E+00  0.68036683652E+00  0.51109989000E-03 0.  1.
      611    1    1    2    0    0 -0.14992103795E+00  0.77383369585E-01  0.46321169885E+01  0.46351885140E+01  0.51109989000E-03 0. -1.
</event>
<event>
 6   3  0.2312675E+03  0.9118800E+02  0.7818608E-02  0.1180000E+00
       11   -1    0    0    0    0  0.00000000000E+00  0.00000000000E+00  0.54999999763E+01  0.55000000000E+01  0.51109989000E-03 0. -1.
     -623   -1    0    0    0    0  0.00000000000E+00  0.00000000000E+00  0.93234578044E-11  0.17124000000E+03  0.17124000000E+03 0. -1.
       11    1    1    2    0    0  0.15651480442E-01 -0.38667401928E-02  0.10388303715E+01  0.10389555921E+01  0.51109989000E-03 0. -1.
     -623    1    1    2    0    0 -0.75257130467E-01 -0.10074011415E-01  0.56379171727E-03  0.17124001683E+03  0.17124000000E+03 0. -1.
     -611    1    1    2    0    0  0.11838032861E-01  0.42457534689E-02  0.88238234766E+00  0.88247211522E+00  0.51109989000E-03 0.  1.
      611    1    1    2    0    0  0.47767617236E-01  0.96949981472E-02  0.35782234706E+01  0.35785554635E+01  0.51109989000E-03 0. -1.
</event>
<event>
 6   3  0.2312675E+03  0.9118800E+02  0.7818608E-02  0.1180000E+00
       11   -1    0    0    0    0  0.00000000000E+00  0.00000000000E+00  0.54999999763E+01  0.55000000000E+01  0.51109989000E-03 0. -1.
     -623   -1    0    0    0    0  0.00000000000E+00  0.00000000000E+00  0.93234578044E-11  0.17124000000E+03  0.17124000000E+03 0.  1.
       11    1    1    2    0    0 -0.16908052811E-02  0.92707542036E-02  0.13151387350E+00  0.13185206047E+00  0.51109989000E-03 0. -1.
     -623    1    1    2    0    0  0.19542142221E-01 -0.11010995040E-01  0.76914998651E-03  0.17124000147E+03  0.17124000000E+03 0.  1.
     -611    1    1    2    0    0  0.22560641863E-01 -0.11323709988E-01  0.21956851879E+01  0.21958303474E+01  0.51109989000E-03 0.  1.
      611    1    1    2    0    0 -0.40411978803E-01  0.13063950825E-01  0.31720317651E+01  0.31723161216E+01  0.51109989000E-03 0. -1.
</event>
<event>
 6   3  0.2312675E+03  0.9118800E+02  0.7818608E-02  0.1180000E+00
       11   -1    0    0    0    0  0.00000000000E+00  0.00000000000E+00  0.54999999763E+01  0.55000000000E+01  0.51109989000E-03 0. -1.
     -623   -1    0    0    0    0  0.00000000000E+00  0.00000000000E+00  0.93234578044E-11  0.17124000000E+03  0.17124000000E+03 0. -1.
       11    1    1    2    0    0 -0.64271897194E-01  0.14790017779E-01  0.83086202902E+00  0.83347561085E+00  0.51109989000E-03 0. -1.
     -623    1    1    2    0    0  0.44449886967E-02 -0.36021776414E-01  0.30888166515E-02  0.17124000387E+03  0.17124000000E+03 0. -1.
     -611    1    1    2    0    0  0.26722739811E-01  0.18986675549E-01  0.20771514258E+01  0.20774101438E+01  0.51109989000E-03 0.  1.
      611    1    1    2    0    0  0.33104168687E-01  0.22450830858E-02  0.25888977047E+01  0.25891103710E+01  0.51109989000E-03 0. -1.
</event>
<event>
 6   3  0.2312675E+03  0.9118800E+02  0.7818608E-02  0.1180000E+00
       11   -1    0    0    0    0  0.00000000000E+00  0.00000000000E+00  0.54999999763E+01  0.55000000000E+01  0.51109989000E-03 0. -1.
     -623   -1    0    0    0    0  0.00000000000E+00  0.00000000000E+00  0.93234578044E-11  0.17124000000E+03  0.17124000000E+03 0.  1.
       11    1    1    2    0    0 -0.86516112749E-02 -0.11822235357E-02  0.57477472109E+00  0.57484127310E+00  0.51109989000E-03 0. -1.
     -623    1    1    2    0    0 -0.32101704482E-03  0.24977487412E-02  0.97860679238E-03  0.17124000002E+03  0.17124000000E+03 0.  1.
     -611    1    1    2    0    0  0.44861880103E-01  0.18248810041E-01  0.34687202760E+01  0.34690584056E+01  0.51109989000E-03 0.  1.
      611    1    1    2    0    0 -0.35889251784E-01 -0.19564335247E-01  0.14555263726E+01  0.14561003001E+01  0.51109989000E-03 0. -1.
</event>
<event>
 6   3  0.2312675E+03  0.9118800E+02  0.7818608E-02  0.1180000E+00
       11   -1    0    0    0    0  0.00000000000E+00  0.00000000000E+00  0.54999999763E+01  0.55000000000E+01  0.51109989000E-03 0. -1.
     -623   -1    0    0    0    0  0.00000000000E+00  0.00000000000E+00  0.93234578044E-11  0.17124000000E+03  0.17124000000E+03 0. -1.
       11    1    1    2    0    0 -0.81885177066E-02 -0.76661344350E-02  0.19490090240E+00  0.19522408770E+00  0.51109989000E-03 0. -1.
     -623    1    1    2    0    0  0.91738953973E-03 -0.33582781118E-02  0.16906875912E-02  0.17124000004E+03  0.17124000000E+03 0. -1.
     -611    1    1    2    0    0  0.47983839378E-01  0.45539054032E-01  0.26070999763E+01  0.26079391867E+01  0.51109989000E-03 0. -1.
      611    1    1    2    0    0 -0.40712711211E-01 -0.34514641485E-01  0.26963084101E+01  0.26968366819E+01  0.51109989000E-03 0.  1.
</event>
<event>
 6   3  0.3806044E+03  0.9118800E+02  0.7818608E-02  0.1180000E+00
       11   -1    0    0    0    0  0.00000000000E+00  0.00000000000E+00  0.54999999763E+01  0.55000000000E+01  0.51109989000E-03 0. -1.
     -623   -1    0    0    0    0  0.00000000000E+00  0.00000000000E+00  0.93234578044E-11  0.17124000000E+03  0.17124000000E+03 0. -1.
       11    1    1    2    0    0 -0.28402462517E-01 -0.20269098922E-02  0.96613045395E+00  0.96655011433E+00  0.51109989000E-03 0. -1.
     -623    1    1    2    0    0 -0.25433004468E-03 -0.13599026190E-02  0.75905364202E-03  0.17124000001E+03  0.17124000000E+03 0. -1.
     -611    1    1    2    0    0  0.40321581320E-01 -0.53809332070E-02  0.34937757723E+01  0.34940126206E+01  0.51109989000E-03 0. -1.
      611    1    1    2    0    0 -0.11664788759E-01  0.87677457182E-02  0.10393346964E+01  0.10394372579E+01  0.51109989000E-03 0.  1.
</event>
<event>
 6   3  0.2312675E+03  0.9118800E+02  0.7818608E-02  0.1180000E+00
       11   -1    0    0    0    0  0.00000000000E+00  0.00000000000E+00  0.54999999763E+01  0.55000000000E+01  0.51109989000E-03 0.  1.
     -623   -1    0    0    0    0  0.00000000000E+00  0.00000000000E+00  0.93234578044E-11  0.17124000000E+03  0.17124000000E+03 0. -1.
       11    1    1    2    0    0  0.15990709922E-01 -0.11245959357E-01  0.71057631402E-01  0.73699542802E-01  0.51109989000E-03 0.  1.
     -623    1    1    2    0    0 -0.39908864775E-02  0.75559166877E-02  0.54547535400E-02  0.17124000030E+03  0.17124000000E+03 0. -1.
     -611    1    1    2    0    0  0.39674363989E-01  0.48488017905E-01  0.85181340850E+00  0.85411444618E+00  0.51109989000E-03 0. -1.
      611    1    1    2    0    0 -0.51674187433E-01 -0.44797975237E-01  0.45716741828E+01  0.45721857110E+01  0.51109989000E-03 0.  1.
</event>
<event>
 6   3  0.2312675E+03  0.9118800E+02  0.7818608E-02  0.1180000E+00
       11   -1    0    0    0    0  0.00000000000E+00  0.00000000000E+00  0.54999999763E+01  0.55000000000E+01  0.51109989000E-03 0. -1.
     -623   -1    0    0    0    0  0.00000000000E+00  0.00000000000E+00  0.93234578044E-11  0.17124000000E+03  0.17124000000E+03 0.  1.
       11    1    1    2    0    0 -0.22664222484E-01 -0.99521450697E-02  0.70826263953E+00  0.70869523771E+00  0.51109989000E-03 0. -1.
     -623    1    1    2    0    0  0.33379989053E-03 -0.14364022471E-02  0.90047431828E-03  0.17124000001E+03  0.17124000000E+03 0.  1.
     -611    1    1    2    0    0 -0.20107568643E-01 -0.25433692855E-02  0.10057915520E+01  0.10059958700E+01  0.51109989000E-03 0.  1.
      611    1    1    2    0    0  0.42437991236E-01  0.13931916602E-01  0.37850453104E+01  0.37853088836E+01  0.51109989000E-03 0. -1.
</event>
<event>
 6   3  0.2312675E+03  0.9118800E+02  0.7818608E-02  0.1180000E+00
       11   -1    0    0    0    0  0.00000000000E+00  0.00000000000E+00  0.54999999763E+01  0.55000000000E+01  0.51109989000E-03 0. -1.
     -623   -1    0    0    0    0  0.00000000000E+00  0.00000000000E+00  0.93234578044E-11  0.17124000000E+03  0.17124000000E+03 0. -1.
       11    1    1    2    0    0  0.23216478328E-01 -0.65689520652E-02  0.61449159614E-01  0.66018303807E-01  0.51109989000E-03 0. -1.
     -623    1    1    2    0    0  0.20122344069E-02  0.26827530499E-01  0.12141211584E-01  0.17124000254E+03  0.17124000000E+03 0. -1.
     -611    1    1    2    0    0  0.95498284474E-01 -0.11620789913E-01  0.43016866837E+01  0.43027623164E+01  0.51109989000E-03 0. -1.
      611    1    1    2    0    0 -0.12072699721E+00 -0.86377885209E-02  0.11247229214E+01  0.11312168361E+01  0.51109989000E-03 0.  1.
</event>
<event>
 6   3  0.3387460E+03  0.9118800E+02  0.7818608E-02  0.1180000E+00
       11   -1    0    0    0    0  0.00000000000E+00  0.00000000000E+00  0.54999999763E+01  0.55000000000E+01  0.51109989000E-03 0. -1.
     -623   -1    0    0    0    0  0.00000000000E+00  0.00000000000E+00  0.93234578044E-11  0.17124000000E+03  0.17124000000E+03 0. -1.
       11    1    1    2    0    0  0.93107507788E-02  0.50555143679E-02  0.90681937273E+00  0.90688140586E+00  0.51109989000E-03 0. -1.
     -623    1    1    2    0    0 -0.56392971203E-01 -0.41946444975E-01  0.46757412190E-03  0.17124001442E+03  0.17124000000E+03 0. -1.
     -611    1    1    2    0    0  0.37120720485E-01  0.30630952711E-01  0.36255862036E+01  0.36259056501E+01  0.51109989000E-03 0. -1.
      611    1    1    2    0    0  0.99614997845E-02  0.62599777804E-02  0.96712681070E+00  0.96719850496E+00  0.51109989000E-03 0.  1.
</event>
<event>
 6   3  0.2312675E+03  0.9118800E+02  0.7818608E-02  0.1180000E+00
       11   -1    0    0    0    0  0.00000000000E+00  0.00000000000E+00  0.54999999763E+01  0.55000000000E+01  0.51109989000E-03 0.  1.
     -623   -1    0    0    0    0  0.00000000000E+00  0.00000000000E+00  0.93234578044E-11  0.17124000000E+03  0.17124000000E+03 0.  1.
       11    1    1    2    0    0 -0.73871004895E-03  0.20316312510E-02  0.21405539553E-01  0.21520491740E-01  0.51109989000E-03 0.  1.
     -623    1    1    2    0    0  0.29126854204E-03 -0.13637488217E-02  0.72084150803E-03  0.17124000001E+03  0.17124000000E+03 0.  1.
     -611    1    1    2    0    0 -0.30504232033E-01 -0.27055732555E-01  0.26768445146E+01  0.26771550828E+01  0.51109989000E-03 0.  1.
      611    1    1    2    0    0  0.30951673540E-01  0.26387850126E-01  0.28010290806E+01  0.28013244183E+01  0.51109989000E-03 0. -1.
</event>
<event>
 6   3  0.2312675E+03  0.9118800E+02  0.7818608E-02  0.1180000E+00
       11   -1    0    0    0    0  0.00000000000E+00  0.00000000000E+00  0.54999999763E+01  0.55000000000E+01  0.51109989000E-03 0.  1.
     -623   -1    0    0    0    0  0.00000000000E+00  0.00000000000E+00  0.93234578044E-11  0.17124000000E+03  0.17124000000E+03 0.  1.
       11    1    1    2    0    0  0.18975761157E-01 -0.27676175642E-01  0.56218118519E+00  0.56318202778E+00  0.51109989000E-03 0.  1.
     -623    1    1    2    0    0 -0.84940185045E-01 -0.25631684240E-02  0.15592662597E-02  0.17124002109E+03  0.17124000000E+03 0.  1.
     -611    1    1    2    0    0  0.22427977542E-01  0.90345048249E-02  0.18317459043E+01  0.18319055531E+01  0.51109989000E-03 0. -1.
      611    1    1    2    0    0  0.43536446348E-01  0.21204839241E-01  0.31045136207E+01  0.31048913266E+01  0.51109989000E-03 0.  1.
</event>
<event>
 6   3  0.2312675E+03  0.9118800E+02  0.7818608E-02  0.1180000E+00
       11   -1    0    0    0    0  0.00000000000E+00  0.00000000000E+00  0.54999999763E+01  0.55000000000E+01  0.51109989000E-03 0. -1.
     -623   -1    0    0    0    0  0.00000000000E+00  0.00000000000E+00  0.93234578044E-11  0.17124000000E+03  0.17124000000E+03 0.  1.
       11    1    1    2    0    0 -0.22464771985E-02  0.12932908879E-01  0.10972308547E+01  0.10973094899E+01  0.51109989000E-03 0. -1.
     -623    1    1    2    0    0  0.55567185731E-01  0.83675205438E-02  0.46251389806E-03  0.17124000922E+03  0.17124000000E+03 0.  1.
     -611    1    1    2    0    0 -0.26150474375E-01 -0.10917134047E-01  0.21982325195E+01  0.21984152252E+01  0.51109989000E-03 0. -1.
      611    1    1    2    0    0 -0.27170234211E-01 -0.10383295396E-01  0.22040740926E+01  0.22042660686E+01  0.51109989000E-03 0. -1.
</event>
<event>
 6   3  0.2312675E+03  0.9118800E+02  0.7818608E-02  0.1180000E+00
       11   -1    0    0    0    0  0.00000000000E+00  0.00000000000E+00  0.54999999763E+01  0.55000000000E+01  0.51109989000E-03 0.  1.
     -623   -1    0    0    0    0  0.00000000000E+00  0.00000000000E+00  0.93234578044E-11  0.17124000000E+03  0.17124000000E+03 0. -1.
       11    1    1    2    0    0 -0.23655941827E-02  0.28055773724E-01  0.68932520962E+00  0.68990015822E+00  0.51109989000E-03 0.  1.
     -623    1    1    2    0    0 -0.76412026519E-02 -0.29925741543E-01  0.46740440520E-02  0.17124000285E+03  0.17124000000E+03 0. -1.
     -611    1    1    2    0    0 -0.45470688027E-01  0.47584437355E-01  0.62088709300E+00  0.62436600294E+00  0.51109989000E-03 0. -1.
      611    1    1    2    0    0  0.55477484862E-01 -0.45714469535E-01  0.41851136296E+01  0.41857309897E+01  0.51109989000E-03 0.  1.
</event>
<event>
 6   3  0.2312675E+03  0.9118800E+02  0.7818608E-02  0.1180000E+00
       11   -1    0    0    0    0  0.00000000000E+00  0.00000000000E+00  0.54999999763E+01  0.55000000000E+01  0.51109989000E-03 0.  1.
     -623   -1    0    0    0    0  0.00000000000E+00  0.00000000000E+00  0.93234578044E-11  0.17124000000E+03  0.17124000000E+03 0.  1.
       11    1    1    2    0    0  0.18877607980E-01  0.40618683572E-02  0.24802232928E+00  0.24877339067E+00  0.51109989000E-03 0.  1.
     -623    1    1    2    0    0 -0.50244916945E-02  0.20929989817E-02  0.23418997382E-02  0.17124000010E+03  0.17124000000E+03 0.  1.
     -611    1    1    2    0    0 -0.57118252246E-01  0.22867430566E-01  0.15453319764E+01  0.15465563658E+01  0.51109989000E-03 0. -1.
      611    1    1    2    0    0  0.43265135960E-01 -0.29022297904E-01  0.37043037709E+01  0.37046701410E+01  0.51109989000E-03 0.  1.
</event>
<event>
 6   3  0.2312675E+03  0.9118800E+02  0.7818608E-02  0.1180000E+00
       11   -1    0    0    0    0  0.00000000000E+00  0.00000000000E+00  0.54999999763E+01  0.55000000000E+01  0.51109989000E-03 0.  1.
     -623   -1    0    0    0    0  0.00000000000E+00  0.00000000000E+00  0.93234578044E-11  0.17124000000E+03  0.17124000000E+03 0.  1.
       11    1    1    2    0    0  0.12076961808E-01 -0.14431631530E-02  0.58957539439E-01  0.60201232597E-01  0.51109989000E-03 0.  1.
     -623    1    1    2    0    0 -0.67046189538E-02  0.18318970751E-01  0.24088531579E-02  0.17124000113E+03  0.17124000000E+03 0.  1.
     -611    1    1    2    0    0 -0.47875967344E-01 -0.16149823025E-01  0.44054628836E+01  0.44057526491E+01  0.51109989000E-03 0. -1.
      611    1    1    2    0    0  0.42503624489E-01 -0.72598457395E-03  0.10331707001E+01  0.10340449903E+01  0.51109989000E-03 0.  1.
</event>
<event>
 6   3  0.2312675E+03  0.9118800E+02  0.7818608E-02  0.1180000E+00
       11   -1    0    0    0    0  0.00000000000E+00  0.00000000000E+00  0.54999999763E+01  0.55000000000E+01  0.51109989000E-03 0.  1.
     -623   -1    0    0    0    0  0.00000000000E+00  0.00000000000E+00  0.93234578044E-11  0.17124000000E+03  0.17124000000E+03 0.  1.
       11    1    1    2    0    0 -0.49161826564E-02  0.52689485058E-02  0.40722291739E+00  0.40728699505E+00  0.51109989000E-03 0.  1.
     -623    1    1    2    0    0  0.60529205599E-03 -0.20835049817E-02  0.10582994011E-02  0.17124000002E+03  0.17124000000E+03 0.  1.
     -611    1    1    2    0    0 -0.40583361736E-01  0.18694707785E-01  0.32853948850E+01  0.32856987556E+01  0.51109989000E-03 0.  1.
      611    1    1    2    0    0  0.44894252337E-01 -0.21880151309E-01  0.18063238746E+01  0.18070142324E+01  0.51109989000E-03 0. -1.
</event>
<event>
 6   3  0.2312675E+03  0.9118800E+02  0.7818608E-02  0.1180000E+00
       11   -1    0    0    0    0  0.00000000000E+00  0.00000000000E+00  0.54999999763E+01  0.55000000000E+01  0.51109989000E-03 0. -1.
     -623   -1    0    0    0    0  0.00000000000E+00  0.00000000000E+00  0.93234578044E-11  0.17124000000E+03  0.17124000000E+03 0.  1.
       11    1    1    2    0    0  0.16414350924E-01 -0.24982531748E-02  0.65322491561E+00  0.65343609005E+00  0.51109989000E-03 0. -1.
     -623    1    1    2    0    0  0.36829464764E-01  0.27842769405E-01  0.64899356570E-03  0.17124000623E+03  0.17124000000E+03 0.  1.
     -611    1    1    2    0    0 -0.27013459424E-01  0.12341622581E-02  0.22643830322E+01  0.22645445519E+01  0.51109989000E-03 0. -1.
      611    1    1    2    0    0 -0.26230356262E-01 -0.26578678487E-01  0.25817430346E+01  0.25820131324E+01  0.51109989000E-03 0.  1.
</event>
<event>
 6   3  0.2312675E+03  0.9118800E+02  0.7818608E-02  0.1180000E+00
       11   -1    0    0    0    0  0.00000000000E+00  0.00000000000E+00  0.54999999763E+01  0.55000000000E+01  0.51109989000E-03 0. -1.
     -623   -1    0    0    0    0  0.00000000000E+00  0.00000000000E+00  0.93234578044E-11  0.17124000000E+03  0.17124000000E+03 0. -1.
       11    1    1    2    0    0 -0.77906589443E-01  0.91444144187E-01  0.85360378609E+00  0.86201574988E+00  0.51109989000E-03 0. -1.
     -623    1    1    2    0    0 -0.23845622715E-02 -0.29121352776E-01  0.14964349423E-01  0.17124000315E+03  0.17124000000E+03 0. -1.
     -611    1    1    2    0    0 -0.50788058675E-01  0.46595838147E-01  0.88761643079E+00  0.89028859842E+00  0.51109989000E-03 0.  1.
      611    1    1    2    0    0  0.13107921039E+00 -0.10891862956E+00  0.37438154100E+01  0.37476925050E+01  0.51109989000E-03 0. -1.
</event>
<event>
 6   3  0.2312675E+03  0.9118800E+02  0.7818608E-02  0.1180000E+00
       11   -1    0    0    0    0  0.00000000000E+00  0.00000000000E+00  0.54999999763E+01  0.55000000000E+01  0.51109989000E-03 0. -1.
     -623   -1    0    0    0    0  0.00000000000E+00  0.00000000000E+00  0.93234578044E-11  0.17124000000E+03  0.17124000000E+03 0.  1.
       11    1    1    2    0    0  0.36042609439E-01  0.15348629059E-01  0.87898122817E+00  0.87985391447E+00  0.51109989000E-03 0. -1.
     -623    1    1    2    0    0  0.17184780830E-01 -0.12679280190E-01  0.11841287256E-02  0.17124000134E+03  0.17124000000E+03 0.  1.
     -611    1    1    2    0    0 -0.27828750658E-01 -0.34141354671E-02  0.25448420233E+01  0.25449965187E+01  0.51109989000E-03 0. -1.
      611    1    1    2    0    0 -0.25398639607E-01  0.74478659797E-03  0.20749925957E+01  0.20751482306E+01  0.51109989000E-03 0.  1.
</event>
<event>
 6   3  0.2312675E+03  0.9118800E+02  0.7818608E-02  0.1180000E+00
       11   -1    0    0    0    0  0.00000000000E+00  0.00000000000E+00  0.54999999763E+01  0.55000000000E+01  0.51109989000E-03 0. -1.
     -623   -1    0    0    0    0  0.00000000000E+00  0.00000000000E+00  0.93234578044E-11  0.17124000000E+03  0.17124000000E+03 0. -1.
       11    1    1    2    0    0 -0.34686199488E-01  0.42762905537E-01  0.29223405273E+00  0.29737653123E+00  0.51109989000E-03 0. -1.
     -623    1    1    2    0    0  0.20751764934E-01  0.15941401877E-01  0.63375461852E-02  0.17124000212E+03  0.17124000000E+03 0. -1.
     -611    1    1    2    0    0 -0.30811117412E-01 -0.44044787180E-01  0.16378376873E+01  0.16387195671E+01  0.51109989000E-03 0.  1.
      611    1    1    2    0    0  0.44745551966E-01 -0.14659520234E-01  0.35635906900E+01  0.35639017850E+01  0.51109989000E-03 0. -1.
</event>
<event>
 6   3  0.2312675E+03  0.9118800E+02  0.7818608E-02  0.1180000E+00
       11   -1    0    0    0    0  0.00000000000E+00  0.00000000000E+00  0.54999999763E+01  0.55000000000E+01  0.51109989000E-03 0.  1.
     -623   -1    0    0    0    0  0.00000000000E+00  0.00000000000E+00  0.93234578044E-11  0.17124000000E+03  0.17124000000E+03 0. -1.
       11    1    1    2    0    0 -0.88299614620E-02  0.44511985364E-01  0.48956768955E+00  0.49166662377E+00  0.51109989000E-03 0.  1.
     -623    1    1    2    0    0 -0.56512492336E-01 -0.65618845919E-02  0.26786129671E-02  0.17124000947E+03  0.17124000000E+03 0. -1.
     -611    1    1    2    0    0  0.15589132737E-01 -0.92652486597E-02  0.12054165928E+01  0.12055531052E+01  0.51109989000E-03 0.  1.
      611    1    1    2    0    0  0.49753321192E-01 -0.28684852188E-01  0.38023370910E+01  0.38027708093E+01  0.51109989000E-03 0.  1.
</event>
<event>
 6   3  0.2312675E+03  0.9118800E+02  0.7818608E-02  0.1180000E+00
       11   -1    0    0    0    0  0.00000000000E+00  0.00000000000E+00  0.54999999763E+01  0.55000000000E+01  0.51109989000E-03 0. -1.
     -623   -1    0    0    0    0  0.00000000000E+00  0.00000000000E+00  0.93234578044E-11  0.17124000000E+03  0.17124000000E+03 0. -1.
       11    1    1    2    0    0  0.30887415418E-01 -0.74380419542E-02  0.41826914428E+00  0.41947430813E+00  0.51109989000E-03 0. -1.
     -623    1    1    2    0    0 -0.40425896146E-02  0.21751109291E-03  0.40580896653E-02  0.17124000010E+03  0.17124000000E+03 0. -1.
     -611    1    1    2    0    0 -0.87272427653E-01  0.39844048429E-01  0.35711312575E+01  0.35724197324E+01  0.51109989000E-03 0.  1.
      611    1    1    2    0    0  0.60427601850E-01 -0.32623517568E-01  0.15065414848E+01  0.15081058635E+01  0.51109989000E-03 0. -1.
</event>
<event>
 6   3  0.2312675E+03  0.9118800E+02  0.7818608E-02  0.1180000E+00
       11   -1    0    0    0    0  0.00000000000E+00  0.00000000000E+00  0.54999999763E+01  0.55000000000E+01  0.51109989000E-03 0.  1.
     -623   -1    0    0    0    0  0.00000000000E+00  0.00000000000E+00  0.93234578044E-11  0.17124000000E+03  0.17124000000E+03 0. -1.
       11    1    1    2    0    0 -0.48930309947E-02  0.19432847246E-01  0.77936624108E+00  0.77962399672E+00  0.51109989000E-03 0.  1.
     -623    1    1    2    0    0  0.78618052600E-01 -0.55939917048E-01  0.10161540990E-02  0.17124002719E+03  0.17124000000E+03 0. -1.
     -611    1    1    2    0    0 -0.44524702142E-01  0.25527284853E-01  0.31922543058E+01  0.31926668954E+01  0.51109989000E-03 0.  1.
      611    1    1    2    0    0 -0.29200319469E-01  0.10979784953E-01  0.15273632757E+01  0.15276819210E+01  0.51109989000E-03 0. -1.
</event>
<event>
 6   3  0.2312675E+03  0.9118800E+02  0.7818608E-02  0.1180000E+00
       11   -1    0    0    0    0  0.00000000000E+00  0.00000000000E+00  0.54999999763E+01  0.55000000000E+01  0.51109989000E-03 0.  1.
     -623   -1    0    0    0    0  0.00000000000E+00  0.00000000000E+00  0.93234578044E-11  0.17124000000E+03  0.17124000000E+03 0. -1.
       11    1    1    2    0    0  0.78663892402E-01  0.10344252293E-01  0.71541102183E+00  0.71979733460E+00  0.51109989000E-03 0.  1.
     -623    1    1    2    0    0  0.45130906358E-02  0.37561381467E-02  0.51348478864E-02  0.17124000018E+03  0.17124000000E+03 0. -1.
     -611    1    1    2    0    0 -0.60758364389E-01 -0.98185235680E-02  0.33333003437E+01  0.33338685374E+01  0.51109989000E-03 0.  1.
      611    1    1    2    0    0 -0.22418618651E-01 -0.42818668720E-02  0.14461537630E+01  0.14463339505E+01  0.51109989000E-03 0. -1.
</event>
<event>
 6   3  0.2312675E+03  0.9118800E+02  0.7818608E-02  0.1180000E+00
       11   -1    0    0    0    0  0.00000000000E+00  0.00000000000E+00  0.54999999763E+01  0.55000000000E+01  0.51109989000E-03 0. -1.
     -623   -1    0    0    0    0  0.00000000000E+00  0.00000000000E+00  0.93234578044E-11  0.17124000000E+03  0.17124000000E+03 0. -1.
       11    1    1    2    0    0 -0.81484423607E-01  0.52653550969E-01  0.60461066738E+00  0.61234502370E+00  0.51109989000E-03 0. -1.
     -623    1    1    2    0    0  0.28576984392E-01 -0.75840981189E-02  0.82347660873E-02  0.17124000275E+03  0.17124000000E+03 0. -1.
     -611    1    1    2    0    0  0.24959625377E-01 -0.22540861899E-01  0.21743607514E+01  0.21746208892E+01  0.51109989000E-03 0.  1.
      611    1    1    2    0    0  0.27947813834E-01 -0.22528590948E-01  0.27127937911E+01  0.27130313363E+01  0.51109989000E-03 0. -1.
</event>
<event>
 6   3  0.2312675E+03  0.9118800E+02  0.7818608E-02  0.1180000E+00
       11   -1    0    0    0    0  0.00000000000E+00  0.00000000000E+00  0.54999999763E+01  0.55000000000E+01  0.51109989000E-03 0. -1.
     -623   -1    0    0    0    0  0.00000000000E+00  0.00000000000E+00  0.93234578044E-11  0.17124000000E+03  0.17124000000E+03 0.  1.
       11    1    1    2    0    0 -0.54448520127E-01  0.24316321584E-01  0.52663075814E+00  0.52999635987E+00  0.51109989000E-03 0. -1.
     -623    1    1    2    0    0 -0.10617008682E-01 -0.10544637628E-01  0.38417179803E-02  0.17124000070E+03  0.17124000000E+03 0.  1.
     -611    1    1    2    0    0  0.35932289182E-01 -0.14256756174E-01  0.32299680946E+01  0.32301994579E+01  0.51109989000E-03 0. -1.
      611    1    1    2    0    0  0.29133239628E-01  0.48507221826E-03  0.17395594056E+01  0.17398034854E+01  0.51109989000E-03 0.  1.
</event>
<event>
 6   3  0.2312675E+03  0.9118800E+02  0.7818608E-02  0.1180000E+00
       11   -1    0    0    0    0  0.00000000000E+00  0.00000000000E+00  0.54999999763E+01  0.55000000000E+01  0.51109989000E-03 0.  1.
     -623   -1    0    0    0    0  0.00000000000E+00  0.00000000000E+00  0.93234578044E-11  0.17124000000E+03  0.17124000000E+03 0.  1.
       11    1    1    2    0    0  0.82069852473E-01  0.60657568976E-01  0.50811360596E+00  0.51826103379E+00  0.51109989000E-03 0.  1.
     -623    1    1    2    0    0 -0.13876754325E-01  0.82631508989E-02  0.11092373100E-01  0.17124000112E+03  0.17124000000E+03 0.  1.
     -611    1    1    2    0    0 -0.29288289077E-01 -0.28942777354E-01  0.20924751983E+01  0.20928803609E+01  0.51109989000E-03 0.  1.
      611    1    1    2    0    0 -0.38904809150E-01 -0.39977942602E-01  0.28883188048E+01  0.28888574903E+01  0.51109989000E-03 0.  1.
</event>
<event>
 6   3  0.2312675E+03  0.9118800E+02  0.7818608E-02  0.1180000E+00
       11   -1    0    0    0    0  0.00000000000E+00  0.00000000000E+00  0.54999999763E+01  0.55000000000E+01  0.51109989000E-03 0. -1.
     -623   -1    0    0    0    0  0.00000000000E+00  0.00000000000E+00  0.93234578044E-11  0.17124000000E+03  0.17124000000E+03 0.  1.
       11    1    1    2    0    0 -0.39180482072E-01  0.56726331771E-03  0.66752941210E+00  0.66867870401E+00  0.51109989000E-03 0. -1.
     -623    1    1    2    0    0 -0.35027092158E-02 -0.33066648606E-01  0.58457988983E-02  0.17124000333E+03  0.17124000000E+03 0.  1.
     -611    1    1    2    0    0 -0.51630277931E-01  0.56623651490E-01  0.36070482502E+01  0.36078621459E+01  0.51109989000E-03 0. -1.
      611    1    1    2    0    0  0.94313469219E-01 -0.24124266201E-01  0.12195765151E+01  0.12234558218E+01  0.51109989000E-03 0.  1.
</event>
<event>
 6   3  0.2312675E+03  0.9118800E+02  0.7818608E-02  0.1180000E+00
       11   -1    0    0    0    0  0.00000000000E+00  0.00000000000E+00  0.54999999763E+01  0.55000000000E+01  0.51109989000E-03 0.  1.
     -623   -1    0    0    0    0  0.00000000000E+00  0.00000000000E+00  0.93234578044E-11  0.17124000000E+03  0.17124000000E+03 0. -1.
       11    1    1    2    0    0 -0.31883104081E-01  0.63190081811E-01  0.96432649652E+00  0.96692056131E+00  0.51109989000E-03 0.  1.
     -623    1    1    2    0    0  0.12688199234E-01  0.22719211090E-01  0.48271476488E-02  0.17124000205E+03  0.17124000000E+03 0. -1.
     -611    1    1    2    0    0  0.47815022970E-01 -0.57440103829E-01  0.39999773395E+01  0.40006755204E+01  0.51109989000E-03 0.  1.
      611    1    1    2    0    0 -0.28620118123E-01 -0.28469189072E-01  0.53086899262E+00  0.53240187306E+00  0.51109989000E-03 0. -1.
</event>
<event>
 6   3  0.2312675E+03  0.9118800E+02  0.7818608E-02  0.1180000E+00
       11   -1    0    0    0    0  0.00000000000E+00  0.00000000000E+00  0.54999999763E+01  0.55000000000E+01  0.51109989000E-03 0. -1.
     -623   -1    0    0    0    0  0.00000000000E+00  0.00000000000E+00  0.93234578044E-11  0.17124000000E+03  0.17124000000E+03 0. -1.
       11    1    1    2    0    0  0.24705383491E-01 -0.23005327216E-01  0.83323858039E-01  0.89903990987E-01  0.51109989000E-03 0. -1.
     -623    1    1    2    0    0 -0.39147326364E-01  0.10003524381E-01  0.11270022215E-01  0.17124000514E+03  0.17124000000E+03 0. -1.
     -611    1    1    2    0    0  0.11526553448E+00 -0.23400039696E-02  0.35624839743E+01  0.35643490215E+01  0.51109989000E-03 0. -1.
      611    1    1    2    0    0 -0.10082359160E+00  0.15341806805E-01  0.18429221217E+01  0.18457418497E+01  0.51109989000E-03 0.  1.
</event>
<event>
 6   3  0.2312675E+03  0.9118800E+02  0.7818608E-02  0.1180000E+00
       11   -1    0    0    0    0  0.00000000000E+00  0.00000000000E+00  0.54999999763E+01  0.55000000000E+01  0.51109989000E-03 0.  1.
     -623   -1    0    0    0    0  0.00000000000E+00  0.00000000000E+00  0.93234578044E-11  0.17124000000E+03  0.17124000000E+03 0. -1.
       11    1    1    2    0    0  0.47920436196E-01 -0.29463260156E-01  0.87020848820E+00  0.87202495724E+00  0.51109989000E-03 0.  1.
     -623    1    1    2    0    0 -0.24453527315E-03 -0.95721190042E-02  0.22271174662E-02  0.17124000028E+03  0.17124000000E+03 0. -1.
     -611    1    1    2    0    0 -0.28530349257E-01  0.23589765337E-01  0.28034417959E+01  0.28036862560E+01  0.51109989000E-03 0.  1.
      611    1    1    2    0    0 -0.19145551686E-01  0.15445613840E-01  0.18241225767E+01  0.18242885066E+01  0.51109989000E-03 0.  1.
</event>
<event>
 6   3  0.2312675E+03  0.9118800E+02  0.7818608E-02  0.1180000E+00
       11   -1    0    0    0    0  0.00000000000E+00  0.00000000000E+00  0.54999999763E+01  0.55000000000E+01  0.51109989000E-03 0.  1.
     -623   -1    0    0    0    0  0.00000000000E+00  0.00000000000E+00  0.93234578044E-11  0.17124000000E+03  0.17124000000E+03 0. -1.
       11    1    1    2    0    0 -0.18425101799E-02  0.19545834350E-01  0.10667476860E+01  0.10669284518E+01  0.51109989000E-03 0.  1.
     -623    1    1    2    0    0  0.13728483238E-02 -0.81910265595E-02  0.50519048130E-03  0.17124000020E+03  0.17124000000E+03 0. -1.
     -611    1    1    2    0    0  0.26326399498E-01 -0.79401505978E-02  0.23459533207E+01  0.23461145261E+01  0.51109989000E-03 0.  1.
      611    1    1    2    0    0 -0.25856737642E-01 -0.34146571924E-02  0.20867937791E+01  0.20869568200E+01  0.51109989000E-03 0. -1.
</event>
<event>
 6   3  0.2312675E+03  0.9118800E+02  0.7818608E-02  0.1180000E+00
       11   -1    0    0    0    0  0.00000000000E+00  0.00000000000E+00  0.54999999763E+01  0.55000000000E+01  0.51109989000E-03 0.  1.
     -623   -1    0    0    0    0  0.00000000000E+00  0.00000000000E+00  0.93234578044E-11  0.17124000000E+03  0.17124000000E+03 0.  1.
       11    1    1    2    0    0 -0.25663670223E-01 -0.18577440433E-01  0.10993626092E+01  0.10998191455E+01  0.51109989000E-03 0.  1.
     -623    1    1    2    0    0 -0.38127707288E-01 -0.19739129977E-01  0.10915145175E-02  0.17124000539E+03  0.17124000000E+03 0.  1.
     -611    1    1    2    0    0  0.95348544438E-02  0.55317400600E-02  0.66946581931E+00  0.66955676237E+00  0.51109989000E-03 0.  1.
      611    1    1    2    0    0  0.54256523084E-01  0.32784830361E-01  0.37300800345E+01  0.37306187074E+01  0.51109989000E-03 0.  1.
</event>
<event>
 6   3  0.2312675E+03  0.9118800E+02  0.7818608E-02  0.1180000E+00
       11   -1    0    0    0    0  0.00000000000E+00  0.00000000000E+00  0.54999999763E+01  0.55000000000E+01  0.51109989000E-03 0. -1.
     -623   -1    0    0    0    0  0.00000000000E+00  0.00000000000E+00  0.93234578044E-11  0.17124000000E+03  0.17124000000E+03 0. -1.
       11    1    1    2    0    0  0.57242914784E-01  0.34827523625E-01  0.53797616740E+00  0.54213312536E+00  0.51109989000E-03 0. -1.
     -623    1    1    2    0    0  0.11770580994E-01 -0.20549650410E-02  0.49324339456E-02  0.17124000049E+03  0.17124000000E+03 0. -1.
     -611    1    1    2    0    0 -0.57675367426E-01 -0.43010495031E-01  0.42591482319E+01  0.42597558936E+01  0.51109989000E-03 0. -1.
      611    1    1    2    0    0 -0.11338128351E-01  0.10237936448E-01  0.69794314302E+00  0.69811049312E+00  0.51109989000E-03 0.  1.
</event>
<event>
 6   3  0.2312675E+03  0.9118800E+02  0.7818608E-02  0.1180000E+00
       11   -1    0    0    0    0  0.00000000000E+00  0.00000000000E+00  0.54999999763E+01  0.55000000000E+01  0.51109989000E-03 0.  1.
     -623   -1    0    0    0    0  0.00000000000E+00  0.00000000000E+00  0.93234578044E-11  0.17124000000E+03  0.17124000000E+03 0.  1.
       11    1    1    2    0    0  0.95230749907E-02 -0.22461986250E-02  0.15685464474E+00  0.15716034858E+00  0.51109989000E-03 0.  1.
     -623    1    1    2    0    0  0.66884768395E-03 -0.30853319939E-02  0.18112380061E-02  0.17124000004E+03  0.17124000000E+03 0.  1.
     -611    1    1    2    0    0  0.45925733434E-01  0.39139305773E-01  0.28916578352E+01  0.28922873916E+01  0.51109989000E-03 0. -1.
      611    1    1    2    0    0 -0.56117656108E-01 -0.33807775154E-01  0.24496762582E+01  0.24505522211E+01  0.51109989000E-03 0.  1.
</event>
<event>
 6   3  0.2312675E+03  0.9118800E+02  0.7818608E-02  0.1180000E+00
       11   -1    0    0    0    0  0.00000000000E+00  0.00000000000E+00  0.54999999763E+01  0.55000000000E+01  0.51109989000E-03 0.  1.
     -623   -1    0    0    0    0  0.00000000000E+00  0.00000000000E+00  0.93234578044E-11  0.17124000000E+03  0.17124000000E+03 0. -1.
       11    1    1    2    0    0 -0.12955300332E-01 -0.28978943584E-01  0.57939921940E+00  0.58026833072E+00  0.51109989000E-03 0.  1.
     -623    1    1    2    0    0  0.17756149107E-01  0.75631840629E-03  0.29988435121E-02  0.17124000095E+03  0.17124000000E+03 0. -1.
     -611    1    1    2    0    0  0.42782993664E-01 -0.40996685416E-01  0.23857178097E+01  0.23864536119E+01  0.51109989000E-03 0. -1.
      611    1    1    2    0    0 -0.47583842440E-01  0.69219310594E-01  0.25318841036E+01  0.25332771089E+01  0.51109989000E-03 0.  1.
</event>
<event>
 6   3  0.2312675E+03  0.9118800E+02  0.7818608E-02  0.1180000E+00
       11   -1    0    0    0    0  0.00000000000E+00  0.00000000000E+00  0.54999999763E+01  0.55000000000E+01  0.51109989000E-03 0. -1.
     -623   -1    0    0    0    0  0.00000000000E+00  0.00000000000E+00  0.93234578044E-11  0.17124000000E+03  0.17124000000E+03 0. -1.
       11    1    1    2    0    0  0.12211333382E-02 -0.27520173388E-04  0.73745348521E-02  0.74924569650E-02  0.51109989000E-03 0. -1.
     -623    1    1    2    0    0  0.74672796115E-03 -0.91726536870E-03  0.63685065363E-03  0.17124000001E+03  0.17124000000E+03 0. -1.
     -611    1    1    2    0    0 -0.35911637001E-01  0.13213805249E-01  0.32980500537E+01  0.32982720731E+01  0.51109989000E-03 0.  1.
      611    1    1    2    0    0  0.33943775702E-01 -0.12269019707E-01  0.21939385374E+01  0.21942354650E+01  0.51109989000E-03 0. -1.
</event>
<event>
 6   3  0.2312675E+03  0.9118800E+02  0.7818608E-02  0.1180000E+00
       11   -1    0    0    0    0  0.00000000000E+00  0.00000000000E+00  0.54999999763E+01  0.55000000000E+01  0.51109989000E-03 0. -1.
     -623   -1    0    0    0    0  0.00000000000E+00  0.00000000000E+00  0.93234578044E-11  0.17124000000E+03  0.17124000000E+03 0. -1.
       11    1    1    2    0    0 -0.21978805836E-01  0.63153441179E-02  0.94918871000E+00  0.94946428047E+00  0.51109989000E-03 0. -1.
     -623    1    1    2    0    0  0.79051123507E-01 -0.44137894212E-01  0.81539043512E-03  0.17124002394E+03  0.17124000000E+03 0. -1.
     -611    1    1    2    0    0 -0.19837541448E-01  0.11803393369E-01  0.15125679587E+01  0.15127441750E+01  0.51109989000E-03 0.  1.
      611    1    1    2    0    0 -0.37234776198E-01  0.26019156710E-01  0.30374279154E+01  0.30377676059E+01  0.51109989000E-03 0. -1.
</event>
<event>
 6   3  0.2312675E+03  0.9118800E+02  0.7818608E-02  0.1180000E+00
       11   -1    0    0    0    0  0.00000000000E+00  0.00000000000E+00  0.54999999763E+01  0.55000000000E+01  0.51109989000E-03 0. -1.
     -623   -1    0    0    0    0  0.00000000000E+00  0.00000000000E+00  0.93234578044E-11  0.17124000000E+03  0.17124000000E+03 0. -1.
       11    1    1    2    0    0 -0.15862483088E+00 -0.99166655202E-01  0.10256943054E+01  0.10426144695E+01  0.51109989000E-03 0. -1.
     -623    1    1    2    0    0 -0.33412574657E-01  0.32056819986E-01  0.21684977131E-01  0.17124000763E+03  0.17124000000E+03 0. -1.
     -611    1    1    2    0    0  0.12421132818E+00  0.29141131154E-01  0.29237769476E+01  0.29265593382E+01  0.51109989000E-03 0.  1.
      611    1    1    2    0    0  0.67826077361E-01  0.37968704062E-01  0.15288437461E+01  0.15308185590E+01  0.51109989000E-03 0. -1.
</event>
<event>
 6   3  0.2312675E+03  0.9118800E+02  0.7818608E-02  0.1180000E+00
       11   -1    0    0    0    0  0.00000000000E+00  0.00000000000E+00  0.54999999763E+01  0.55000000000E+01  0.51109989000E-03 0.  1.
     -623   -1    0    0    0    0  0.00000000000E+00  0.00000000000E+00  0.93234578044E-11  0.17124000000E+03  0.17124000000E+03 0. -1.
       11    1    1    2    0    0  0.75747237507E-03 -0.21707782599E-03  0.80146632835E-02  0.80695066656E-02  0.51109989000E-03 0.  1.
     -623    1    1    2    0    0 -0.52413318603E-02  0.29456191960E-02  0.13085653714E-02  0.17124000011E+03  0.17124000000E+03 0. -1.
     -611    1    1    2    0    0 -0.43519247032E-01  0.27450444048E-01  0.36957339891E+01  0.36960921838E+01  0.51109989000E-03 0.  1.
      611    1    1    2    0    0  0.48003106517E-01 -0.30178985418E-01  0.17949427586E+01  0.17958381991E+01  0.51109989000E-03 0. -1.
</event>
<event>
 6   3  0.2312675E+03  0.9118800E+02  0.7818608E-02  0.1180000E+00
       11   -1    0    0    0    0  0.00000000000E+00  0.00000000000E+00  0.54999999763E+01  0.55000000000E+01  0.51109989000E-03 0. -1.
     -623   -1    0    0    0    0  0.00000000000E+00  0.00000000000E+00  0.93234578044E-11  0.17124000000E+03  0.17124000000E+03 0.  1.
       11    1    1    2    0    0  0.60674557459E-02 -0.15118402574E-01  0.10210540131E+01  0.10211840867E+01  0.51109989000E-03 0.  1.
     -623    1    1    2    0    0 -0.67522707417E-01  0.39886252027E-01  0.63899388617E-03  0.17124001796E+03  0.17124000000E+03 0.  1.
     -611    1    1    2    0    0  0.17006068922E-01 -0.58523296052E-02  0.12573553896E+01  0.12574841124E+01  0.51109989000E-03 0.  1.
      611    1    1    2    0    0  0.44449182760E-01 -0.18915519852E-01  0.32209515805E+01  0.32213138425E+01  0.51109989000E-03 0. -1.
</event>
<event>
 6   3  0.2312675E+03  0.9118800E+02  0.7818608E-02  0.1180000E+00
       11   -1    0    0    0    0  0.00000000000E+00  0.00000000000E+00  0.54999999763E+01  0.55000000000E+01  0.51109989000E-03 0.  1.
     -623   -1    0    0    0    0  0.00000000000E+00  0.00000000000E+00  0.93234578044E-11  0.17124000000E+03  0.17124000000E+03 0. -1.
       11    1    1    2    0    0  0.10286272971E+00  0.58317562072E-01  0.83120229833E+00  0.83957084346E+00  0.51109989000E-03 0.  1.
     -623    1    1    2    0    0 -0.14510632374E-01  0.41950001616E-01  0.10292652709E-01  0.17124000606E+03  0.17124000000E+03 0. -1.
     -611    1    1    2    0    0 -0.37113924270E-01 -0.43881722682E-01  0.19542523437E+01  0.19550973206E+01  0.51109989000E-03 0.  1.
      611    1    1    2    0    0 -0.51238173064E-01 -0.56385841002E-01  0.27042526813E+01  0.27053257732E+01  0.51109989000E-03 0. -1.
</event>
<event>
 6   3  0.2312675E+03  0.9118800E+02  0.7818608E-02  0.1180000E+00
       11   -1    0    0    0    0  0.00000000000E+00  0.00000000000E+00  0.54999999763E+01  0.55000000000E+01  0.51109989000E-03 0.  1.
     -623   -1    0    0    0    0  0.00000000000E+00  0.00000000000E+00  0.93234578044E-11  0.17124000000E+03  0.17124000000E+03 0. -1.
       11    1    1    2    0    0 -0.12649839284E-01 -0.61998272913E-02  0.10804513814E+01  0.10805433379E+01  0.51109989000E-03 0.  1.
     -623    1    1    2    0    0  0.63597172274E-01  0.34548138337E-01  0.49216032411E-03  0.17124001530E+03  0.17124000000E+03 0. -1.
     -611    1    1    2    0    0 -0.27219227594E-01 -0.15884392274E-01  0.24062281601E+01  0.24064345867E+01  0.51109989000E-03 0. -1.
      611    1    1    2    0    0 -0.23728107277E-01 -0.12463919793E-01  0.20128284372E+01  0.20130069426E+01  0.51109989000E-03 0. -1.
</event>
<event>
 6   3  0.2312675E+03  0.9118800E+02  0.7818608E-02  0.1180000E+00
       11   -1    0    0    0    0  0.00000000000E+00  0.00000000000E+00  0.54999999763E+01  0.55000000000E+01  0.51109989000E-03 0.  1.
     -623   -1    0    0    0    0  0.00000000000E+00  0.00000000000E+00  0.93234578044E-11  0.17124000000E+03  0.17124000000E+03 0.  1.
       11    1    1    2    0    0  0.13036836235E-01 -0.41667852610E-02  0.90053854870E+00  0.90064269281E+00  0.51109989000E-03 0.  1.
     -623    1    1    2    0    0  0.38278203036E-01  0.66972032441E-01  0.83740882946E-03  0.17124001738E+03  0.17124000000E+03 0.  1.
     -611    1    1    2    0    0 -0.84123621319E-02 -0.10653802660E-01  0.72413078107E+00  0.72425818646E+00  0.51109989000E-03 0. -1.
      611    1    1    2    0    0 -0.42902677136E-01 -0.52151444519E-01  0.38744932376E+01  0.38750817439E+01  0.51109989000E-03 0.  1.
</event>
<event>
 6   3  0.2312675E+03  0.9118800E+02  0.7818608E-02  0.1180000E+00
       11   -1    0    0    0    0  0.00000000000E+00  0.00000000000E+00  0.54999999763E+01  0.55000000000E+01  0.51109989000E-03 0. -1.
     -623   -1    0    0    0    0  0.00000000000E+00  0.00000000000E+00  0.93234578044E-11  0.17124000000E+03  0.17124000000E+03 0. -1.
       11    1    1    2    0    0  0.31468084019E-01 -0.22595568330E-02  0.77762158926E+00  0.77826148769E+00  0.51109989000E-03 0. -1.
     -623    1    1    2    0    0  0.20262059550E-01 -0.19364348556E-01  0.98406878774E-03  0.17124000230E+03  0.17124000000E+03 0. -1.
     -611    1    1    2    0    0 -0.36154199935E-01  0.12744435485E-01  0.35049240452E+01  0.35051337165E+01  0.51109989000E-03 0. -1.
      611    1    1    2    0    0 -0.15575943634E-01  0.88794699035E-02  0.12164702730E+01  0.12166024993E+01  0.51109989000E-03 0.  1.
</event>
<event>
 6   3  0.2312675E+03  0.9118800E+02  0.7818608E-02  0.1180000E+00
       11   -1    0    0    0    0  0.00000000000E+00  0.00000000000E+00  0.54999999763E+01  0.55000000000E+01  0.51109989000E-03 0. -1.
     -623   -1    0    0    0    0  0.00000000000E+00  0.00000000000E+00  0.93234578044E-11  0.17124000000E+03  0.17124000000E+03 0.  1.
       11    1    1    2    0    0  0.82906498740E-02 -0.38714087341E-01  0.52589666350E+00  0.52738513189E+00  0.51109989000E-03 0. -1.
     -623    1    1    2    0    0 -0.67682976977E-01  0.61767535520E-01  0.19212508770E-02  0.17124002453E+03  0.17124000000E+03 0.  1.
     -611    1    1    2    0    0  0.36549290507E-01 -0.13941623777E-01  0.30481506576E+01  0.30484016980E+01  0.51109989000E-03 0. -1.
      611    1    1    2    0    0  0.22843036521E-01 -0.91118243728E-02  0.19240313980E+01  0.19241886372E+01  0.51109989000E-03 0. -1.
</event>
<event>
 6   3  0.2312675E+03  0.9118800E+02  0.7818608E-02  0.1180000E+00
       11   -1    0    0    0    0  0.00000000000E+00  0.00000000000E+00  0.54999999763E+01  0.55000000000E+01  0.51109989000E-03 0.  1.
     -623   -1    0    0    0    0  0.00000000000E+00  0.00000000000E+00  0.93234578044E-11  0.17124000000E+03  0.17124000000E+03 0. -1.
       11    1    1    2    0    0  0.50308467428E-01 -0.26500136654E-01  0.10055278791E+01  0.10071344379E+01  0.51109989000E-03 0.  1.
     -623    1    1    2    0    0  0.13820442392E-02  0.10826859692E-01  0.19330560999E-02  0.17124000036E+03  0.17124000000E+03 0. -1.
     -611    1    1    2    0    0 -0.15974008637E-01  0.64810140433E-02  0.14618999193E+01  0.14620016442E+01  0.51109989000E-03 0. -1.
      611    1    1    2    0    0 -0.35716503018E-01  0.91922629153E-02  0.30306391207E+01  0.30308635580E+01  0.51109989000E-03 0.  1.
</event>
<event>
 6   3  0.2312675E+03  0.9118800E+02  0.7818608E-02  0.1180000E+00
       11   -1    0    0    0    0  0.00000000000E+00  0.00000000000E+00  0.54999999763E+01  0.55000000000E+01  0.51109989000E-03 0. -1.
     -623   -1    0    0    0    0  0.00000000000E+00  0.00000000000E+00  0.93234578044E-11  0.17124000000E+03  0.17124000000E+03 0.  1.
       11    1    1    2    0    0  0.19298581433E-02  0.12389558322E-02 -0.53143770597E-03  0.24089444037E-02  0.51109989000E-03 0. -1.
     -623    1    1    2    0    0 -0.10823198242E-01  0.33695651001E-02  0.94599745911E-02  0.17124000064E+03  0.17124000000E+03 0.  1.
     -611    1    1    2    0    0 -0.36837435703E-01  0.11944025010E+00  0.19143053309E+01  0.19183816438E+01  0.51109989000E-03 0. -1.
      611    1    1    2    0    0  0.45730775802E-01 -0.12404877103E+00  0.35767661085E+01  0.35792087754E+01  0.51109989000E-03 0.  1.
</event>
<event>
 6   3  0.2312675E+03  0.9118800E+02  0.7818608E-02  0.1180000E+00
       11   -1    0    0    0    0  0.00000000000E+00  0.00000000000E+00  0.54999999763E+01  0.55000000000E+01  0.51109989000E-03 0.  1.
     -623   -1    0    0    0    0  0.00000000000E+00  0.00000000000E+00  0.93234578044E-11  0.17124000000E+03  0.17124000000E+03 0.  1.
       11    1    1    2    0    0  0.53530620819E-02  0.21565516268E-01  0.39660411616E-01  0.45463570451E-01  0.51109989000E-03 0.  1.
     -623    1    1    2    0    0  0.10013401543E-02 -0.59038072503E-02  0.65712676611E-02  0.17124000023E+03  0.17124000000E+03 0.  1.
     -611    1    1    2    0    0  0.37273305801E-01 -0.24718590805E-01  0.21327434830E+01  0.21332124445E+01  0.51109989000E-03 0. -1.
      611    1    1    2    0    0 -0.43627708037E-01  0.90568817873E-02  0.33210248140E+01  0.33213237542E+01  0.51109989000E-03 0.  1.
</event>
<event>
 6   3  0.2312675E+03  0.9118800E+02  0.7818608E-02  0.1180000E+00
       11   -1    0    0    0    0  0.00000000000E+00  0.00000000000E+00  0.54999999763E+01  0.55000000000E+01  0.51109989000E-03 0. -1.
     -623   -1    0    0    0    0  0.00000000000E+00  0.00000000000E+00  0.93234578044E-11  0.17124000000E+03  0.17124000000E+03 0.  1.
       11    1    1    2    0    0  0.11263654511E-01 -0.16435851591E-01  0.19551403359E-01  0.27919987945E-01  0.51109989000E-03 0. -1.
     -623    1    1    2    0    0 -0.74393661369E-02  0.68624520697E-02  0.90252088670E-02  0.17124000054E+03  0.17124000000E+03 0.  1.
     -611    1    1    2    0    0 -0.39347003778E-01 -0.34026605556E-02  0.39042550364E+01  0.39044548167E+01  0.51109989000E-03 0. -1.
      611    1    1    2    0    0  0.35522715404E-01  0.12976060077E-01  0.15671683276E+01  0.15676246584E+01  0.51109989000E-03 0.  1.
</event>
<event>
 6   3  0.2312675E+03  0.9118800E+02  0.7818608E-02  0.1180000E+00
       11   -1    0    0    0    0  0.00000000000E+00  0.00000000000E+00  0.54999999763E+01  0.55000000000E+01  0.51109989000E-03 0.  1.
     -623   -1    0    0    0    0  0.00000000000E+00  0.00000000000E+00  0.93234578044E-11  0.17124000000E+03  0.17124000000E+03 0. -1.
       11    1    1    2    0    0  0.93323950772E-01 -0.17599648667E-01  0.66881134073E+00  0.67552052384E+00  0.51109989000E-03 0.  1.
     -623    1    1    2    0    0 -0.30928313110E-01 -0.69011001170E-03  0.71506030992E-02  0.17124000294E+03  0.17124000000E+03 0. -1.
     -611    1    1    2    0    0 -0.31681831398E-01  0.10036504747E-01  0.24709968174E+01  0.24712203469E+01  0.51109989000E-03 0.  1.
      611    1    1    2    0    0 -0.30713806222E-01  0.82532539200E-02  0.23530412118E+01  0.23532561824E+01  0.51109989000E-03 0.  1.
</event>
<event>
 6   3  0.2312675E+03  0.9118800E+02  0.7818608E-02  0.1180000E+00
       11   -1    0    0    0    0  0.00000000000E+00  0.00000000000E+00  0.54999999763E+01  0.55000000000E+01  0.51109989000E-03 0. -1.
     -623   -1    0    0    0    0  0.00000000000E+00  0.00000000000E+00  0.93234578044E-11  0.17124000000E+03  0.17124000000E+03 0.  1.
       11    1    1    2    0    0 -0.87164364437E-03  0.10241519561E-02  0.21211086145E+00  0.21211574062E+00  0.51109989000E-03 0. -1.
     -623    1    1    2    0    0  0.63107082629E-01  0.32733948975E-01  0.49400792232E-03  0.17124001476E+03  0.17124000000E+03 0.  1.
     -611    1    1    2    0    0 -0.33262905464E-01 -0.17547198610E-01  0.27531767253E+01  0.27534336141E+01  0.51109989000E-03 0.  1.
      611    1    1    2    0    0 -0.28972533550E-01 -0.16210902337E-01  0.25342183841E+01  0.25344358900E+01  0.51109989000E-03 0. -1.
</event>
<event>
 6   3  0.2312675E+03  0.9118800E+02  0.7818608E-02  0.1180000E+00
       11   -1    0    0    0    0  0.00000000000E+00  0.00000000000E+00  0.54999999763E+01  0.55000000000E+01  0.51109989000E-03 0. -1.
     -623   -1    0    0    0    0  0.00000000000E+00  0.00000000000E+00  0.93234578044E-11  0.17124000000E+03  0.17124000000E+03 0.  1.
       11    1    1    2    0    0  0.20705261472E-01 -0.25356730003E-01  0.10283780347E+00  0.10792380023E+00  0.51109989000E-03 0. -1.
     -623    1    1    2    0    0  0.52270406015E-01  0.17850880331E-02  0.56689389593E-02  0.17124000808E+03  0.17124000000E+03 0.  1.
     -611    1    1    2    0    0 -0.37555975666E-01  0.28052427307E-02  0.26223066212E+01  0.26225770908E+01  0.51109989000E-03 0. -1.
      611    1    1    2    0    0 -0.35419691822E-01  0.20766399239E-01  0.27691866127E+01  0.27694910281E+01  0.51109989000E-03 0.  1.
</event>
<event>
 6   3  0.2312675E+03  0.9118800E+02  0.7818608E-02  0.1180000E+00
       11   -1    0    0    0    0  0.00000000000E+00  0.00000000000E+00  0.54999999763E+01  0.55000000000E+01  0.51109989000E-03 0. -1.
     -623   -1    0    0    0    0  0.00000000000E+00  0.00000000000E+00  0.93234578044E-11  0.17124000000E+03  0.17124000000E+03 0. -1.
       11    1    1    2    0    0 -0.42419274014E-01  0.49346769314E-01  0.85862744541E+00  0.86108991963E+00  0.51109989000E-03 0. -1.
     -623    1    1    2    0    0  0.18318939234E-01 -0.37726315946E-02  0.36148495279E-02  0.17124000106E+03  0.17124000000E+03 0. -1.
     -611    1    1    2    0    0  0.52642630204E-01 -0.38527011610E-02  0.23399613106E+01  0.23405566189E+01  0.51109989000E-03 0.  1.
      611    1    1    2    0    0 -0.28542295424E-01 -0.41721436559E-01  0.22977963708E+01  0.22983524020E+01  0.51109989000E-03 0. -1.
</event>
<event>
 6   3  0.2312675E+03  0.9118800E+02  0.7818608E-02  0.1180000E+00
       11   -1    0    0    0    0  0.00000000000E+00  0.00000000000E+00  0.54999999763E+01  0.55000000000E+01  0.51109989000E-03 0. -1.
     -623   -1    0    0    0    0  0.00000000000E+00  0.00000000000E+00  0.93234578044E-11  0.17124000000E+03  0.17124000000E+03 0. -1.
       11    1    1    2    0    0  0.12296250537E+00  0.40644428703E-01  0.83030968873E+00  0.84034884883E+00  0.51109989000E-03 0. -1.
     -623    1    1    2    0    0  0.22202638483E-01 -0.34990891036E-01  0.15306279426E-01  0.17124000570E+03  0.17124000000E+03 0. -1.
     -611    1    1    2    0    0 -0.16519068588E+00  0.38392243036E-01  0.39217598760E+01  0.39254251634E+01  0.51109989000E-03 0. -1.
      611    1    1    2    0    0  0.20025542032E-01 -0.44045780703E-01  0.73262413208E+00  0.73422028933E+00  0.51109989000E-03 0.  1.
</event>
<event>
 6   3  0.2312675E+03  0.9118800E+02  0.7818608E-02  0.1180000E+00
       11   -1    0    0    0    0  0.00000000000E+00  0.00000000000E+00  0.54999999763E+01  0.55000000000E+01  0.51109989000E-03 0.  1.
     -623   -1    0    0    0    0  0.00000000000E+00  0.00000000000E+00  0.93234578044E-11  0.17124000000E+03  0.17124000000E+03 0. -1.
       11    1    1    2    0    0  0.59581958418E-02  0.72783379007E-02  0.69211951124E-01  0.69850051552E-01  0.51109989000E-03 0.  1.
     -623    1    1    2    0    0 -0.73780527479E-02  0.10415701436E-01  0.13360293657E-02  0.17124000048E+03  0.17124000000E+03 0. -1.
     -611    1    1    2    0    0 -0.37307710432E-01 -0.26537162946E-01  0.23969544938E+01  0.23973917479E+01  0.51109989000E-03 0.  1.
      611    1    1    2    0    0  0.38727567338E-01  0.88431236095E-02  0.30324975019E+01  0.30327577195E+01  0.51109989000E-03 0. -1.
</event>
<event>
 6   3  0.2312675E+03  0.9118800E+02  0.7818608E-02  0.1180000E+00
       11   -1    0    0    0    0  0.00000000000E+00  0.00000000000E+00  0.54999999763E+01  0.55000000000E+01  0.51109989000E-03 0.  1.
     -623   -1    0    0    0    0  0.00000000000E+00  0.00000000000E+00  0.93234578044E-11  0.17124000000E+03  0.17124000000E+03 0. -1.
       11    1    1    2    0    0  0.29251666428E-02  0.95945366068E-02  0.10409936561E+00  0.10458274655E+00  0.51109989000E-03 0.  1.
     -623    1    1    2    0    0  0.29885275418E-02 -0.90019481867E-03  0.94413302330E-03  0.17124000003E+03  0.17124000000E+03 0. -1.
     -611    1    1    2    0    0 -0.37471490796E-01 -0.60926238614E-03  0.25805898755E+01  0.25808620363E+01  0.51109989000E-03 0. -1.
      611    1    1    2    0    0  0.31557796611E-01 -0.80850794020E-02  0.28143666021E+01  0.28145551861E+01  0.51109989000E-03 0.  1.
</event>
<event>
 6   3  0.2312675E+03  0.9118800E+02  0.7818608E-02  0.1180000E+00
       11   -1    0    0    0    0  0.00000000000E+00  0.00000000000E+00  0.54999999763E+01  0.55000000000E+01  0.51109989000E-03 0.  1.
     -623   -1    0    0    0    0  0.00000000000E+00  0.00000000000E+00  0.93234578044E-11  0.17124000000E+03  0.17124000000E+03 0. -1.
       11    1    1    2    0    0  0.37886380099E-01 -0.26537408453E-01  0.46313705662E+00  0.46544151758E+00  0.51109989000E-03 0.  1.
     -623    1    1    2    0    0  0.24906378923E-01  0.24094576047E-01  0.27615373161E-02  0.17124000353E+03  0.17124000000E+03 0. -1.
     -611    1    1    2    0    0 -0.28096124818E-01 -0.98163347479E-02  0.26901819041E+01  0.26903465745E+01  0.51109989000E-03 0. -1.
      611    1    1    2    0    0 -0.34696634204E-01  0.12259167154E-01  0.23439194782E+01  0.23442083792E+01  0.51109989000E-03 0.  1.
</event>
<event>
 6   3  0.2312675E+03  0.9118800E+02  0.7818608E-02  0.1180000E+00
       11   -1    0    0    0    0  0.00000000000E+00  0.00000000000E+00  0.54999999763E+01  0.55000000000E+01  0.51109989000E-03 0. -1.
     -623   -1    0    0    0    0  0.00000000000E+00  0.00000000000E+00  0.93234578044E-11  0.17124000000E+03  0.17124000000E+03 0.  1.
       11    1    1    2    0    0 -0.12128481960E-02 -0.40980938074E-02  0.98947605368E-01  0.99041179339E-01  0.51109989000E-03 0. -1.
     -623    1    1    2    0    0 -0.88374955641E-01  0.19075829213E-01  0.88145486809E-03  0.17124002387E+03  0.17124000000E+03 0.  1.
     -611    1    1    2    0    0  0.71885874089E-01 -0.11801967426E-01  0.43203556770E+01  0.43209698335E+01  0.51109989000E-03 0. -1.
      611    1    1    2    0    0  0.17701929636E-01 -0.31757679605E-02  0.10798152322E+01  0.10799651109E+01  0.51109989000E-03 0. -1.
</event>
<event>
 6   3  0.2312675E+03  0.9118800E+02  0.7818608E-02  0.1180000E+00
       11   -1    0    0    0    0  0.00000000000E+00  0.00000000000E+00  0.54999999763E+01  0.55000000000E+01  0.51109989000E-03 0.  1.
     -623   -1    0    0    0    0  0.00000000000E+00  0.00000000000E+00  0.93234578044E-11  0.17124000000E+03  0.17124000000E+03 0.  1.
       11    1    1    2    0    0 -0.31168211912E-01  0.21072867945E-01  0.59038568523E+00  0.59158350361E+00  0.51109989000E-03 0.  1.
     -623    1    1    2    0    0 -0.18005487728E-01  0.76174087819E-02  0.15292150645E-02  0.17124000112E+03  0.17124000000E+03 0.  1.
     -611    1    1    2    0    0  0.32903580555E-01 -0.19213431183E-01  0.32853325243E+01  0.32855535086E+01  0.51109989000E-03 0.  1.
      611    1    1    2    0    0  0.16270119140E-01 -0.94768455759E-02  0.16227525571E+01  0.16228618703E+01  0.51109989000E-03 0.  1.
</event>
<event>
 6   3  0.2312675E+03  0.9118800E+02  0.7818608E-02  0.1180000E+00
       11   -1    0    0    0    0  0.00000000000E+00  0.00000000000E+00  0.54999999763E+01  0.55000000000E+01  0.51109989000E-03 0. -1.
     -623   -1    0    0    0    0  0.00000000000E+00  0.00000000000E+00  0.93234578044E-11  0.17124000000E+03  0.17124000000E+03 0. -1.
       11    1    1    2    0    0  0.69018029384E-01  0.57184093629E-01  0.31892272358E+00  0.33127854410E+00  0.51109989000E-03 0. -1.
     -623    1    1    2    0    0  0.43027514891E-01 -0.21358695896E-01  0.13721702198E-01  0.17124000729E+03  0.17124000000E+03 0. -1.
     -611    1    1    2    0    0 -0.45619883370E-01 -0.16573075505E-01  0.18416703751E+01  0.18423099284E+01  0.51109989000E-03 0. -1.
      611    1    1    2    0    0 -0.66425660906E-01 -0.19252322228E-01  0.33256851754E+01  0.33264042399E+01  0.51109989000E-03 0.  1.
</event>
<event>
 6   3  0.2312675E+03  0.9118800E+02  0.7818608E-02  0.1180000E+00
       11   -1    0    0    0    0  0.00000000000E+00  0.00000000000E+00  0.54999999763E+01  0.55000000000E+01  0.51109989000E-03 0. -1.
     -623   -1    0    0    0    0  0.00000000000E+00  0.00000000000E+00  0.93234578044E-11  0.17124000000E+03  0.17124000000E+03 0. -1.
       11    1    1    2    0    0  0.40534492559E-02  0.19187827250E-01  0.58903221317E+00  0.58935881476E+00  0.51109989000E-03 0. -1.
     -623    1    1    2    0    0 -0.68721718633E-01  0.11031561354E-01  0.87684665372E-03  0.17124001415E+03  0.17124000000E+03 0. -1.
     -611    1    1    2    0    0  0.18063707479E-01 -0.12046938725E-01  0.11696445097E+01  0.11698461294E+01  0.51109989000E-03 0.  1.
      611    1    1    2    0    0  0.46604561904E-01 -0.18172449881E-01  0.37404464073E+01  0.37407809091E+01  0.51109989000E-03 0. -1.
</event>
<event>
 6   3  0.2312675E+03  0.9118800E+02  0.7818608E-02  0.1180000E+00
       11   -1    0    0    0    0  0.00000000000E+00  0.00000000000E+00  0.54999999763E+01  0.55000000000E+01  0.51109989000E-03 0. -1.
     -623   -1    0    0    0    0  0.00000000000E+00  0.00000000000E+00  0.93234578044E-11  0.17124000000E+03  0.17124000000E+03 0. -1.
       11    1    1    2    0    0  0.10425342368E-01 -0.11742528217E-01  0.35375989208E+00  0.35410859520E+00  0.51109989000E-03 0. -1.
     -623    1    1    2    0    0  0.37028193816E-02 -0.14106146372E-01  0.38968447336E-02  0.17124000067E+03  0.17124000000E+03 0. -1.
     -611    1    1    2    0    0  0.71324005953E-01 -0.40443313443E-01  0.19741323562E+01  0.19758344052E+01  0.51109989000E-03 0.  1.
      611    1    1    2    0    0 -0.85452167703E-01  0.66291988032E-01  0.31682108832E+01  0.31700563343E+01  0.51109989000E-03 0. -1.
</event>
<event>
 6   3  0.2312675E+03  0.9118800E+02  0.7818608E-02  0.1180000E+00
       11   -1    0    0    0    0  0.00000000000E+00  0.00000000000E+00  0.54999999763E+01  0.55000000000E+01  0.51109989000E-03 0. -1.
     -623   -1    0    0    0    0  0.00000000000E+00  0.00000000000E+00  0.93234578044E-11  0.17124000000E+03  0.17124000000E+03 0. -1.
       11    1    1    2    0    0  0.17794297612E-03  0.35441540593E-02  0.42268310183E-01  0.42420089115E-01  0.51109989000E-03 0. -1.
     -623    1    1    2    0    0 -0.54372154512E-03 -0.78750937408E-03  0.87116100701E-03  0.17124000000E+03  0.17124000000E+03 0. -1.
     -611    1    1    2    0    0 -0.29566772406E-01  0.31423703654E-01  0.25945556947E+01  0.25949144798E+01  0.51109989000E-03 0.  1.
      611    1    1    2    0    0  0.29932550975E-01 -0.34180348339E-01  0.28623048103E+01  0.28626654262E+01  0.51109989000E-03 0. -1.
</event>
<event>
 6   3  0.2312675E+03  0.9118800E+02  0.7818608E-02  0.1180000E+00
       11   -1    0    0    0    0  0.00000000000E+00  0.00000000000E+00  0.54999999763E+01  0.55000000000E+01  0.51109989000E-03 0.  1.
     -623   -1    0    0    0    0  0.00000000000E+00  0.00000000000E+00  0.93234578044E-11  0.17124000000E+03  0.17124000000E+03 0. -1.
       11    1    1    2    0    0 -0.20281189895E-02 -0.27476983672E-02  0.28525762463E+00  0.28527852486E+00  0.51109989000E-03 0.  1.
     -623    1    1    2    0    0 -0.65529307619E-01  0.11906726519E-01  0.47990686241E-03  0.17124001295E+03  0.17124000000E+03 0. -1.
     -611    1    1    2    0    0  0.28976450463E-01 -0.37473675528E-02  0.21690141892E+01  0.21692110298E+01  0.51109989000E-03 0.  1.
      611    1    1    2    0    0  0.38580976137E-01 -0.54116605969E-02  0.30452482547E+01  0.30454974916E+01  0.51109989000E-03 0. -1.
</event>
<event>
 6   3  0.2312675E+03  0.9118800E+02  0.7818608E-02  0.1180000E+00
       11   -1    0    0    0    0  0.00000000000E+00  0.00000000000E+00  0.54999999763E+01  0.55000000000E+01  0.51109989000E-03 0.  1.
     -623   -1    0    0    0    0  0.00000000000E+00  0.00000000000E+00  0.93234578044E-11  0.17124000000E+03  0.17124000000E+03 0. -1.
       11    1    1    2    0    0  0.66733778061E-01 -0.32723473834E-01  0.53555474141E+00  0.54068786295E+00  0.51109989000E-03 0.  1.
     -623    1    1    2    0    0 -0.40993640325E-03 -0.17780884391E-02  0.57247839974E-02  0.17124000011E+03  0.17124000000E+03 0. -1.
     -611    1    1    2    0    0 -0.44439289544E-01  0.20587479224E-01  0.37014883285E+01  0.37018123672E+01  0.51109989000E-03 0. -1.
      611    1    1    2    0    0 -0.21884552113E-01  0.13914083048E-01  0.12572321223E+01  0.12574996643E+01  0.51109989000E-03 0.  1.
</event>
<event>
 6   3  0.2312675E+03  0.9118800E+02  0.7818608E-02  0.1180000E+00
       11   -1    0    0    0    0  0.00000000000E+00  0.00000000000E+00  0.54999999763E+01  0.55000000000E+01  0.51109989000E-03 0. -1.
     -623   -1    0    0    0    0  0.00000000000E+00  0.00000000000E+00  0.93234578044E-11  0.17124000000E+03  0.17124000000E+03 0. -1.
       11    1    1    2    0    0  0.22436297955E-01 -0.42416382395E-01  0.10069118052E+01  0.10080546521E+01  0.51109989000E-03 0. -1.
     -623    1    1    2    0    0 -0.25881095558E-01  0.58144035898E-02  0.24954945131E-02  0.17124000207E+03  0.17124000000E+03 0. -1.
     -611    1    1    2    0    0  0.40010221874E-01 -0.14249116709E-01  0.25130613279E+01  0.25134202503E+01  0.51109989000E-03 0. -1.
      611    1    1    2    0    0 -0.36565424272E-01  0.50851095514E-01  0.19775313486E+01  0.19785230249E+01  0.51109989000E-03 0.  1.
</event>
<event>
 6   3  0.2312675E+03  0.9118800E+02  0.7818608E-02  0.1180000E+00
       11   -1    0    0    0    0  0.00000000000E+00  0.00000000000E+00  0.54999999763E+01  0.55000000000E+01  0.51109989000E-03 0. -1.
     -623   -1    0    0    0    0  0.00000000000E+00  0.00000000000E+00  0.93234578044E-11  0.17124000000E+03  0.17124000000E+03 0. -1.
       11    1    1    2    0    0 -0.46794122327E-01  0.13257900502E-01  0.10579126870E+01  0.10590302056E+01  0.51109989000E-03 0. -1.
     -623    1    1    2    0    0  0.13253932783E-01 -0.11853242341E-01  0.20686464431E-02  0.17124000094E+03  0.17124000000E+03 0. -1.
     -611    1    1    2    0    0  0.60227544264E-01  0.10955997388E-01  0.33180107759E+01  0.33185754717E+01  0.51109989000E-03 0. -1.
      611    1    1    2    0    0 -0.26687354719E-01 -0.12360655548E-01  0.11220078669E+01  0.11223933871E+01  0.51109989000E-03 0.  1.
</event>
<event>
 6   3  0.2312675E+03  0.9118800E+02  0.7818608E-02  0.1180000E+00
       11   -1    0    0    0    0  0.00000000000E+00  0.00000000000E+00  0.54999999763E+01  0.55000000000E+01  0.51109989000E-03 0. -1.
     -623   -1    0    0    0    0  0.00000000000E+00  0.00000000000E+00  0.93234578044E-11  0.17124000000E+03  0.17124000000E+03 0.  1.
       11    1    1    2    0    0  0.10083390263E-01  0.20033952923E-01  0.77097487225E+00  0.77130120504E+00  0.51109989000E-03 0. -1.
     -623    1    1    2    0    0 -0.78428086119E-02 -0.13719562899E-01  0.24038694127E-02  0.17124000075E+03  0.17124000000E+03 0.  1.
     -611    1    1    2    0    0  0.68166073507E-01  0.64443374870E-02  0.24027404359E+01  0.24037158747E+01  0.51109989000E-03 0. -1.
      611    1    1    2    0    0 -0.70406655158E-01 -0.12758727511E-01  0.23238807987E+01  0.23249821742E+01  0.51109989000E-03 0.  1.
</event>
<event>
 6   3  0.2312675E+03  0.9118800E+02  0.7818608E-02  0.1180000E+00
       11   -1    0    0    0    0  0.00000000000E+00  0.00000000000E+00  0.54999999763E+01  0.55000000000E+01  0.51109989000E-03 0.  1.
     -623   -1    0    0    0    0  0.00000000000E+00  0.00000000000E+00  0.93234578044E-11  0.17124000000E+03  0.17124000000E+03 0. -1.
       11    1    1    2    0    0 -0.34400831462E-03  0.48612043150E-02  0.12855333309E-01  0.13757560347E-01  0.51109989000E-03 0.  1.
     -623    1    1    2    0    0  0.12656458785E-01 -0.11522193206E-01  0.23980293979E-02  0.17124000087E+03  0.17124000000E+03 0. -1.
     -611    1    1    2    0    0  0.32093829102E-01  0.50996705579E-01  0.19279377126E+01  0.19288791467E+01  0.51109989000E-03 0. -1.
      611    1    1    2    0    0 -0.44406279572E-01 -0.44335716687E-01  0.35568089010E+01  0.35573624208E+01  0.51109989000E-03 0.  1.
</event>
<event>
 6   3  0.2312675E+03  0.9118800E+02  0.7818608E-02  0.1180000E+00
       11   -1    0    0    0    0  0.00000000000E+00  0.00000000000E+00  0.54999999763E+01  0.55000000000E+01  0.51109989000E-03 0. -1.
     -623   -1    0    0    0    0  0.00000000000E+00  0.00000000000E+00  0.93234578044E-11  0.17124000000E+03  0.17124000000E+03 0.  1.
       11    1    1    2    0    0  0.15363817044E-01  0.37873525499E-01  0.20207462691E+00  0.20616708484E+00  0.51109989000E-03 0. -1.
     -623    1    1    2    0    0 -0.20305841953E-01 -0.61531111744E-02  0.51035800446E-02  0.17124000139E+03  0.17124000000E+03 0.  1.
     -611    1    1    2    0    0 -0.43482089753E-01 -0.27232356704E-01  0.33903425472E+01  0.33907307681E+01  0.51109989000E-03 0.  1.
      611    1    1    2    0    0  0.48424114662E-01 -0.44880576211E-02  0.19024792221E+01  0.19031007565E+01  0.51109989000E-03 0. -1.
</event>
<event>
 6   3  0.2312675E+03  0.9118800E+02  0.7818608E-02  0.1180000E+00
       11   -1    0    0    0    0  0.00000000000E+00  0.00000000000E+00  0.54999999763E+01  0.55000000000E+01  0.51109989000E-03 0. -1.
     -623   -1    0    0    0    0  0.00000000000E+00  0.00000000000E+00  0.93234578044E-11  0.17124000000E+03  0.17124000000E+03 0.  1.
       11    1    1    2    0    0 -0.11255730635E-02 -0.77209409986E-03  0.40795747963E+00  0.40796008316E+00  0.51109989000E-03 0. -1.
     -623    1    1    2    0    0  0.62273691207E-01 -0.13470931478E-01  0.40182216654E-03  0.17124001185E+03  0.17124000000E+03 0.  1.
     -611    1    1    2    0    0 -0.42001225609E-01  0.92980543122E-02  0.34532219879E+01  0.34534899617E+01  0.51109989000E-03 0. -1.
      611    1    1    2    0    0 -0.19146892583E-01  0.49449712759E-02  0.16384186908E+01  0.16385381057E+01  0.51109989000E-03 0. -1.
</event>
<event>
 6   3  0.2312675E+03  0.9118800E+02  0.7818608E-02  0.1180000E+00
       11   -1    0    0    0    0  0.00000000000E+00  0.00000000000E+00  0.54999999763E+01  0.55000000000E+01  0.51109989000E-03 0.  1.
     -623   -1    0    0    0    0  0.00000000000E+00  0.00000000000E+00  0.93234578044E-11  0.17124000000E+03  0.17124000000E+03 0.  1.
       11    1    1    2    0    0 -0.26621792089E-02  0.21708144621E-01  0.54151243572E+00  0.54195415858E+00  0.51109989000E-03 0.  1.
     -623    1    1    2    0    0 -0.66541875358E-01 -0.83180909231E-01  0.13423948280E-02  0.17124003314E+03  0.17124000000E+03 0.  1.
     -611    1    1    2    0    0  0.10228274872E-01  0.11458246079E-01  0.88385968522E+00  0.88399327677E+00  0.51109989000E-03 0. -1.
      611    1    1    2    0    0  0.58975779701E-01  0.50014518538E-01  0.40732854610E+01  0.40740194283E+01  0.51109989000E-03 0.  1.
</event>
<event>
 6   3  0.2312675E+03  0.9118800E+02  0.7818608E-02  0.1180000E+00
       11   -1    0    0    0    0  0.00000000000E+00  0.00000000000E+00  0.54999999763E+01  0.55000000000E+01  0.51109989000E-03 0. -1.
     -623   -1    0    0    0    0  0.00000000000E+00  0.00000000000E+00  0.93234578044E-11  0.17124000000E+03  0.17124000000E+03 0. -1.
       11    1    1    2    0    0  0.22701495911E-02 -0.19279700056E-02  0.19400342470E-01  0.19634285283E-01  0.51109989000E-03 0. -1.
     -623    1    1    2    0    0 -0.11043394025E-02 -0.85823135631E-04  0.18042478387E-02  0.17124000001E+03  0.17124000000E+03 0. -1.
     -611    1    1    2    0    0  0.62225679960E-01  0.59807071350E-02  0.34796632753E+01  0.34802247879E+01  0.51109989000E-03 0. -1.
      611    1    1    2    0    0 -0.63391490149E-01 -0.39669139937E-02  0.19991321107E+01  0.20001409137E+01  0.51109989000E-03 0.  1.
</event>
<event>
 6   3  0.2312675E+03  0.9118800E+02  0.7818608E-02  0.1180000E+00
       11   -1    0    0    0    0  0.00000000000E+00  0.00000000000E+00  0.54999999763E+01  0.55000000000E+01  0.51109989000E-03 0. -1.
     -623   -1    0    0    0    0  0.00000000000E+00  0.00000000000E+00  0.93234578044E-11  0.17124000000E+03  0.17124000000E+03 0. -1.
       11    1    1    2    0    0  0.53560070994E-01 -0.45792550494E-02  0.10672612741E+01  0.10686143080E+01  0.51109989000E-03 0. -1.
     -623    1    1    2    0    0  0.10364845776E-01 -0.53766731994E-02  0.18259055361E-02  0.17124000041E+03  0.17124000000E+03 0. -1.
     -611    1    1    2    0    0 -0.51289498408E-01  0.79413325635E-02  0.35434323307E+01  0.35438124415E+01  0.51109989000E-03 0. -1.
      611    1    1    2    0    0 -0.12635418436E-01  0.20145956968E-02  0.88748047100E+00  0.88757284772E+00  0.51109989000E-03 0. -1.
</event>
<event>
 6   3  0.2312675E+03  0.9118800E+02  0.7818608E-02  0.1180000E+00
       11   -1    0    0    0    0  0.00000000000E+00  0.00000000000E+00  0.54999999763E+01  0.55000000000E+01  0.51109989000E-03 0.  1.
     -623   -1    0    0    0    0  0.00000000000E+00  0.00000000000E+00  0.93234578044E-11  0.17124000000E+03  0.17124000000E+03 0.  1.
       11    1    1    2    0    0  0.29004920336E-02 -0.38626120702E-01  0.39041706607E+00  0.39233421563E+00  0.51109989000E-03 0.  1.
     -623    1    1    2    0    0 -0.98275180845E-01 -0.10066029401E+00  0.47714796331E-02  0.17124005785E+03  0.17124000000E+03 0.  1.
     -611    1    1    2    0    0  0.17556178393E-01  0.29055636839E-01  0.95435037194E+00  0.95495410522E+00  0.51109989000E-03 0. -1.
      611    1    1    2    0    0  0.77818510421E-01  0.11023077788E+00  0.41504610588E+01  0.41526538269E+01  0.51109989000E-03 0.  1.
</event>
<event>
 6   3  0.2312675E+03  0.9118800E+02  0.7818608E-02  0.1180000E+00
       11   -1    0    0    0    0  0.00000000000E+00  0.00000000000E+00  0.54999999763E+01  0.55000000000E+01  0.51109989000E-03 0. -1.
     -623   -1    0    0    0    0  0.00000000000E+00  0.00000000000E+00  0.93234578044E-11  0.17124000000E+03  0.17124000000E+03 0. -1.
       11    1    1    2    0    0  0.16799187111E-01  0.10036980686E-01  0.60882031458E-01  0.63951830673E-01  0.51109989000E-03 0. -1.
     -623    1    1    2    0    0  0.27440723143E-02 -0.33275442214E-02  0.34804858615E-02  0.17124000009E+03  0.17124000000E+03 0. -1.
     -611    1    1    2    0    0  0.20685644256E-01 -0.15033220348E-01  0.19093105959E+01  0.19094818947E+01  0.51109989000E-03 0.  1.
      611    1    1    2    0    0 -0.40228903681E-01  0.83237838831E-02  0.35263268630E+01  0.35265661849E+01  0.51109989000E-03 0. -1.
</event>
<event>
 6   3  0.2312675E+03  0.9118800E+02  0.7818608E-02  0.1180000E+00
       11   -1    0    0    0    0  0.00000000000E+00  0.00000000000E+00  0.54999999763E+01  0.55000000000E+01  0.51109989000E-03 0. -1.
     -623   -1    0    0    0    0  0.00000000000E+00  0.00000000000E+00  0.93234578044E-11  0.17124000000E+03  0.17124000000E+03 0. -1.
       11    1    1    2    0    0 -0.44431794155E-01  0.24288137175E-01  0.58523739012E-01  0.77391131212E-01  0.51109989000E-03 0. -1.
     -623    1    1    2    0    0 -0.23129158137E-01  0.89057627744E-02  0.19393791033E-01  0.17124000289E+03  0.17124000000E+03 0. -1.
     -611    1    1    2    0    0  0.36054547284E-01 -0.15946753226E-01  0.28272835536E+01  0.28275584490E+01  0.51109989000E-03 0. -1.
      611    1    1    2    0    0  0.31506405020E-01 -0.17247146729E-01  0.25947988936E+01  0.25950475288E+01  0.51109989000E-03 0.  1.
</event>
<event>
 6   3  0.2312675E+03  0.9118800E+02  0.7818608E-02  0.1180000E+00
       11   -1    0    0    0    0  0.00000000000E+00  0.00000000000E+00  0.54999999763E+01  0.55000000000E+01  0.51109989000E-03 0. -1.
     -623   -1    0    0    0    0  0.00000000000E+00  0.00000000000E+00  0.93234578044E-11  0.17124000000E+03  0.17124000000E+03 0. -1.
       11    1    1    2    0    0  0.35059150571E-01  0.19914582795E-01  0.65756107057E+00  0.65879629432E+00  0.51109989000E-03 0. -1.
     -623    1    1    2    0    0  0.15006045987E-01  0.23377046771E-02  0.15465158055E-02  0.17124000068E+03  0.17124000000E+03 0. -1.
     -611    1    1    2    0    0 -0.40274876727E-01 -0.18531115829E-01  0.39639701399E+01  0.39642180817E+01  0.51109989000E-03 0. -1.
      611    1    1    2    0    0 -0.97903198506E-02 -0.37211716512E-02  0.87692225183E+00  0.87698494540E+00  0.51109989000E-03 0. -1.
</event>
<event>
 6   3  0.2312675E+03  0.9118800E+02  0.7818608E-02  0.1180000E+00
       11   -1    0    0    0    0  0.00000000000E+00  0.00000000000E+00  0.54999999763E+01  0.55000000000E+01  0.51109989000E-03 0.  1.
     -623   -1    0    0    0    0  0.00000000000E+00  0.00000000000E+00  0.93234578044E-11  0.17124000000E+03  0.17124000000E+03 0. -1.
       11    1    1    2    0    0 -0.87407660819E-02  0.16034654008E-01  0.93251705473E+00  0.93269600069E+00  0.51109989000E-03 0.  1.
     -623    1    1    2    0    0 -0.76579012206E-01  0.35757301397E-01  0.12966717071E-02  0.17124002086E+03  0.17124000000E+03 0. -1.
     -611    1    1    2    0    0  0.75398585255E-01 -0.43562077350E-01  0.39007739364E+01  0.39017457843E+01  0.51109989000E-03 0.  1.
      611    1    1    2    0    0  0.99211930303E-02 -0.82298780532E-02  0.66541231337E+00  0.66553735355E+00  0.51109989000E-03 0. -1.
</event>
<event>
 6   3  0.2312675E+03  0.9118800E+02  0.7818608E-02  0.1180000E+00
       11   -1    0    0    0    0  0.00000000000E+00  0.00000000000E+00  0.54999999763E+01  0.55000000000E+01  0.51109989000E-03 0. -1.
     -623   -1    0    0    0    0  0.00000000000E+00  0.00000000000E+00  0.93234578044E-11  0.17124000000E+03  0.17124000000E+03 0. -1.
       11    1    1    2    0    0 -0.18499117788E-01  0.34036891977E-01  0.21290688437E+00  0.21640316543E+00  0.51109989000E-03 0. -1.
     -623    1    1    2    0    0 -0.37509655226E-02 -0.13309264800E-01  0.58510029203E-02  0.17124000066E+03  0.17124000000E+03 0. -1.
     -611    1    1    2    0    0  0.63060029952E-01  0.26942993337E-01  0.41833363116E+01  0.41838983555E+01  0.51109989000E-03 0. -1.
      611    1    1    2    0    0 -0.40809946642E-01 -0.47670620513E-01  0.10979057773E+01  0.10996978207E+01  0.51109989000E-03 0.  1.
</event>
<event>
 6   3  0.2312675E+03  0.9118800E+02  0.7818608E-02  0.1180000E+00
       11   -1    0    0    0    0  0.00000000000E+00  0.00000000000E+00  0.54999999763E+01  0.55000000000E+01  0.51109989000E-03 0.  1.
     -623   -1    0    0    0    0  0.00000000000E+00  0.00000000000E+00  0.93234578044E-11  0.17124000000E+03  0.17124000000E+03 0.  1.
       11    1    1    2    0    0 -0.34641919101E-01  0.12481487447E-01  0.90364785517E+00  0.90439789776E+00  0.51109989000E-03 0.  1.
     -623    1    1    2    0    0 -0.18349265262E-01  0.24131716967E-01  0.12059948917E-02  0.17124000269E+03  0.17124000000E+03 0.  1.
     -611    1    1    2    0    0  0.41632133804E-01 -0.27279583218E-01  0.36264602769E+01  0.36268018710E+01  0.51109989000E-03 0.  1.
      611    1    1    2    0    0  0.11359050570E-01 -0.93336212040E-02  0.96868585036E+00  0.96879754460E+00  0.51109989000E-03 0.  1.
</event>
<event>
 6   3  0.2312675E+03  0.9118800E+02  0.7818608E-02  0.1180000E+00
       11   -1    0    0    0    0  0.00000000000E+00  0.00000000000E+00  0.54999999763E+01  0.55000000000E+01  0.51109989000E-03 0. -1.
     -623   -1    0    0    0    0  0.00000000000E+00  0.00000000000E+00  0.93234578044E-11  0.17124000000E+03  0.17124000000E+03 0. -1.
       11    1    1    2    0    0 -0.41101407257E-01  0.58234600634E-01  0.45781079994E+00  0.46332664952E+00  0.51109989000E-03 0. -1.
     -623    1    1    2    0    0  0.95533276242E-01 -0.11353656264E-01  0.60554189567E-02  0.17124002713E+03  0.17124000000E+03 0. -1.
     -611    1    1    2    0    0 -0.18963263208E-01 -0.16400436492E-01  0.17681045826E+01  0.17682824028E+01  0.51109989000E-03 0. -1.
      611    1    1    2    0    0 -0.35468605719E-01 -0.30480507828E-01  0.32680291693E+01  0.32683638103E+01  0.51109989000E-03 0. -1.
</event>
<event>
 6   3  0.2312675E+03  0.9118800E+02  0.7818608E-02  0.1180000E+00
       11   -1    0    0    0    0  0.00000000000E+00  0.00000000000E+00  0.54999999763E+01  0.55000000000E+01  0.51109989000E-03 0. -1.
     -623   -1    0    0    0    0  0.00000000000E+00  0.00000000000E+00  0.93234578044E-11  0.17124000000E+03  0.17124000000E+03 0.  1.
       11    1    1    2    0    0 -0.24072691296E-01  0.30733932095E-01  0.11792338699E+00  0.12421857941E+00  0.51109989000E-03 0. -1.
     -623    1    1    2    0    0  0.48298832412E-02  0.18805649595E-02  0.96480260207E-02  0.17124000035E+03  0.17124000000E+03 0.  1.
     -611    1    1    2    0    0 -0.73115355357E-01  0.11871589143E-01  0.13368689127E+01  0.13389195423E+01  0.51109989000E-03 0.  1.
      611    1    1    2    0    0  0.92358163412E-01 -0.44486086197E-01  0.40355596505E+01  0.40368615280E+01  0.51109989000E-03 0. -1.
</event>
<event>
 6   3  0.2312675E+03  0.9118800E+02  0.7818608E-02  0.1180000E+00
       11   -1    0    0    0    0  0.00000000000E+00  0.00000000000E+00  0.54999999763E+01  0.55000000000E+01  0.51109989000E-03 0.  1.
     -623   -1    0    0    0    0  0.00000000000E+00  0.00000000000E+00  0.93234578044E-11  0.17124000000E+03  0.17124000000E+03 0. -1.
       11    1    1    2    0    0 -0.32154024438E-03 -0.89101029055E-02  0.76825512936E+00  0.76830703389E+00  0.51109989000E-03 0.  1.
     -623    1    1    2    0    0 -0.21279724410E-02 -0.21066965319E-03  0.42207554648E-03  0.17124000001E+03  0.17124000000E+03 0. -1.
     -611    1    1    2    0    0 -0.27858575040E-01  0.14581663109E-02  0.22911973471E+01  0.22913672275E+01  0.51109989000E-03 0.  1.
      611    1    1    2    0    0  0.30308087726E-01  0.76626062478E-02  0.24401254242E+01  0.24403257248E+01  0.51109989000E-03 0. -1.
</event>
<event>
 6   3  0.2312675E+03  0.9118800E+02  0.7818608E-02  0.1180000E+00
       11   -1    0    0    0    0  0.00000000000E+00  0.00000000000E+00  0.54999999763E+01  0.55000000000E+01  0.51109989000E-03 0.  1.
     -623   -1    0    0    0    0  0.00000000000E+00  0.00000000000E+00  0.93234578044E-11  0.17124000000E+03  0.17124000000E+03 0. -1.
       11    1    1    2    0    0  0.21195303112E-01 -0.37656925768E-02  0.91722651014E+00  0.91747923870E+00  0.51109989000E-03 0.  1.
     -623    1    1    2    0    0 -0.71752904650E-02  0.20083063286E-02  0.67098214668E-03  0.17124000016E+03  0.17124000000E+03 0. -1.
     -611    1    1    2    0    0  0.23349328494E-01  0.30798466011E-02  0.13972225142E+01  0.13974210861E+01  0.51109989000E-03 0. -1.
      611    1    1    2    0    0 -0.37369341141E-01 -0.13224603529E-02  0.31848799697E+01  0.31850995116E+01  0.51109989000E-03 0.  1.
</event>
<event>
 6   3  0.2312675E+03  0.9118800E+02  0.7818608E-02  0.1180000E+00
       11   -1    0    0    0    0  0.00000000000E+00  0.00000000000E+00  0.54999999763E+01  0.55000000000E+01  0.51109989000E-03 0. -1.
     -623   -1    0    0    0    0  0.00000000000E+00  0.00000000000E+00  0.93234578044E-11  0.17124000000E+03  0.17124000000E+03 0.  1.
       11    1    1    2    0    0 -0.11786709969E-01  0.53090651918E-02  0.34097423308E-01  0.36469277542E-01  0.51109989000E-03 0. -1.
     -623    1    1    2    0    0  0.97891906837E-02 -0.16126805913E-01  0.10413387826E-01  0.17124000136E+03  0.17124000000E+03 0.  1.
     -611    1    1    2    0    0 -0.99538149809E-01 -0.79349913727E-01  0.14022680831E+01  0.14080341935E+01  0.51109989000E-03 0.  1.
      611    1    1    2    0    0  0.10153566909E+00  0.90167654449E-01  0.40532210820E+01  0.40554951731E+01  0.51109989000E-03 0. -1.
</event>
<event>
 6   3  0.2312675E+03  0.9118800E+02  0.7818608E-02  0.1180000E+00
       11   -1    0    0    0    0  0.00000000000E+00  0.00000000000E+00  0.54999999763E+01  0.55000000000E+01  0.51109989000E-03 0. -1.
     -623   -1    0    0    0    0  0.00000000000E+00  0.00000000000E+00  0.93234578044E-11  0.17124000000E+03  0.17124000000E+03 0.  1.
       11    1    1    2    0    0 -0.19209374365E-02 -0.10713073125E-02  0.24102607506E+00  0.24103665236E+00  0.51109989000E-03 0.  1.
     -623    1    1    2    0    0  0.58473230044E-01  0.28652629207E-01  0.39956334194E-03  0.17124001238E+03  0.17124000000E+03 0.  1.
     -611    1    1    2    0    0 -0.24146777659E-01 -0.11431096046E-01  0.21948678508E+01  0.21950304964E+01  0.51109989000E-03 0. -1.
      611    1    1    2    0    0 -0.32405515390E-01 -0.16150226065E-01  0.30637065287E+01  0.30639205118E+01  0.51109989000E-03 0. -1.
</event>
<event>
 6   3  0.2312675E+03  0.9118800E+02  0.7818608E-02  0.1180000E+00
       11   -1    0    0    0    0  0.00000000000E+00  0.00000000000E+00  0.54999999763E+01  0.55000000000E+01  0.51109989000E-03 0.  1.
     -623   -1    0    0    0    0  0.00000000000E+00  0.00000000000E+00  0.93234578044E-11  0.17124000000E+03  0.17124000000E+03 0.  1.
       11    1    1    2    0    0 -0.22031363068E-01 -0.28774349666E-01  0.22883301122E+00  0.23168546006E+00  0.51109989000E-03 0.  1.
     -623    1    1    2    0    0 -0.79611433042E-02  0.46645380978E-02  0.55673660067E-02  0.17124000034E+03  0.17124000000E+03 0.  1.
     -611    1    1    2    0    0 -0.63135152147E-01  0.28059107349E-01  0.15405549735E+01  0.15421035142E+01  0.51109989000E-03 0. -1.
      611    1    1    2    0    0  0.93127658519E-01 -0.39492957802E-02  0.37250446255E+01  0.37262106866E+01  0.51109989000E-03 0.  1.
</event>
<event>
 6   3  0.2312675E+03  0.9118800E+02  0.7818608E-02  0.1180000E+00
       11   -1    0    0    0    0  0.00000000000E+00  0.00000000000E+00  0.54999999763E+01  0.55000000000E+01  0.51109989000E-03 0.  1.
     -623   -1    0    0    0    0  0.00000000000E+00  0.00000000000E+00  0.93234578044E-11  0.17124000000E+03  0.17124000000E+03 0.  1.
       11    1    1    2    0    0  0.54380263635E-01 -0.40507805258E-01  0.77127234846E+00  0.77424762970E+00  0.51109989000E-03 0.  1.
     -623    1    1    2    0    0 -0.48189910684E-02  0.10025533019E-02  0.34021804157E-02  0.17124000010E+03  0.17124000000E+03 0.  1.
     -611    1    1    2    0    0 -0.38645874873E-01  0.32805211149E-01  0.37646493904E+01  0.37649907011E+01  0.51109989000E-03 0.  1.
      611    1    1    2    0    0 -0.10915397690E-01  0.67000408044E-02  0.96067605655E+00  0.96076156423E+00  0.51109989000E-03 0. -1.
</event>
<event>
 6   3  0.2312675E+03  0.9118800E+02  0.7818608E-02  0.1180000E+00
       11   -1    0    0    0    0  0.00000000000E+00  0.00000000000E+00  0.54999999763E+01  0.55000000000E+01  0.51109989000E-03 0. -1.
     -623   -1    0    0    0    0  0.00000000000E+00  0.00000000000E+00  0.93234578044E-11  0.17124000000E+03  0.17124000000E+03 0.  1.
       11    1    1    2    0    0 -0.75184867710E-01 -0.72605654029E-02  0.43215123329E+00  0.43870312262E+00  0.51109989000E-03 0. -1.
     -623    1    1    2    0    0  0.22750321257E-02  0.71496962172E-02  0.70779649530E-02  0.17124000031E+03  0.17124000000E+03 0.  1.
     -611    1    1    2    0    0  0.64851192856E-01  0.48933299732E-03  0.45300150136E+01  0.45304792463E+01  0.51109989000E-03 0. -1.
      611    1    1    2    0    0  0.80586427048E-02 -0.37846381166E-03  0.53075576276E+00  0.53081731875E+00  0.51109989000E-03 0. -1.
</event>
<event>
 6   3  0.2312675E+03  0.9118800E+02  0.7818608E-02  0.1180000E+00
       11   -1    0    0    0    0  0.00000000000E+00  0.00000000000E+00  0.54999999763E+01  0.55000000000E+01  0.51109989000E-03 0.  1.
     -623   -1    0    0    0    0  0.00000000000E+00  0.00000000000E+00  0.93234578044E-11  0.17124000000E+03  0.17124000000E+03 0.  1.
       11    1    1    2    0    0 -0.10732746088E-01 -0.18376170738E-01  0.95287434493E+00  0.95311208886E+00  0.51109989000E-03 0.  1.
     -623    1    1    2    0    0  0.13328600979E+00  0.29861793373E-01  0.23199973704E-02  0.17124005449E+03  0.17124000000E+03 0.  1.
     -611    1    1    2    0    0 -0.77711742545E-01 -0.34882197233E-01  0.28187791778E+01  0.28200659916E+01  0.51109989000E-03 0.  1.
      611    1    1    2    0    0 -0.44841521167E-01  0.23396574597E-01  0.17260264565E+01  0.17267674283E+01  0.51109989000E-03 0. -1.
</event>
<event>
 6   3  0.2312675E+03  0.9118800E+02  0.7818608E-02  0.1180000E+00
       11   -1    0    0    0    0  0.00000000000E+00  0.00000000000E+00  0.54999999763E+01  0.55000000000E+01  0.51109989000E-03 0.  1.
     -623   -1    0    0    0    0  0.00000000000E+00  0.00000000000E+00  0.93234578044E-11  0.17124000000E+03  0.17124000000E+03 0. -1.
       11    1    1    2    0    0 -0.11735679990E-01 -0.25674093339E-01  0.52880421197E+00  0.52955740112E+00  0.51109989000E-03 0.  1.
     -623    1    1    2    0    0  0.89685479872E-02  0.26322438984E-01  0.12802770517E-02  0.17124000226E+03  0.17124000000E+03 0. -1.
     -611    1    1    2    0    0 -0.28247748634E-01 -0.20879239735E-01  0.23130760922E+01  0.23133428513E+01  0.51109989000E-03 0.  1.
      611    1    1    2    0    0  0.31014880637E-01  0.20230894089E-01  0.26568393951E+01  0.26570974849E+01  0.51109989000E-03 0. -1.
</event>
<event>
 6   3  0.2312675E+03  0.9118800E+02  0.7818608E-02  0.1180000E+00
       11   -1    0    0    0    0  0.00000000000E+00  0.00000000000E+00  0.54999999763E+01  0.55000000000E+01  0.51109989000E-03 0.  1.
     -623   -1    0    0    0    0  0.00000000000E+00  0.00000000000E+00  0.93234578044E-11  0.17124000000E+03  0.17124000000E+03 0. -1.
       11    1    1    2    0    0 -0.58897474001E-01  0.34423471010E-01  0.59155558767E+00  0.59547641627E+00  0.51109989000E-03 0.  1.
     -623    1    1    2    0    0  0.72934691183E-02  0.17726701066E-01  0.44708765932E-02  0.17124000113E+03  0.17124000000E+03 0. -1.
     -611    1    1    2    0    0  0.39361729247E-01 -0.39644285363E-01  0.37459057330E+01  0.37463223349E+01  0.51109989000E-03 0.  1.
      611    1    1    2    0    0  0.12242275636E-01 -0.12505886714E-01  0.11580677790E+01  0.11582001176E+01  0.51109989000E-03 0.  1.
</event>
<event>
 6   3  0.2312675E+03  0.9118800E+02  0.7818608E-02  0.1180000E+00
       11   -1    0    0    0    0  0.00000000000E+00  0.00000000000E+00  0.54999999763E+01  0.55000000000E+01  0.51109989000E-03 0. -1.
     -623   -1    0    0    0    0  0.00000000000E+00  0.00000000000E+00  0.93234578044E-11  0.17124000000E+03  0.17124000000E+03 0.  1.
       11    1    1    2    0    0 -0.62274650134E-01 -0.19318243413E-01  0.87151060702E+00  0.87394640908E+00  0.51109989000E-03 0. -1.
     -623    1    1    2    0    0  0.42397654641E-02  0.37736374906E-02  0.28281096366E-02  0.17124000012E+03  0.17124000000E+03 0.  1.
     -611    1    1    2    0    0  0.16589969477E-01  0.26490523549E-02  0.13487258426E+01  0.13488305691E+01  0.51109989000E-03 0.  1.
      611    1    1    2    0    0  0.41444915192E-01  0.12895553567E-01  0.32769354170E+01  0.32772229043E+01  0.51109989000E-03 0. -1.
</event>
<event>
 6   3  0.2312675E+03  0.9118800E+02  0.7818608E-02  0.1180000E+00
       11   -1    0    0    0    0  0.00000000000E+00  0.00000000000E+00  0.54999999763E+01  0.55000000000E+01  0.51109989000E-03 0.  1.
     -623   -1    0    0    0    0  0.00000000000E+00  0.00000000000E+00  0.93234578044E-11  0.17124000000E+03  0.17124000000E+03 0.  1.
       11    1    1    2    0    0  0.18003563536E-01 -0.30227505769E-01  0.26468950468E+00  0.26701802470E+00  0.51109989000E-03 0.  1.
     -623    1    1    2    0    0 -0.60396135050E-02  0.26986284960E-01  0.56574268555E-02  0.17124000233E+03  0.17124000000E+03 0.  1.
     -611    1    1    2    0    0  0.29845310362E-01 -0.80890129503E-01  0.18318690994E+01  0.18338971111E+01  0.51109989000E-03 0. -1.
      611    1    1    2    0    0 -0.41809260393E-01  0.84131350312E-01  0.33977839454E+01  0.33990825378E+01  0.51109989000E-03 0.  1.
</event>
<event>
 6   3  0.2312675E+03  0.9118800E+02  0.7818608E-02  0.1180000E+00
       11   -1    0    0    0    0  0.00000000000E+00  0.00000000000E+00  0.54999999763E+01  0.55000000000E+01  0.51109989000E-03 0.  1.
     -623   -1    0    0    0    0  0.00000000000E+00  0.00000000000E+00  0.93234578044E-11  0.17124000000E+03  0.17124000000E+03 0.  1.
       11    1    1    2    0    0 -0.67400954881E-01  0.53388176149E-01  0.10497523568E+01  0.10532679896E+01  0.51109989000E-03 0.  1.
     -623    1    1    2    0    0 -0.15581551871E-02  0.73647816409E-02  0.44708193642E-02  0.17124000022E+03  0.17124000000E+03 0.  1.
     -611    1    1    2    0    0  0.51481643879E-01 -0.49001212889E-01  0.34008605930E+01  0.34016032268E+01  0.51109989000E-03 0.  1.
      611    1    1    2    0    0  0.17477466189E-01 -0.11751744901E-01  0.10449162072E+01  0.10451285598E+01  0.51109989000E-03 0. -1.
</event>
<event>
 6   3  0.2312675E+03  0.9118800E+02  0.7818608E-02  0.1180000E+00
       11   -1    0    0    0    0  0.00000000000E+00  0.00000000000E+00  0.54999999763E+01  0.55000000000E+01  0.51109989000E-03 0.  1.
     -623   -1    0    0    0    0  0.00000000000E+00  0.00000000000E+00  0.93234578044E-11  0.17124000000E+03  0.17124000000E+03 0. -1.
       11    1    1    2    0    0  0.73200019794E-02 -0.39559755366E-02  0.97773671694E-01  0.98128407054E-01  0.51109989000E-03 0.  1.
     -623    1    1    2    0    0  0.54691652957E-02 -0.14576569693E-03  0.21689686491E-02  0.17124000010E+03  0.17124000000E+03 0. -1.
     -611    1    1    2    0    0 -0.67223217823E-01 -0.38054166124E-02  0.16001424569E+01  0.16015584865E+01  0.51109989000E-03 0. -1.
      611    1    1    2    0    0  0.54434050548E-01  0.79071578459E-02  0.37999148790E+01  0.38003130053E+01  0.51109989000E-03 0.  1.
</event>
<event>
 6   3  0.2312675E+03  0.9118800E+02  0.7818608E-02  0.1180000E+00
       11   -1    0    0    0    0  0.00000000000E+00  0.00000000000E+00  0.54999999763E+01  0.55000000000E+01  0.51109989000E-03 0. -1.
     -623   -1    0    0    0    0  0.00000000000E+00  0.00000000000E+00  0.93234578044E-11  0.17124000000E+03  0.17124000000E+03 0.  1.
       11    1    1    2    0    0  0.55539399784E-01  0.20440835171E-01  0.44082211521E+00  0.44477730512E+00  0.51109989000E-03 0. -1.
     -623    1    1    2    0    0  0.24968413987E-01 -0.20389897765E-01  0.46005104202E-02  0.17124000310E+03  0.17124000000E+03 0.  1.
     -611    1    1    2    0    0 -0.80756719554E-02 -0.85053226541E-03  0.52651501709E+00  0.52657788059E+00  0.51109989000E-03 0.  1.
      611    1    1    2    0    0 -0.72432141791E-01  0.79959485913E-03  0.45280623320E+01  0.45286417167E+01  0.51109989000E-03 0. -1.
</event>
<event>
 6   3  0.2312675E+03  0.9118800E+02  0.7818608E-02  0.1180000E+00
       11   -1    0    0    0    0  0.00000000000E+00  0.00000000000E+00  0.54999999763E+01  0.55000000000E+01  0.51109989000E-03 0. -1.
     -623   -1    0    0    0    0  0.00000000000E+00  0.00000000000E+00  0.93234578044E-11  0.17124000000E+03  0.17124000000E+03 0. -1.
       11    1    1    2    0    0  0.39244368992E-01  0.11487694422E+00  0.94385904869E+00  0.95163385702E+00  0.51109989000E-03 0. -1.
     -623    1    1    2    0    0  0.91901269607E-02  0.28383066881E-01  0.10295413602E-01  0.17124000291E+03  0.17124000000E+03 0. -1.
     -611    1    1    2    0    0 -0.23269022526E-01 -0.65990214891E-01  0.21752388725E+01  0.21763640710E+01  0.51109989000E-03 0.  1.
      611    1    1    2    0    0 -0.25165473429E-01 -0.77269796212E-01  0.23706066416E+01  0.23719991638E+01  0.51109989000E-03 0. -1.
</event>
<event>
 6   3  0.2312675E+03  0.9118800E+02  0.7818608E-02  0.1180000E+00
       11   -1    0    0    0    0  0.00000000000E+00  0.00000000000E+00  0.54999999763E+01  0.55000000000E+01  0.51109989000E-03 0. -1.
     -623   -1    0    0    0    0  0.00000000000E+00  0.00000000000E+00  0.93234578044E-11  0.17124000000E+03  0.17124000000E+03 0. -1.
       11    1    1    2    0    0  0.76876136486E-01 -0.10820622802E-01  0.30770498807E+00  0.31734783306E+00  0.51109989000E-03 0. -1.
     -623    1    1    2    0    0  0.21130229983E-01  0.11479486396E-01  0.10572520084E-01  0.17124000201E+03  0.17124000000E+03 0. -1.
     -611    1    1    2    0    0 -0.82166096757E-01 -0.10134062568E-02  0.42963058807E+01  0.42970916648E+01  0.51109989000E-03 0. -1.
      611    1    1    2    0    0 -0.15840269707E-01  0.35454266293E-03  0.88541658716E+00  0.88555848699E+00  0.51109989000E-03 0.  1.
</event>
<event>
 6   3  0.2312675E+03  0.9118800E+02  0.7818608E-02  0.1180000E+00
       11   -1    0    0    0    0  0.00000000000E+00  0.00000000000E+00  0.54999999763E+01  0.55000000000E+01  0.51109989000E-03 0.  1.
     -623   -1    0    0    0    0  0.00000000000E+00  0.00000000000E+00  0.93234578044E-11  0.17124000000E+03  0.17124000000E+03 0.  1.
       11    1    1    2    0    0  0.14257694306E-01  0.17237624039E-01  0.38665709352E-01  0.44673435420E-01  0.51109989000E-03 0.  1.
     -623    1    1    2    0    0  0.10466102367E-01 -0.42081357478E-02  0.73553681743E-02  0.17124000053E+03  0.17124000000E+03 0.  1.
     -611    1    1    2    0    0  0.22732521830E-01  0.36464528132E-01  0.11529877862E+01  0.11537883366E+01  0.51109989000E-03 0. -1.
      611    1    1    2    0    0 -0.47456318503E-01 -0.49494016423E-01  0.43009911125E+01  0.43015376984E+01  0.51109989000E-03 0.  1.
</event>
<event>
 6   3  0.2312675E+03  0.9118800E+02  0.7818608E-02  0.1180000E+00
       11   -1    0    0    0    0  0.00000000000E+00  0.00000000000E+00  0.54999999763E+01  0.55000000000E+01  0.51109989000E-03 0. -1.
     -623   -1    0    0    0    0  0.00000000000E+00  0.00000000000E+00  0.93234578044E-11  0.17124000000E+03  0.17124000000E+03 0.  1.
       11    1    1    2    0    0 -0.31095401246E-02  0.35934711180E-02  0.78247035631E-01  0.78392870100E-01  0.51109989000E-03 0. -1.
     -623    1    1    2    0    0 -0.91170298671E-03 -0.41838909262E-02  0.84088978449E-03  0.17124000006E+03  0.17124000000E+03 0.  1.
     -611    1    1    2    0    0 -0.35382246165E-01  0.21755878555E-01  0.23100051021E+01  0.23103785522E+01  0.51109989000E-03 0. -1.
      611    1    1    2    0    0  0.39403489277E-01 -0.21165458746E-01  0.31109069486E+01  0.31112285219E+01  0.51109989000E-03 0.  1.
</event>
<event>
 6   3  0.2312675E+03  0.9118800E+02  0.7818608E-02  0.1180000E+00
       11   -1    0    0    0    0  0.00000000000E+00  0.00000000000E+00  0.54999999763E+01  0.55000000000E+01  0.51109989000E-03 0.  1.
     -623   -1    0    0    0    0  0.00000000000E+00  0.00000000000E+00  0.93234578044E-11  0.17124000000E+03  0.17124000000E+03 0. -1.
       11    1    1    2    0    0 -0.14711306484E-02  0.76858680802E-03  0.23550812254E-02  0.29261889451E-02  0.51109989000E-03 0.  1.
     -623    1    1    2    0    0  0.23873410789E-02 -0.61957089353E-02  0.29769907819E-02  0.17124000015E+03  0.17124000000E+03 0. -1.
     -611    1    1    2    0    0  0.55745128072E-01 -0.10655662065E-01  0.78965640303E+00  0.79169347509E+00  0.51109989000E-03 0. -1.
      611    1    1    2    0    0 -0.56661338502E-01  0.16082784192E-01  0.47050115012E+01  0.47053801814E+01  0.51109989000E-03 0.  1.
</event>
<event>
 6   3  0.2312675E+03  0.9118800E+02  0.7818608E-02  0.1180000E+00
       11   -1    0    0    0    0  0.00000000000E+00  0.00000000000E+00  0.54999999763E+01  0.55000000000E+01  0.51109989000E-03 0. -1.
     -623   -1    0    0    0    0  0.00000000000E+00  0.00000000000E+00  0.93234578044E-11  0.17124000000E+03  0.17124000000E+03 0. -1.
       11    1    1    2    0    0 -0.12127827956E-02  0.75984540460E-03 -0.10381837307E-02  0.18404498647E-02  0.51109989000E-03 0. -1.
     -623    1    1    2    0    0  0.20814356912E-02  0.19947651501E-02  0.47265463644E-02  0.17124000009E+03  0.17124000000E+03 0. -1.
     -611    1    1    2    0    0  0.69993907874E-01  0.90361512969E-02  0.28363033019E+01  0.28371812562E+01  0.51109989000E-03 0. -1.
      611    1    1    2    0    0 -0.70862560769E-01 -0.11790761852E-01  0.26600083117E+01  0.26609782044E+01  0.51109989000E-03 0.  1.
</event>
<event>
 6   3  0.2312675E+03  0.9118800E+02  0.7818608E-02  0.1180000E+00
       11   -1    0    0    0    0  0.00000000000E+00  0.00000000000E+00  0.54999999763E+01  0.55000000000E+01  0.51109989000E-03 0. -1.
     -623   -1    0    0    0    0  0.00000000000E+00  0.00000000000E+00  0.93234578044E-11  0.17124000000E+03  0.17124000000E+03 0.  1.
       11    1    1    2    0    0 -0.34456204587E-01  0.47517098863E-01  0.47381623734E+00  0.47743815590E+00  0.51109989000E-03 0. -1.
     -623    1    1    2    0    0 -0.93571676859E-02 -0.13236333923E-01  0.54770689036E-02  0.17124000085E+03  0.17124000000E+03 0.  1.
     -611    1    1    2    0    0  0.82309626524E-01 -0.28815742934E-02  0.24761331803E+01  0.24775025662E+01  0.51109989000E-03 0. -1.
      611    1    1    2    0    0 -0.38496254251E-01 -0.31399190647E-01  0.25445734897E+01  0.25450584230E+01  0.51109989000E-03 0.  1.
</event>
<event>
 6   3  0.2312675E+03  0.9118800E+02  0.7818608E-02  0.1180000E+00
       11   -1    0    0    0    0  0.00000000000E+00  0.00000000000E+00  0.54999999763E+01  0.55000000000E+01  0.51109989000E-03 0. -1.
     -623   -1    0    0    0    0  0.00000000000E+00  0.00000000000E+00  0.93234578044E-11  0.17124000000E+03  0.17124000000E+03 0. -1.
       11    1    1    2    0    0  0.16385120505E+00 -0.28461295747E+00  0.59063244457E+00  0.67579486441E+00  0.51109989000E-03 0. -1.
     -623    1    1    2    0    0 -0.43841540614E-01 -0.10635230085E+00  0.10320326290E+00  0.17124006974E+03  0.17124000000E+03 0. -1.
     -611    1    1    2    0    0 -0.33253551170E-01  0.19732972582E+00  0.20123553804E+01  0.20222807069E+01  0.51109989000E-03 0.  1.
      611    1    1    2    0    0 -0.86756113265E-01  0.19363553250E+00  0.27938088884E+01  0.28018546909E+01  0.51109989000E-03 0. -1.
</event>
<event>
 6   3  0.2312675E+03  0.9118800E+02  0.7818608E-02  0.1180000E+00
       11   -1    0    0    0    0  0.00000000000E+00  0.00000000000E+00  0.54999999763E+01  0.55000000000E+01  0.51109989000E-03 0. -1.
     -623   -1    0    0    0    0  0.00000000000E+00  0.00000000000E+00  0.93234578044E-11  0.17124000000E+03  0.17124000000E+03 0.  1.
       11    1    1    2    0    0 -0.23940162796E-01 -0.20828302379E-01  0.21146503397E+00  0.21383327943E+00  0.51109989000E-03 0. -1.
     -623    1    1    2    0    0  0.12514803628E+00  0.17925707675E-02  0.34178218884E-02  0.17124004577E+03  0.17124000000E+03 0.  1.
     -611    1    1    2    0    0 -0.12854908785E-01  0.30725197574E-02  0.67011949630E+00  0.67025002022E+00  0.51109989000E-03 0.  1.
      611    1    1    2    0    0 -0.88352964731E-01  0.15963211860E-01  0.46149976256E+01  0.46158709272E+01  0.51109989000E-03 0. -1.
</event>
<event>
 6   3  0.2312675E+03  0.9118800E+02  0.7818608E-02  0.1180000E+00
       11   -1    0    0    0    0  0.00000000000E+00  0.00000000000E+00  0.54999999763E+01  0.55000000000E+01  0.51109989000E-03 0. -1.
     -623   -1    0    0    0    0  0.00000000000E+00  0.00000000000E+00  0.93234578044E-11  0.17124000000E+03  0.17124000000E+03 0. -1.
       11    1    1    2    0    0 -0.68518479579E-02 -0.51682536682E-02  0.17659626597E+00  0.17680543273E+00  0.51109989000E-03 0. -1.
     -623    1    1    2    0    0  0.41105972998E-02  0.20854055013E-02  0.69414006234E-03  0.17124000006E+03  0.17124000000E+03 0. -1.
     -611    1    1    2    0    0  0.37025604439E-01 -0.10956939407E-02  0.25260341741E+01  0.25263058021E+01  0.51109989000E-03 0.  1.
      611    1    1    2    0    0 -0.34284353781E-01  0.41785421075E-02  0.27966753960E+01  0.27968887016E+01  0.51109989000E-03 0. -1.
</event>
<event>
 6   3  0.2312675E+03  0.9118800E+02  0.7818608E-02  0.1180000E+00
       11   -1    0    0    0    0  0.00000000000E+00  0.00000000000E+00  0.54999999763E+01  0.55000000000E+01  0.51109989000E-03 0. -1.
     -623   -1    0    0    0    0  0.00000000000E+00  0.00000000000E+00  0.93234578044E-11  0.17124000000E+03  0.17124000000E+03 0. -1.
       11    1    1    2    0    0 -0.39511722368E-01 -0.11976765052E-01  0.41044570423E+00  0.41251734079E+00  0.51109989000E-03 0. -1.
     -623    1    1    2    0    0 -0.20786751254E-01 -0.84614822971E-02  0.24717426821E-02  0.17124000149E+03  0.17124000000E+03 0. -1.
     -611    1    1    2    0    0  0.19320836291E-01  0.61148757281E-02  0.16426910655E+01  0.16428161444E+01  0.51109989000E-03 0. -1.
      611    1    1    2    0    0  0.40977637287E-01  0.14323371606E-01  0.34443914601E+01  0.34446650226E+01  0.51109989000E-03 0. -1.
</event>
<event>
 6   3  0.2312675E+03  0.9118800E+02  0.7818608E-02  0.1180000E+00
       11   -1    0    0    0    0  0.00000000000E+00  0.00000000000E+00  0.54999999763E+01  0.55000000000E+01  0.51109989000E-03 0.  1.
     -623   -1    0    0    0    0  0.00000000000E+00  0.00000000000E+00  0.93234578044E-11  0.17124000000E+03  0.17124000000E+03 0.  1.
       11    1    1    2    0    0  0.54288780136E-01  0.32443846304E-01  0.90477862681E+00  0.90698649359E+00  0.51109989000E-03 0.  1.
     -623    1    1    2    0    0  0.15968422605E-03 -0.28461670436E-02  0.26267398780E-02  0.17124000004E+03  0.17124000000E+03 0.  1.
     -611    1    1    2    0    0 -0.87832053607E-02 -0.41694042267E-02  0.76605590945E+00  0.76611777571E+00  0.51109989000E-03 0.  1.
      611    1    1    2    0    0 -0.45665259022E-01 -0.25428275045E-01  0.38265387018E+01  0.38268956885E+01  0.51109989000E-03 0. -1.
</event>
<event>
 6   3  0.2312675E+03  0.9118800E+02  0.7818608E-02  0.1180000E+00
       11   -1    0    0    0    0  0.00000000000E+00  0.00000000000E+00  0.54999999763E+01  0.55000000000E+01  0.51109989000E-03 0. -1.
     -623   -1    0    0    0    0  0.00000000000E+00  0.00000000000E+00  0.93234578044E-11  0.17124000000E+03  0.17124000000E+03 0. -1.
       11    1    1    2    0    0 -0.54406825632E-02  0.68717826830E-02  0.25917604915E+00  0.25932471556E+00  0.51109989000E-03 0. -1.
     -623    1    1    2    0    0  0.55881791336E-03 -0.69436527120E-03  0.67200799547E-03  0.17124000000E+03  0.17124000000E+03 0. -1.
     -611    1    1    2    0    0 -0.34151637072E-01 -0.32951538730E-02  0.21169923452E+01  0.21172704228E+01  0.51109989000E-03 0. -1.
      611    1    1    2    0    0  0.39033501722E-01 -0.28822635387E-02  0.31231595741E+01  0.31234048582E+01  0.51109989000E-03 0.  1.
</event>
<event>
 6   3  0.2312675E+03  0.9118800E+02  0.7818608E-02  0.1180000E+00
       11   -1    0    0    0    0  0.00000000000E+00  0.00000000000E+00  0.54999999763E+01  0.55000000000E+01  0.51109989000E-03 0.  1.
     -623   -1    0    0    0    0  0.00000000000E+00  0.00000000000E+00  0.93234578044E-11  0.17124000000E+03  0.17124000000E+03 0.  1.
       11    1    1    2    0    0  0.55536056373E-02 -0.32948341440E-02  0.20562241135E-01  0.21558419497E-01  0.51109989000E-03 0.  1.
     -623    1    1    2    0    0  0.25965329406E-03 -0.25976701867E-02  0.23380599958E-02  0.17124000004E+03  0.17124000000E+03 0.  1.
     -611    1    1    2    0    0 -0.57635423167E-01 -0.17954259602E-01  0.21284108294E+01  0.21292668028E+01  0.51109989000E-03 0.  1.
      611    1    1    2    0    0  0.51822164235E-01  0.23846763933E-01  0.33486888457E+01  0.33491747419E+01  0.51109989000E-03 0. -1.
</event>
<event>
 6   3  0.2312675E+03  0.9118800E+02  0.7818608E-02  0.1180000E+00
       11   -1    0    0    0    0  0.00000000000E+00  0.00000000000E+00  0.54999999763E+01  0.55000000000E+01  0.51109989000E-03 0.  1.
     -623   -1    0    0    0    0  0.00000000000E+00  0.00000000000E+00  0.93234578044E-11  0.17124000000E+03  0.17124000000E+03 0. -1.
       11    1    1    2    0    0  0.17970075927E-01  0.43777855597E-01  0.15732276095E+00  0.16428675116E+00  0.51109989000E-03 0.  1.
     -623    1    1    2    0    0 -0.27804083845E-01 -0.63899152104E-01  0.14456167187E-01  0.17124001479E+03  0.17124000000E+03 0. -1.
     -611    1    1    2    0    0 -0.12275220959E+00  0.18590575378E-01  0.37017857028E+01  0.37038670825E+01  0.51109989000E-03 0.  1.
      611    1    1    2    0    0  0.13258621751E+00  0.15307211293E-02  0.16264353454E+01  0.16318313767E+01  0.51109989000E-03 0. -1.
</event>
<event>
 6   3  0.2312675E+03  0.9118800E+02  0.7818608E-02  0.1180000E+00
       11   -1    0    0    0    0  0.00000000000E+00  0.00000000000E+00  0.54999999763E+01  0.55000000000E+01  0.51109989000E-03 0. -1.
     -623   -1    0    0    0    0  0.00000000000E+00  0.00000000000E+00  0.93234578044E-11  0.17124000000E+03  0.17124000000E+03 0.  1.
       11    1    1    2    0    0 -0.25704749061E-02 -0.29440266390E-01  0.79115698253E+00  0.79170889149E+00  0.51109989000E-03 0. -1.
     -623    1    1    2    0    0  0.14319620589E-02 -0.77190111234E-03  0.11927249146E-02  0.17124000001E+03  0.17124000000E+03 0.  1.
     -611    1    1    2    0    0  0.34939599116E-01  0.14854506903E-01  0.17768610240E+01  0.17772666631E+01  0.51109989000E-03 0. -1.
      611    1    1    2    0    0 -0.33801086269E-01  0.15357660599E-01  0.29307892447E+01  0.29310244334E+01  0.51109989000E-03 0.  1.
</event>
<event>
 6   3  0.2312675E+03  0.9118800E+02  0.7818608E-02  0.1180000E+00
       11   -1    0    0    0    0  0.00000000000E+00  0.00000000000E+00  0.54999999763E+01  0.55000000000E+01  0.51109989000E-03 0.  1.
     -623   -1    0    0    0    0  0.00000000000E+00  0.00000000000E+00  0.93234578044E-11  0.17124000000E+03  0.17124000000E+03 0.  1.
       11    1    1    2    0    0 -0.24946772345E-01 -0.10949744657E-01  0.46549440050E-01  0.53938390323E-01  0.51109989000E-03 0.  1.
     -623    1    1    2    0    0 -0.19892566998E-01 -0.38966557366E-01  0.83063748705E-02  0.17124000579E+03  0.17124000000E+03 0.  1.
     -611    1    1    2    0    0 -0.16719440894E-01  0.21941247186E-01  0.94185768005E+00  0.94226169864E+00  0.51109989000E-03 0. -1.
      611    1    1    2    0    0  0.61558780237E-01  0.27975054837E-01  0.45032864813E+01  0.45037941206E+01  0.51109989000E-03 0.  1.
</event>
<event>
 6   3  0.2312675E+03  0.9118800E+02  0.7818608E-02  0.1180000E+00
       11   -1    0    0    0    0  0.00000000000E+00  0.00000000000E+00  0.54999999763E+01  0.55000000000E+01  0.51109989000E-03 0. -1.
     -623   -1    0    0    0    0  0.00000000000E+00  0.00000000000E+00  0.93234578044E-11  0.17124000000E+03  0.17124000000E+03 0. -1.
       11    1    1    2    0    0  0.16972422324E-01  0.40316427037E-01  0.42318775962E+00  0.42544284989E+00  0.51109989000E-03 0. -1.
     -623    1    1    2    0    0  0.64060557432E-01 -0.33921062688E-01  0.29541181115E-02  0.17124001537E+03  0.17124000000E+03 0. -1.
     -611    1    1    2    0    0 -0.59621874596E-01 -0.12644100600E-01  0.36469190605E+01  0.36474283456E+01  0.51109989000E-03 0. -1.
      611    1    1    2    0    0 -0.21411105160E-01  0.62487362507E-02  0.14269390380E+01  0.14271134368E+01  0.51109989000E-03 0.  1.
</event>
<event>
 6   3  0.2312675E+03  0.9118800E+02  0.7818608E-02  0.1180000E+00
       11   -1    0    0    0    0  0.00000000000E+00  0.00000000000E+00  0.54999999763E+01  0.55000000000E+01  0.51109989000E-03 0. -1.
     -623   -1    0    0    0    0  0.00000000000E+00  0.00000000000E+00  0.93234578044E-11  0.17124000000E+03  0.17124000000E+03 0.  1.
       11    1    1    2    0    0 -0.26860192169E-01 -0.54773264710E-01  0.46772686423E+00  0.47168873337E+00  0.51109989000E-03 0. -1.
     -623    1    1    2    0    0  0.16560209368E-01  0.20001750514E-03  0.49955941456E-02  0.17124000087E+03  0.17124000000E+03 0.  1.
     -611    1    1    2    0    0 -0.28044781128E-01 -0.27741821593E-02  0.22484141263E+01  0.22485907922E+01  0.51109989000E-03 0.  1.
      611    1    1    2    0    0  0.38344763929E-01  0.57347429364E-01  0.27788633916E+01  0.27797196007E+01  0.51109989000E-03 0. -1.
</event>
<event>
 6   3  0.2312675E+03  0.9118800E+02  0.7818608E-02  0.1180000E+00
       11   -1    0    0    0    0  0.00000000000E+00  0.00000000000E+00  0.54999999763E+01  0.55000000000E+01  0.51109989000E-03 0.  1.
     -623   -1    0    0    0    0  0.00000000000E+00  0.00000000000E+00  0.93234578044E-11  0.17124000000E+03  0.17124000000E+03 0. -1.
       11    1    1    2    0    0 -0.30429581744E-02  0.26643172356E-02  0.44722837311E-02  0.60515060648E-02  0.51109989000E-03 0.  1.
     -623    1    1    2    0    0  0.72296798812E-02 -0.60662652068E-02  0.34551854192E-02  0.17124000029E+03  0.17124000000E+03 0. -1.
     -611    1    1    2    0    0 -0.44712910432E-01 -0.55738246825E-01  0.29454175950E+01  0.29462842814E+01  0.51109989000E-03 0.  1.
      611    1    1    2    0    0  0.40526188726E-01  0.59140194796E-01  0.25466549121E+01  0.25476639176E+01  0.51109989000E-03 0. -1.
</event>
<event>
 6   3  0.2312675E+03  0.9118800E+02  0.7818608E-02  0.1180000E+00
       11   -1    0    0    0    0  0.00000000000E+00  0.00000000000E+00  0.54999999763E+01  0.55000000000E+01  0.51109989000E-03 0. -1.
     -623   -1    0    0    0    0  0.00000000000E+00  0.00000000000E+00  0.93234578044E-11  0.17124000000E+03  0.17124000000E+03 0.  1.
       11    1    1    2    0    0 -0.40883852740E-01  0.13151827021E-01  0.10138245603E+01  0.10147339357E+01  0.51109989000E-03 0. -1.
     -623    1    1    2    0    0 -0.11366908626E-01 -0.16366672420E-01  0.12162130490E-02  0.17124000116E+03  0.17124000000E+03 0.  1.
     -611    1    1    2    0    0  0.16532755815E-01  0.13176422559E-02  0.14101318197E+01  0.14102294417E+01  0.51109989000E-03 0. -1.
      611    1    1    2    0    0  0.35718005502E-01  0.18972031402E-02  0.30748273791E+01  0.30750354547E+01  0.51109989000E-03 0. -1.
</event>
<event>
 6   3  0.2312675E+03  0.9118800E+02  0.7818608E-02  0.1180000E+00
       11   -1    0    0    0    0  0.00000000000E+00  0.00000000000E+00  0.54999999763E+01  0.55000000000E+01  0.51109989000E-03 0.  1.
     -623   -1    0    0    0    0  0.00000000000E+00  0.00000000000E+00  0.93234578044E-11  0.17124000000E+03  0.17124000000E+03 0. -1.
       11    1    1    2    0    0  0.15130158233E-02  0.32395213420E-02  0.24658572962E-01  0.24921680502E-01  0.51109989000E-03 0.  1.
     -623    1    1    2    0    0  0.45975576762E-02 -0.82740927795E-03  0.68738014820E-03  0.17124000007E+03  0.17124000000E+03 0. -1.
     -611    1    1    2    0    0 -0.35543045683E-01  0.59627273343E-02  0.35216559032E+01  0.35218403462E+01  0.51109989000E-03 0. -1.
      611    1    1    2    0    0  0.29432472184E-01 -0.83748393983E-02  0.19529981199E+01  0.19532379081E+01  0.51109989000E-03 0.  1.
</event>
<event>
 6   3  0.2312675E+03  0.9118800E+02  0.7818608E-02  0.1180000E+00
       11   -1    0    0    0    0  0.00000000000E+00  0.00000000000E+00  0.54999999763E+01  0.55000000000E+01  0.51109989000E-03 0.  1.
     -623   -1    0    0    0    0  0.00000000000E+00  0.00000000000E+00  0.93234578044E-11  0.17124000000E+03  0.17124000000E+03 0.  1.
       11    1    1    2    0    0 -0.73425502733E-02  0.49897518685E-03  0.87664236642E-01  0.87974096358E-01  0.51109989000E-03 0.  1.
     -623    1    1    2    0    0 -0.21337825788E-02 -0.67780642719E-03  0.88532571784E-03  0.17124000002E+03  0.17124000000E+03 0.  1.
     -611    1    1    2    0    0 -0.30127874578E-01 -0.12060433731E-01  0.14742037066E+01  0.14745609424E+01  0.51109989000E-03 0. -1.
      611    1    1    2    0    0  0.39604207430E-01  0.12239264971E-01  0.39372467073E+01  0.39374649444E+01  0.51109989000E-03 0.  1.
</event>
<event>
 6   3  0.2312675E+03  0.9118800E+02  0.7818608E-02  0.1180000E+00
       11   -1    0    0    0    0  0.00000000000E+00  0.00000000000E+00  0.54999999763E+01  0.55000000000E+01  0.51109989000E-03 0. -1.
     -623   -1    0    0    0    0  0.00000000000E+00  0.00000000000E+00  0.93234578044E-11  0.17124000000E+03  0.17124000000E+03 0.  1.
       11    1    1    2    0    0 -0.17991270643E+00  0.81426055886E-01  0.97113653047E+00  0.99101221311E+00  0.51109989000E-03 0. -1.
     -623    1    1    2    0    0  0.11689741368E-01  0.87430460490E-02  0.23922222659E-01  0.17124000229E+03  0.17124000000E+03 0.  1.
     -611    1    1    2    0    0  0.80339887995E-01 -0.41910668573E-01  0.21916254118E+01  0.21934979391E+01  0.51109989000E-03 0. -1.
      611    1    1    2    0    0  0.87883077068E-01 -0.48258433361E-01  0.23133158113E+01  0.23154875546E+01  0.51109989000E-03 0.  1.
</event>
<event>
 6   3  0.2312675E+03  0.9118800E+02  0.7818608E-02  0.1180000E+00
       11   -1    0    0    0    0  0.00000000000E+00  0.00000000000E+00  0.54999999763E+01  0.55000000000E+01  0.51109989000E-03 0. -1.
     -623   -1    0    0    0    0  0.00000000000E+00  0.00000000000E+00  0.93234578044E-11  0.17124000000E+03  0.17124000000E+03 0. -1.
       11    1    1    2    0    0 -0.40670204318E-01 -0.17283064942E-01  0.94514492612E+00  0.94617755334E+00  0.51109989000E-03 0. -1.
     -623    1    1    2    0    0 -0.23345121960E-01 -0.94755017419E-02  0.16362042393E-02  0.17124000186E+03  0.17124000000E+03 0. -1.
     -611    1    1    2    0    0  0.21134832218E-01  0.20072466218E-01  0.14035026240E+01  0.14038053504E+01  0.51109989000E-03 0.  1.
      611    1    1    2    0    0  0.42880494059E-01  0.66861004661E-02  0.31497162218E+01  0.31500152349E+01  0.51109989000E-03 0. -1.
</event>
<event>
 6   3  0.2312675E+03  0.9118800E+02  0.7818608E-02  0.1180000E+00
       11   -1    0    0    0    0  0.00000000000E+00  0.00000000000E+00  0.54999999763E+01  0.55000000000E+01  0.51109989000E-03 0. -1.
     -623   -1    0    0    0    0  0.00000000000E+00  0.00000000000E+00  0.93234578044E-11  0.17124000000E+03  0.17124000000E+03 0. -1.
       11    1    1    2    0    0  0.44255815442E-01  0.44989645169E-02  0.80550072153E+00  0.80672826372E+00  0.51109989000E-03 0. -1.
     -623    1    1    2    0    0  0.78437198627E-01  0.26031410386E-01  0.29509940097E-02  0.17124001997E+03  0.17124000000E+03 0. -1.
     -611    1    1    2    0    0 -0.59548192982E-01 -0.14513689929E-01  0.22736234100E+01  0.22744494512E+01  0.51109989000E-03 0. -1.
      611    1    1    2    0    0 -0.63144821059E-01 -0.16016684967E-01  0.24179248496E+01  0.24188023157E+01  0.51109989000E-03 0. -1.
</event>
<event>
 6   3  0.2312675E+03  0.9118800E+02  0.7818608E-02  0.1180000E+00
       11   -1    0    0    0    0  0.00000000000E+00  0.00000000000E+00  0.54999999763E+01  0.55000000000E+01  0.51109989000E-03 0. -1.
     -623   -1    0    0    0    0  0.00000000000E+00  0.00000000000E+00  0.93234578044E-11  0.17124000000E+03  0.17124000000E+03 0. -1.
       11    1    1    2    0    0 -0.16478368486E-02  0.32592608307E-02  0.69294774556E-02  0.78496514794E-02  0.51109989000E-03 0. -1.
     -623    1    1    2    0    0 -0.82773652942E-03 -0.13756974819E-02  0.16882218622E-02  0.17124000002E+03  0.17124000000E+03 0. -1.
     -611    1    1    2    0    0  0.40831652511E-01 -0.23181705332E-01  0.32438316946E+01  0.32441715336E+01  0.51109989000E-03 0. -1.
      611    1    1    2    0    0 -0.38356079133E-01  0.21298141983E-01  0.22475505823E+01  0.22479787991E+01  0.51109989000E-03 0.  1.
</event>
<event>
 6   3  0.2312675E+03  0.9118800E+02  0.7818608E-02  0.1180000E+00
       11   -1    0    0    0    0  0.00000000000E+00  0.00000000000E+00  0.54999999763E+01  0.55000000000E+01  0.51109989000E-03 0. -1.
     -623   -1    0    0    0    0  0.00000000000E+00  0.00000000000E+00  0.93234578044E-11  0.17124000000E+03  0.17124000000E+03 0.  1.
       11    1    1    2    0    0  0.88837274817E-01  0.52091847547E-01  0.99366765205E+00  0.99899013305E+00  0.51109989000E-03 0. -1.
     -623    1    1    2    0    0 -0.13245335471E-01  0.16861668838E-02  0.62830968796E-02  0.17124000064E+03  0.17124000000E+03 0.  1.
     -611    1    1    2    0    0 -0.29210680377E-01 -0.17374060118E-01  0.16296165434E+01  0.16299710002E+01  0.51109989000E-03 0.  1.
      611    1    1    2    0    0 -0.46381258970E-01 -0.36403954314E-01  0.28704326840E+01  0.28710382310E+01  0.51109989000E-03 0. -1.
</event>
<event>
 6   3  0.2312675E+03  0.9118800E+02  0.7818608E-02  0.1180000E+00
       11   -1    0    0    0    0  0.00000000000E+00  0.00000000000E+00  0.54999999763E+01  0.55000000000E+01  0.51109989000E-03 0.  1.
     -623   -1    0    0    0    0  0.00000000000E+00  0.00000000000E+00  0.93234578044E-11  0.17124000000E+03  0.17124000000E+03 0. -1.
       11    1    1    2    0    0 -0.82976881232E-02 -0.15423714531E-01  0.64419818906E+00  0.64443642868E+00  0.51109989000E-03 0.  1.
     -623    1    1    2    0    0 -0.84565349427E-03  0.82843715784E-02  0.61419866649E-03  0.17124000020E+03  0.17124000000E+03 0. -1.
     -611    1    1    2    0    0 -0.25398247982E-01  0.33205906337E-02  0.21393109000E+01  0.21394642987E+01  0.51109989000E-03 0. -1.
      611    1    1    2    0    0  0.34541589599E-01  0.38187523193E-02  0.27158766886E+01  0.27160990691E+01  0.51109989000E-03 0.  1.
</event>
<event>
 6   3  0.2312675E+03  0.9118800E+02  0.7818608E-02  0.1180000E+00
       11   -1    0    0    0    0  0.00000000000E+00  0.00000000000E+00  0.54999999763E+01  0.55000000000E+01  0.51109989000E-03 0. -1.
     -623   -1    0    0    0    0  0.00000000000E+00  0.00000000000E+00  0.93234578044E-11  0.17124000000E+03  0.17124000000E+03 0.  1.
       11    1    1    2    0    0 -0.44083010062E-01  0.80882654750E-01  0.38681160347E+00  0.39762896451E+00  0.51109989000E-03 0. -1.
     -623    1    1    2    0    0  0.57195622826E-01 -0.86016221758E-02  0.24178060322E-01  0.17124001147E+03  0.17124000000E+03 0.  1.
     -611    1    1    2    0    0 -0.10960129148E+00 -0.12601906969E+00  0.44991315541E+01  0.45022303641E+01  0.51109989000E-03 0. -1.
      611    1    1    2    0    0  0.96488678716E-01  0.53738037117E-01  0.58987875832E+00  0.60012919650E+00  0.51109989000E-03 0.  1.
</event>
<event>
 6   3  0.2312675E+03  0.9118800E+02  0.7818608E-02  0.1180000E+00
       11   -1    0    0    0    0  0.00000000000E+00  0.00000000000E+00  0.54999999763E+01  0.55000000000E+01  0.51109989000E-03 0.  1.
     -623   -1    0    0    0    0  0.00000000000E+00  0.00000000000E+00  0.93234578044E-11  0.17124000000E+03  0.17124000000E+03 0. -1.
       11    1    1    2    0    0  0.33142785488E-01  0.89498479797E-02  0.33237426861E+00  0.33414287313E+00  0.51109989000E-03 0.  1.
     -623    1    1    2    0    0 -0.15129255055E-01 -0.21953559409E-01  0.22514218248E-02  0.17124000209E+03  0.17124000000E+03 0. -1.
     -611    1    1    2    0    0 -0.42757959441E-01  0.10674293316E-01  0.37885517483E+01  0.37888080968E+01  0.51109989000E-03 0.  1.
      611    1    1    2    0    0  0.24744429008E-01  0.23294181131E-02  0.13768225375E+01  0.13770469396E+01  0.51109989000E-03 0. -1.
</event>
<event>
 6   3  0.2312675E+03  0.9118800E+02  0.7818608E-02  0.1180000E+00
       11   -1    0    0    0    0  0.00000000000E+00  0.00000000000E+00  0.54999999763E+01  0.55000000000E+01  0.51109989000E-03 0. -1.
     -623   -1    0    0    0    0  0.00000000000E+00  0.00000000000E+00  0.93234578044E-11  0.17124000000E+03  0.17124000000E+03 0.  1.
       11    1    1    2    0    0  0.23899914223E-02  0.31345370739E-01  0.65132932384E-01  0.72324300409E-01  0.51109989000E-03 0. -1.
     -623    1    1    2    0    0 -0.38037480458E-01 -0.42802958275E-01  0.11537353992E-01  0.17124000996E+03  0.17124000000E+03 0.  1.
     -611    1    1    2    0    0  0.10060383358E+00 -0.50570871776E-01  0.39474251049E+01  0.39490307374E+01  0.51109989000E-03 0. -1.
      611    1    1    2    0    0 -0.64956344544E-01  0.62028459313E-01  0.14759045850E+01  0.14786349994E+01  0.51109989000E-03 0.  1.
</event>
<event>
 6   3  0.2312675E+03  0.9118800E+02  0.7818608E-02  0.1180000E+00
       11   -1    0    0    0    0  0.00000000000E+00  0.00000000000E+00  0.54999999763E+01  0.55000000000E+01  0.51109989000E-03 0.  1.
     -623   -1    0    0    0    0  0.00000000000E+00  0.00000000000E+00  0.93234578044E-11  0.17124000000E+03  0.17124000000E+03 0.  1.
       11    1    1    2    0    0 -0.15711746078E-01  0.28343888252E-01  0.61682301905E+00  0.61767396984E+00  0.51109989000E-03 0.  1.
     -623    1    1    2    0    0  0.40797568233E-01 -0.94201588116E-02  0.26945746298E-02  0.17124000514E+03  0.17124000000E+03 0.  1.
     -611    1    1    2    0    0 -0.75641032714E-01 -0.24002597054E-01  0.23812861539E+01  0.23826081714E+01  0.51109989000E-03 0. -1.
      611    1    1    2    0    0  0.50555210559E-01  0.50788676133E-02  0.24991962286E+01  0.24997127184E+01  0.51109989000E-03 0.  1.
</event>
<event>
 6   3  0.2312675E+03  0.9118800E+02  0.7818608E-02  0.1180000E+00
       11   -1    0    0    0    0  0.00000000000E+00  0.00000000000E+00  0.54999999763E+01  0.55000000000E+01  0.51109989000E-03 0. -1.
     -623   -1    0    0    0    0  0.00000000000E+00  0.00000000000E+00  0.93234578044E-11  0.17124000000E+03  0.17124000000E+03 0. -1.
       11    1    1    2    0    0  0.26012324357E-01 -0.22316289243E-01  0.26510440378E+00  0.26731117431E+00  0.51109989000E-03 0. -1.
     -623    1    1    2    0    0 -0.34865722878E-02  0.23214202560E-01  0.36747976959E-02  0.17124000165E+03  0.17124000000E+03 0. -1.
     -611    1    1    2    0    0 -0.57384329806E-01  0.36433024681E-01  0.36744223092E+01  0.36750510057E+01  0.51109989000E-03 0. -1.
      611    1    1    2    0    0  0.34858577736E-01 -0.37330937998E-01  0.15567984656E+01  0.15576361716E+01  0.51109989000E-03 0.  1.
</event>
<event>
 6   3  0.2312675E+03  0.9118800E+02  0.7818608E-02  0.1180000E+00
       11   -1    0    0    0    0  0.00000000000E+00  0.00000000000E+00  0.54999999763E+01  0.55000000000E+01  0.51109989000E-03 0. -1.
     -623   -1    0    0    0    0  0.00000000000E+00  0.00000000000E+00  0.93234578044E-11  0.17124000000E+03  0.17124000000E+03 0.  1.
       11    1    1    2    0    0  0.12780318116E-02  0.50643973528E-02  0.19968754596E-01  0.20646885215E-01  0.51109989000E-03 0. -1.
     -623    1    1    2    0    0  0.79450152092E-01  0.25409808013E-02  0.12970396431E-02  0.17124001845E+03  0.17124000000E+03 0.  1.
     -611    1    1    2    0    0 -0.52781601227E-01 -0.43387034088E-02  0.35288167995E+01  0.35292142167E+01  0.51109989000E-03 0. -1.
      611    1    1    2    0    0 -0.27946582710E-01 -0.32666747484E-02  0.19499173848E+01  0.19501204454E+01  0.51109989000E-03 0. -1.
</event>
<event>
 6   3  0.2312675E+03  0.9118800E+02  0.7818608E-02  0.1180000E+00
       11   -1    0    0    0    0  0.00000000000E+00  0.00000000000E+00  0.54999999763E+01  0.55000000000E+01  0.51109989000E-03 0. -1.
     -623   -1    0    0    0    0  0.00000000000E+00  0.00000000000E+00  0.93234578044E-11  0.17124000000E+03  0.17124000000E+03 0. -1.
       11    1    1    2    0    0 -0.72661482337E-01 -0.33144244903E-02  0.67148420717E+00  0.67541245038E+00  0.51109989000E-03 0. -1.
     -623    1    1    2    0    0  0.84280576480E-02 -0.43627430993E-02  0.43774226836E-02  0.17124000032E+03  0.17124000000E+03 0. -1.
     -611    1    1    2    0    0  0.30480626970E-01  0.61321142445E-02  0.27171021776E+01  0.27172801063E+01  0.51109989000E-03 0.  1.
      611    1    1    2    0    0  0.33752797718E-01  0.15450533451E-02  0.21070361688E+01  0.21073071244E+01  0.51109989000E-03 0. -1.
</event>
<event>
 6   3  0.2312675E+03  0.9118800E+02  0.7818608E-02  0.1180000E+00
       11   -1    0    0    0    0  0.00000000000E+00  0.00000000000E+00  0.54999999763E+01  0.55000000000E+01  0.51109989000E-03 0.  1.
     -623   -1    0    0    0    0  0.00000000000E+00  0.00000000000E+00  0.93234578044E-11  0.17124000000E+03  0.17124000000E+03 0.  1.
       11    1    1    2    0    0 -0.10913764406E-01 -0.76902454310E-02  0.33171241499E-01  0.35760909020E-01  0.51109989000E-03 0.  1.
     -623    1    1    2    0    0  0.82800451756E-02 -0.55752115085E-02  0.50330431861E-02  0.17124000036E+03  0.17124000000E+03 0.  1.
     -611    1    1    2    0    0  0.74533222426E-01 -0.22816570597E-01  0.33599497833E+01  0.33608538505E+01  0.51109989000E-03 0.  1.
      611    1    1    2    0    0 -0.71899503196E-01  0.36082027537E-01  0.21018459083E+01  0.21033848756E+01  0.51109989000E-03 0. -1.
</event>
<event>
 6   3  0.2312675E+03  0.9118800E+02  0.7818608E-02  0.1180000E+00
       11   -1    0    0    0    0  0.00000000000E+00  0.00000000000E+00  0.54999999763E+01  0.55000000000E+01  0.51109989000E-03 0.  1.
     -623   -1    0    0    0    0  0.00000000000E+00  0.00000000000E+00  0.93234578044E-11  0.17124000000E+03  0.17124000000E+03 0.  1.
       11    1    1    2    0    0  0.17731505775E-01  0.18134773822E-01  0.63245545356E+00  0.63296401026E+00  0.51109989000E-03 0.  1.
     -623    1    1    2    0    0 -0.15200622563E+00 -0.62755337618E-01  0.26580544117E-02  0.17124007899E+03  0.17124000000E+03 0.  1.
     -611    1    1    2    0    0  0.26386257126E-01  0.13398776606E-01  0.10605225455E+01  0.10609354799E+01  0.51109989000E-03 0. -1.
      611    1    1    2    0    0  0.10788846276E+00  0.31221787202E-01  0.38043639238E+01  0.38060215247E+01  0.51109989000E-03 0.  1.
</event>
<event>
 6   3  0.2312675E+03  0.9118800E+02  0.7818608E-02  0.1180000E+00
       11   -1    0    0    0    0  0.00000000000E+00  0.00000000000E+00  0.54999999763E+01  0.55000000000E+01  0.51109989000E-03 0. -1.
     -623   -1    0    0    0    0  0.00000000000E+00  0.00000000000E+00  0.93234578044E-11  0.17124000000E+03  0.17124000000E+03 0. -1.
       11    1    1    2    0    0 -0.15194549657E-01 -0.25062990835E-02  0.61243715756E-01  0.63152274837E-01  0.51109989000E-03 0. -1.
     -623    1    1    2    0    0  0.74006153956E-03  0.80330320186E-02  0.34471757389E-02  0.17124000022E+03  0.17124000000E+03 0. -1.
     -611    1    1    2    0    0 -0.50809134022E-01 -0.21168368026E-01  0.33667750772E+01  0.33672250222E+01  0.51109989000E-03 0.  1.
      611    1    1    2    0    0  0.65263622140E-01  0.15641635091E-01  0.20685340076E+01  0.20696224783E+01  0.51109989000E-03 0. -1.
</event>
<event>
 6   3  0.2312675E+03  0.9118800E+02  0.7818608E-02  0.1180000E+00
       11   -1    0    0    0    0  0.00000000000E+00  0.00000000000E+00  0.54999999763E+01  0.55000000000E+01  0.51109989000E-03 0. -1.
     -623   -1    0    0    0    0  0.00000000000E+00  0.00000000000E+00  0.93234578044E-11  0.17124000000E+03  0.17124000000E+03 0.  1.
       11    1    1    2    0    0 -0.10602571364E+00  0.12180250952E+00  0.10823747950E+01  0.10943549522E+01  0.51109989000E-03 0. -1.
     -623    1    1    2    0    0  0.31781711753E-01 -0.15901599832E-01  0.13889822584E-01  0.17124000425E+03  0.17124000000E+03 0.  1.
     -611    1    1    2    0    0  0.23213424452E-01 -0.27462495287E-01  0.11895709519E+01  0.11901144325E+01  0.51109989000E-03 0. -1.
      611    1    1    2    0    0  0.51030577433E-01 -0.78438414401E-01  0.32141644068E+01  0.32155263643E+01  0.51109989000E-03 0.  1.
</event>
<event>
 6   3  0.2312675E+03  0.9118800E+02  0.7818608E-02  0.1180000E+00
       11   -1    0    0    0    0  0.00000000000E+00  0.00000000000E+00  0.54999999763E+01  0.55000000000E+01  0.51109989000E-03 0. -1.
     -623   -1    0    0    0    0  0.00000000000E+00  0.00000000000E+00  0.93234578044E-11  0.17124000000E+03  0.17124000000E+03 0.  1.
       11    1    1    2    0    0  0.20972764442E-01 -0.48664022557E-01  0.78746580567E+00  0.78924691970E+00  0.51109989000E-03 0. -1.
     -623    1    1    2    0    0  0.40792127991E-01  0.37256785251E-01  0.22100937858E-02  0.17124000893E+03  0.17124000000E+03 0.  1.
     -611    1    1    2    0    0 -0.11229991955E-01  0.26625693471E-02  0.95417323871E+00  0.95424317272E+00  0.51109989000E-03 0. -1.
      611    1    1    2    0    0 -0.50534900490E-01  0.87446679611E-02  0.37561508390E+01  0.37565009825E+01  0.51109989000E-03 0. -1.
</event>
<event>
 6   3  0.2312675E+03  0.9118800E+02  0.7818608E-02  0.1180000E+00
       11   -1    0    0    0    0  0.00000000000E+00  0.00000000000E+00  0.54999999763E+01  0.55000000000E+01  0.51109989000E-03 0. -1.
     -623   -1    0    0    0    0  0.00000000000E+00  0.00000000000E+00  0.93234578044E-11  0.17124000000E+03  0.17124000000E+03 0.  1.
       11    1    1    2    0    0  0.61137284411E-01  0.39377664440E-01  0.92021011543E+00  0.92307924133E+00  0.51109989000E-03 0. -1.
     -623    1    1    2    0    0 -0.37807283518E-02  0.16476127807E-01  0.68440445549E-02  0.17124000097E+03  0.17124000000E+03 0.  1.
     -611    1    1    2    0    0  0.47674963604E-01 -0.38839644976E-01  0.75799268307E+00  0.76048312866E+00  0.51109989000E-03 0.  1.
      611    1    1    2    0    0 -0.10503151966E+00 -0.17014147271E-01  0.38149531332E+01  0.38164366589E+01  0.51109989000E-03 0. -1.
</event>
<event>
 6   3  0.2312675E+03  0.9118800E+02  0.7818608E-02  0.1180000E+00
       11   -1    0    0    0    0  0.00000000000E+00  0.00000000000E+00  0.54999999763E+01  0.55000000000E+01  0.51109989000E-03 0. -1.
     -623   -1    0    0    0    0  0.00000000000E+00  0.00000000000E+00  0.93234578044E-11  0.17124000000E+03  0.17124000000E+03 0.  1.
       11    1    1    2    0    0  0.47819103496E-02  0.99099522050E-02  0.71780484259E+00  0.71788935574E+00  0.51109989000E-03 0. -1.
     -623    1    1    2    0    0 -0.54395687235E-01 -0.11303565850E-01  0.35129258721E-03  0.17124000901E+03  0.17124000000E+03 0.  1.
     -611    1    1    2    0    0  0.37505604653E-01  0.11343542072E-02  0.36453095419E+01  0.36455026916E+01  0.51109989000E-03 0. -1.
      611    1    1    2    0    0  0.12108172291E-01  0.25925944129E-03  0.11365343049E+01  0.11365989453E+01  0.51109989000E-03 0. -1.
</event>
<event>
 6   3  0.2312675E+03  0.9118800E+02  0.7818608E-02  0.1180000E+00
       11   -1    0    0    0    0  0.00000000000E+00  0.00000000000E+00  0.54999999763E+01  0.55000000000E+01  0.51109989000E-03 0. -1.
     -623   -1    0    0    0    0  0.00000000000E+00  0.00000000000E+00  0.93234578044E-11  0.17124000000E+03  0.17124000000E+03 0.  1.
       11    1    1    2    0    0  0.50629452535E-02  0.93797337568E-02  0.62258262847E+00  0.62267407471E+00  0.51109989000E-03 0. -1.
     -623    1    1    2    0    0 -0.68471116272E-01  0.26511788697E-01  0.65454222985E-03  0.17124001574E+03  0.17124000000E+03 0.  1.
     -611    1    1    2    0    0  0.17806960355E-01 -0.76651798162E-02  0.12221526772E+01  0.12223065370E+01  0.51109989000E-03 0.  1.
      611    1    1    2    0    0  0.45601210677E-01 -0.28226342644E-01  0.36546101294E+01  0.36550036465E+01  0.51109989000E-03 0. -1.
</event>
<event>
 6   3  0.2312675E+03  0.9118800E+02  0.7818608E-02  0.1180000E+00
       11   -1    0    0    0    0  0.00000000000E+00  0.00000000000E+00  0.54999999763E+01  0.55000000000E+01  0.51109989000E-03 0.  1.
     -623   -1    0    0    0    0  0.00000000000E+00  0.00000000000E+00  0.93234578044E-11  0.17124000000E+03  0.17124000000E+03 0.  1.
       11    1    1    2    0    0  0.87768632221E-02  0.63672552035E-02  0.32820039381E+00  0.32837986386E+00  0.51109989000E-03 0.  1.
     -623    1    1    2    0    0 -0.36529622230E-02 -0.15256601915E-01  0.60597648187E-03  0.17124000072E+03  0.17124000000E+03 0.  1.
     -611    1    1    2    0    0 -0.33222223835E-01 -0.70834981778E-02  0.27644243580E+01  0.27646331012E+01  0.51109989000E-03 0.  1.
      611    1    1    2    0    0  0.28098322836E-01  0.15972844890E-01  0.24067692480E+01  0.24069863153E+01  0.51109989000E-03 0. -1.
</event>
<event>
 6   3  0.2312675E+03  0.9118800E+02  0.7818608E-02  0.1180000E+00
       11   -1    0    0    0    0  0.00000000000E+00  0.00000000000E+00  0.54999999763E+01  0.55000000000E+01  0.51109989000E-03 0. -1.
     -623   -1    0    0    0    0  0.00000000000E+00  0.00000000000E+00  0.93234578044E-11  0.17124000000E+03  0.17124000000E+03 0.  1.
       11    1    1    2    0    0  0.58495192921E-01  0.57778956241E-01  0.46044236130E+00  0.46772590765E+00  0.51109989000E-03 0. -1.
     -623    1    1    2    0    0 -0.43000295784E-02 -0.27333530289E-02  0.78772114280E-02  0.17124000026E+03  0.17124000000E+03 0.  1.
     -611    1    1    2    0    0 -0.43791011377E-01 -0.43556000975E-01  0.40463244146E+01  0.40467958074E+01  0.51109989000E-03 0. -1.
      611    1    1    2    0    0 -0.10404151974E-01 -0.11489602246E-01  0.98535598980E+00  0.98547802877E+00  0.51109989000E-03 0.  1.
</event>
<event>
 6   3  0.2312675E+03  0.9118800E+02  0.7818608E-02  0.1180000E+00
       11   -1    0    0    0    0  0.00000000000E+00  0.00000000000E+00  0.54999999763E+01  0.55000000000E+01  0.51109989000E-03 0. -1.
     -623   -1    0    0    0    0  0.00000000000E+00  0.00000000000E+00  0.93234578044E-11  0.17124000000E+03  0.17124000000E+03 0.  1.
       11    1    1    2    0    0  0.52308091519E-02  0.17199142172E-01  0.11078652964E+00  0.11223675080E+00  0.51109989000E-03 0. -1.
     -623    1    1    2    0    0  0.25691944474E-01 -0.10818507590E-01  0.18744422634E-02  0.17124000228E+03  0.17124000000E+03 0.  1.
     -611    1    1    2    0    0  0.17614126767E-01  0.23656138337E-02  0.16745187917E+01  0.16746131788E+01  0.51109989000E-03 0.  1.
      611    1    1    2    0    0 -0.48536880393E-01 -0.87462484160E-02  0.37128202127E+01  0.37131477911E+01  0.51109989000E-03 0. -1.
</event>
<event>
 6   3  0.2312675E+03  0.9118800E+02  0.7818608E-02  0.1180000E+00
       11   -1    0    0    0    0  0.00000000000E+00  0.00000000000E+00  0.54999999763E+01  0.55000000000E+01  0.51109989000E-03 0. -1.
     -623   -1    0    0    0    0  0.00000000000E+00  0.00000000000E+00  0.93234578044E-11  0.17124000000E+03  0.17124000000E+03 0. -1.
       11    1    1    2    0    0 -0.20499227561E-01 -0.28988546471E-01  0.56316459208E+00  0.56428288398E+00  0.51109989000E-03 0. -1.
     -623    1    1    2    0    0 -0.57422731764E-01  0.13272394905E+00  0.29637646261E-02  0.17124006109E+03  0.17124000000E+03 0. -1.
     -611    1    1    2    0    0  0.67980804554E-01 -0.97918208673E-01  0.41908877608E+01  0.41925827184E+01  0.51109989000E-03 0. -1.
      611    1    1    2    0    0  0.99411547711E-02 -0.58171939062E-02  0.74298385876E+00  0.74307330857E+00  0.51109989000E-03 0.  1.
</event>
<event>
 6   3  0.2312675E+03  0.9118800E+02  0.7818608E-02  0.1180000E+00
       11   -1    0    0    0    0  0.00000000000E+00  0.00000000000E+00  0.54999999763E+01  0.55000000000E+01  0.51109989000E-03 0. -1.
     -623   -1    0    0    0    0  0.00000000000E+00  0.00000000000E+00  0.93234578044E-11  0.17124000000E+03  0.17124000000E+03 0.  1.
       11    1    1    2    0    0 -0.13610719915E-02 -0.69793730755E-03  0.63295780283E-02  0.65318002546E-02  0.51109989000E-03 0. -1.
     -623    1    1    2    0    0 -0.55620566727E-03  0.17723324983E-02  0.82724603324E-03  0.17124000001E+03  0.17124000000E+03 0.  1.
     -611    1    1    2    0    0 -0.37717986506E-01 -0.21007591184E-03  0.17034048911E+01  0.17038225186E+01  0.51109989000E-03 0. -1.
      611    1    1    2    0    0  0.39635264165E-01 -0.86431927888E-03  0.37894382610E+01  0.37896456690E+01  0.51109989000E-03 0.  1.
</event>
<event>
 6   3  0.2312675E+03  0.9118800E+02  0.7818608E-02  0.1180000E+00
       11   -1    0    0    0    0  0.00000000000E+00  0.00000000000E+00  0.54999999763E+01  0.55000000000E+01  0.51109989000E-03 0. -1.
     -623   -1    0    0    0    0  0.00000000000E+00  0.00000000000E+00  0.93234578044E-11  0.17124000000E+03  0.17124000000E+03 0.  1.
       11    1    1    2    0    0  0.12675317019E-04 -0.21209472197E-03  0.11289298797E-02  0.12573188162E-02  0.51109989000E-03 0. -1.
     -623    1    1    2    0    0  0.10650395915E-02  0.73663882098E-03  0.96394187296E-03  0.17124000001E+03  0.17124000000E+03 0.  1.
     -611    1    1    2    0    0 -0.36684583445E-01 -0.31530214141E-01  0.29859454210E+01  0.29863372602E+01  0.51109989000E-03 0. -1.
      611    1    1    2    0    0  0.35606868536E-01  0.31005670042E-01  0.25119616836E+01  0.25124054135E+01  0.51109989000E-03 0.  1.
</event>
<event>
 6   3  0.2312675E+03  0.9118800E+02  0.7818608E-02  0.1180000E+00
       11   -1    0    0    0    0  0.00000000000E+00  0.00000000000E+00  0.54999999763E+01  0.55000000000E+01  0.51109989000E-03 0.  1.
     -623   -1    0    0    0    0  0.00000000000E+00  0.00000000000E+00  0.93234578044E-11  0.17124000000E+03  0.17124000000E+03 0. -1.
       11    1    1    2    0    0 -0.45098579187E-02 -0.10609106629E-01  0.50481964945E-01  0.51783993374E-01  0.51109989000E-03 0.  1.
     -623    1    1    2    0    0  0.41820939855E-02  0.19657551859E-01  0.22154673831E-02  0.17124000119E+03  0.17124000000E+03 0. -1.
     -611    1    1    2    0    0 -0.42451235234E-01  0.17292293216E-01  0.18815143125E+01  0.18820726607E+01  0.51109989000E-03 0. -1.
      611    1    1    2    0    0  0.42778999167E-01 -0.26340738446E-01  0.35657882314E+01  0.35661421522E+01  0.51109989000E-03 0.  1.
</event>
<event>
 6   3  0.2312675E+03  0.9118800E+02  0.7818608E-02  0.1180000E+00
       11   -1    0    0    0    0  0.00000000000E+00  0.00000000000E+00  0.54999999763E+01  0.55000000000E+01  0.51109989000E-03 0.  1.
     -623   -1    0    0    0    0  0.00000000000E+00  0.00000000000E+00  0.93234578044E-11  0.17124000000E+03  0.17124000000E+03 0.  1.
       11    1    1    2    0    0 -0.56466052621E-03 -0.25204193327E-02  0.23048022710E-01  0.23197929413E-01  0.51109989000E-03 0.  1.
     -623    1    1    2    0    0 -0.70775120649E-02 -0.42173309520E-02  0.87253063023E-03  0.17124000020E+03  0.17124000000E+03 0.  1.
     -611    1    1    2    0    0  0.46479577042E-01  0.15755693536E-01  0.30134708881E+01  0.30138705426E+01  0.51109989000E-03 0. -1.
      611    1    1    2    0    0 -0.38837404451E-01 -0.90179432511E-02  0.24626085348E+01  0.24629313276E+01  0.51109989000E-03 0.  1.
</event>
<event>
 6   3  0.2312675E+03  0.9118800E+02  0.7818608E-02  0.1180000E+00
       11   -1    0    0    0    0  0.00000000000E+00  0.00000000000E+00  0.54999999763E+01  0.55000000000E+01  0.51109989000E-03 0.  1.
     -623   -1    0    0    0    0  0.00000000000E+00  0.00000000000E+00  0.93234578044E-11  0.17124000000E+03  0.17124000000E+03 0. -1.
       11    1    1    2    0    0 -0.93525930545E-02  0.22989854237E-02 -0.16044782811E-02  0.97771112540E-02  0.51109989000E-03 0.  1.
     -623    1    1    2    0    0 -0.57061449549E-02 -0.23189866767E-01  0.21639310456E-01  0.17124000303E+03  0.17124000000E+03 0. -1.
     -611    1    1    2    0    0 -0.14025067047E+00  0.88660200287E-01  0.27462154387E+01  0.27512234330E+01  0.51109989000E-03 0. -1.
      611    1    1    2    0    0  0.15530940848E+00 -0.67769318945E-01  0.27337497054E+01  0.27389964232E+01  0.51109989000E-03 0.  1.
</event>
<event>
 6   3  0.2312675E+03  0.9118800E+02  0.7818608E-02  0.1180000E+00
       11   -1    0    0    0    0  0.00000000000E+00  0.00000000000E+00  0.54999999763E+01  0.55000000000E+01  0.51109989000E-03 0. -1.
     -623   -1    0    0    0    0  0.00000000000E+00  0.00000000000E+00  0.93234578044E-11  0.17124000000E+03  0.17124000000E+03 0.  1.
       11    1    1    2    0    0  0.11733771868E-01 -0.31467589802E-02  0.81767073587E+00  0.81776113690E+00  0.51109989000E-03 0. -1.
     -623    1    1    2    0    0 -0.18696617999E-02 -0.15841244697E-02  0.47847772608E-03  0.17124000002E+03  0.17124000000E+03 0.  1.
     -611    1    1    2    0    0  0.23093454095E-01  0.12374148768E-01  0.22537049308E+01  0.22538572722E+01  0.51109989000E-03 0. -1.
      611    1    1    2    0    0 -0.32957564163E-01 -0.76432653176E-02  0.24281458318E+01  0.24283815727E+01  0.51109989000E-03 0.  1.
</event>
<event>
 6   3  0.2312675E+03  0.9118800E+02  0.7818608E-02  0.1180000E+00
       11   -1    0    0    0    0  0.00000000000E+00  0.00000000000E+00  0.54999999763E+01  0.55000000000E+01  0.51109989000E-03 0. -1.
     -623   -1    0    0    0    0  0.00000000000E+00  0.00000000000E+00  0.93234578044E-11  0.17124000000E+03  0.17124000000E+03 0. -1.
       11    1    1    2    0    0  0.39737695179E-01 -0.65588240154E-02  0.71461227794E+00  0.71574651351E+00  0.51109989000E-03 0. -1.
     -623    1    1    2    0    0  0.10672592040E-01  0.38265452477E-03  0.14046638617E-02  0.17124000034E+03  0.17124000000E+03 0. -1.
     -611    1    1    2    0    0 -0.35120581137E-01  0.35882637500E-02  0.33770648341E+01  0.33772493965E+01  0.51109989000E-03 0. -1.
      611    1    1    2    0    0 -0.15289706105E-01  0.25879057435E-02  0.14069182024E+01  0.14070037534E+01  0.51109989000E-03 0. -1.
</event>
<event>
 6   3  0.2312675E+03  0.9118800E+02  0.7818608E-02  0.1180000E+00
       11   -1    0    0    0    0  0.00000000000E+00  0.00000000000E+00  0.54999999763E+01  0.55000000000E+01  0.51109989000E-03 0.  1.
     -623   -1    0    0    0    0  0.00000000000E+00  0.00000000000E+00  0.93234578044E-11  0.17124000000E+03  0.17124000000E+03 0.  1.
       11    1    1    2    0    0  0.53186307848E-01  0.11401685674E-02  0.61553967858E+00  0.61783447658E+00  0.51109989000E-03 0.  1.
     -623    1    1    2    0    0  0.34149491838E-01 -0.81405546484E-02  0.30849166097E-02  0.17124000363E+03  0.17124000000E+03 0.  1.
     -611    1    1    2    0    0 -0.98379936197E-02  0.83098229655E-03  0.55131381584E+00  0.55140244959E+00  0.51109989000E-03 0.  1.
      611    1    1    2    0    0 -0.77497805998E-01  0.61694037790E-02  0.43300615614E+01  0.43307594436E+01  0.51109989000E-03 0.  1.
</event>
<event>
 6   3  0.2312675E+03  0.9118800E+02  0.7818608E-02  0.1180000E+00
       11   -1    0    0    0    0  0.00000000000E+00  0.00000000000E+00  0.54999999763E+01  0.55000000000E+01  0.51109989000E-03 0. -1.
     -623   -1    0    0    0    0  0.00000000000E+00  0.00000000000E+00  0.93234578044E-11  0.17124000000E+03  0.17124000000E+03 0. -1.
       11    1    1    2    0    0 -0.51248089396E-01 -0.13144197272E-01  0.20343588049E+00  0.21020360435E+00  0.51109989000E-03 0. -1.
     -623    1    1    2    0    0 -0.12272957565E-01  0.17078320280E-01  0.71521560673E-02  0.17124000144E+03  0.17124000000E+03 0. -1.
     -611    1    1    2    0    0  0.14306506014E-01 -0.84140386629E-03  0.11813915367E+01  0.11814785687E+01  0.51109989000E-03 0. -1.
      611    1    1    2    0    0  0.49214540875E-01 -0.30927191375E-02  0.41080203970E+01  0.41083163801E+01  0.51109989000E-03 0. -1.
</event>
<event>
 6   3  0.2312675E+03  0.9118800E+02  0.7818608E-02  0.1180000E+00
       11   -1    0    0    0    0  0.00000000000E+00  0.00000000000E+00  0.54999999763E+01  0.55000000000E+01  0.51109989000E-03 0. -1.
     -623   -1    0    0    0    0  0.00000000000E+00  0.00000000000E+00  0.93234578044E-11  0.17124000000E+03  0.17124000000E+03 0. -1.
       11    1    1    2    0    0 -0.39910049160E-02 -0.16736040998E-02  0.63826314699E-01  0.63974907129E-01  0.51109989000E-03 0. -1.
     -623    1    1    2    0    0  0.21836121900E-02 -0.48558839973E-03  0.71256955594E-03  0.17124000002E+03  0.17124000000E+03 0. -1.
     -611    1    1    2    0    0  0.38680147556E-01  0.10992527985E-01  0.29753131062E+01  0.29755848721E+01  0.51109989000E-03 0. -1.
      611    1    1    2    0    0 -0.36872754830E-01 -0.88333354854E-02  0.24601479858E+01  0.24604402047E+01  0.51109989000E-03 0.  1.
</event>
<event>
 6   3  0.2312675E+03  0.9118800E+02  0.7818608E-02  0.1180000E+00
       11   -1    0    0    0    0  0.00000000000E+00  0.00000000000E+00  0.54999999763E+01  0.55000000000E+01  0.51109989000E-03 0. -1.
     -623   -1    0    0    0    0  0.00000000000E+00  0.00000000000E+00  0.93234578044E-11  0.17124000000E+03  0.17124000000E+03 0. -1.
       11    1    1    2    0    0  0.48005500077E-02  0.12002697462E-01  0.35688797258E+00  0.35712238270E+00  0.51109989000E-03 0. -1.
     -623    1    1    2    0    0  0.10689126743E-02  0.32551012042E-02  0.21512966592E-02  0.17124000005E+03  0.17124000000E+03 0. -1.
     -611    1    1    2    0    0 -0.69421057079E-01  0.51393069248E-02  0.20089732071E+01  0.20101789233E+01  0.51109989000E-03 0.  1.
      611    1    1    2    0    0  0.63551594397E-01 -0.20397105591E-01  0.31319874999E+01  0.31326986462E+01  0.51109989000E-03 0. -1.
</event>
<event>
 6   3  0.2312675E+03  0.9118800E+02  0.7818608E-02  0.1180000E+00
       11   -1    0    0    0    0  0.00000000000E+00  0.00000000000E+00  0.54999999763E+01  0.55000000000E+01  0.51109989000E-03 0. -1.
     -623   -1    0    0    0    0  0.00000000000E+00  0.00000000000E+00  0.93234578044E-11  0.17124000000E+03  0.17124000000E+03 0. -1.
       11    1    1    2    0    0  0.87589092453E-03 -0.77803603978E-03  0.11587442132E-02  0.17252351260E-02  0.51109989000E-03 0. -1.
     -623    1    1    2    0    0  0.54748429178E-03  0.17434613562E-02  0.11672550182E-02  0.17124000001E+03  0.17124000000E+03 0. -1.
     -611    1    1    2    0    0 -0.40388201927E-01 -0.67756682493E-02  0.32139587444E+01  0.32142196858E+01  0.51109989000E-03 0.  1.
      611    1    1    2    0    0  0.38964826711E-01  0.58102429329E-02  0.22837152327E+01  0.22840550654E+01  0.51109989000E-03 0. -1.
</event>
<event>
 6   3  0.2312675E+03  0.9118800E+02  0.7818608E-02  0.1180000E+00
       11   -1    0    0    0    0  0.00000000000E+00  0.00000000000E+00  0.54999999763E+01  0.55000000000E+01  0.51109989000E-03 0. -1.
     -623   -1    0    0    0    0  0.00000000000E+00  0.00000000000E+00  0.93234578044E-11  0.17124000000E+03  0.17124000000E+03 0. -1.
       11    1    1    2    0    0 -0.10313744796E-01  0.17178112344E-01  0.11413079189E+00  0.11587734790E+00  0.51109989000E-03 0. -1.
     -623    1    1    2    0    0  0.21382021406E-01  0.30811307613E-03  0.52980143863E-02  0.17124000142E+03  0.17124000000E+03 0. -1.
     -611    1    1    2    0    0 -0.60983008639E-01 -0.31308195910E-01  0.71861708020E+00  0.72187942183E+00  0.51109989000E-03 0.  1.
      611    1    1    2    0    0  0.49914732029E-01  0.13821970490E-01  0.46619540898E+01  0.46622418131E+01  0.51109989000E-03 0. -1.
</event>
<event>
 6   3  0.2312675E+03  0.9118800E+02  0.7818608E-02  0.1180000E+00
       11   -1    0    0    0    0  0.00000000000E+00  0.00000000000E+00  0.54999999763E+01  0.55000000000E+01  0.51109989000E-03 0. -1.
     -623   -1    0    0    0    0  0.00000000000E+00  0.00000000000E+00  0.93234578044E-11  0.17124000000E+03  0.17124000000E+03 0. -1.
       11    1    1    2    0    0 -0.68212407874E-02 -0.41586368123E-02  0.15823976873E-01  0.17733670043E-01  0.51109989000E-03 0. -1.
     -623    1    1    2    0    0 -0.42417844014E-02 -0.96646586462E-02  0.10788070231E-01  0.17124000067E+03  0.17124000000E+03 0. -1.
     -611    1    1    2    0    0 -0.52951943503E-01  0.11622170399E+00  0.44414055019E+01  0.44432414392E+01  0.51109989000E-03 0. -1.
      611    1    1    2    0    0  0.64014968691E-01 -0.10239840854E+00  0.10319824272E+01  0.10390242257E+01  0.51109989000E-03 0.  1.
</event>
<event>
 6   3  0.2312675E+03  0.9118800E+02  0.7818608E-02  0.1180000E+00
       11   -1    0    0    0    0  0.00000000000E+00  0.00000000000E+00  0.54999999763E+01  0.55000000000E+01  0.51109989000E-03 0.  1.
     -623   -1    0    0    0    0  0.00000000000E+00  0.00000000000E+00  0.93234578044E-11  0.17124000000E+03  0.17124000000E+03 0. -1.
       11    1    1    2    0    0 -0.42569243624E-01 -0.45142226220E-02  0.50868892351E+00  0.51048721907E+00  0.51109989000E-03 0.  1.
     -623    1    1    2    0    0 -0.43106640729E-01  0.80476822812E-01  0.31369862888E-02  0.17124002437E+03  0.17124000000E+03 0. -1.
     -611    1    1    2    0    0  0.58185468395E-01 -0.52174619725E-01  0.33806008822E+01  0.33815041514E+01  0.51109989000E-03 0.  1.
      611    1    1    2    0    0  0.27490415952E-01 -0.23787980459E-01  0.16075731839E+01  0.16079842641E+01  0.51109989000E-03 0.  1.
</event>
<event>
 6   3  0.2312675E+03  0.9118800E+02  0.7818608E-02  0.1180000E+00
       11   -1    0    0    0    0  0.00000000000E+00  0.00000000000E+00  0.54999999763E+01  0.55000000000E+01  0.51109989000E-03 0.  1.
     -623   -1    0    0    0    0  0.00000000000E+00  0.00000000000E+00  0.93234578044E-11  0.17124000000E+03  0.17124000000E+03 0.  1.
       11    1    1    2    0    0 -0.16925996375E-01  0.19903945769E-01  0.10201404357E+01  0.10204750983E+01  0.51109989000E-03 0.  1.
     -623    1    1    2    0    0 -0.91868722709E-03 -0.24419209329E-01  0.70369797476E-03  0.17124000175E+03  0.17124000000E+03 0.  1.
     -611    1    1    2    0    0 -0.16496706605E-01  0.11366663308E-01  0.10717841698E+01  0.10719715063E+01  0.51109989000E-03 0. -1.
      611    1    1    2    0    0  0.34341390207E-01 -0.68513997461E-02  0.34073716730E+01  0.34075516506E+01  0.51109989000E-03 0.  1.
</event>
<event>
 6   3  0.2312675E+03  0.9118800E+02  0.7818608E-02  0.1180000E+00
       11   -1    0    0    0    0  0.00000000000E+00  0.00000000000E+00  0.54999999763E+01  0.55000000000E+01  0.51109989000E-03 0. -1.
     -623   -1    0    0    0    0  0.00000000000E+00  0.00000000000E+00  0.93234578044E-11  0.17124000000E+03  0.17124000000E+03 0. -1.
       11    1    1    2    0    0  0.18424942226E+00  0.24723345004E-01  0.96720393280E+00  0.98490750949E+00  0.51109989000E-03 0. -1.
     -623    1    1    2    0    0 -0.10270736072E-01 -0.42198925199E-01  0.21098478555E-01  0.17124000681E+03  0.17124000000E+03 0. -1.
     -611    1    1    2    0    0 -0.33166768080E-01  0.35738246322E-02  0.83290541640E+00  0.83357333247E+00  0.51109989000E-03 0.  1.
      611    1    1    2    0    0 -0.14081191813E+00  0.13901755565E-01  0.36787921490E+01  0.36815123512E+01  0.51109989000E-03 0. -1.
</event>
<event>
 6   3  0.2312675E+03  0.9118800E+02  0.7818608E-02  0.1180000E+00
       11   -1    0    0    0    0  0.00000000000E+00  0.00000000000E+00  0.54999999763E+01  0.55000000000E+01  0.51109989000E-03 0. -1.
     -623   -1    0    0    0    0  0.00000000000E+00  0.00000000000E+00  0.93234578044E-11  0.17124000000E+03  0.17124000000E+03 0.  1.
       11    1    1    2    0    0  0.81112487810E-02  0.48770344054E-02  0.91583247292E+00  0.91588151936E+00  0.51109989000E-03 0.  1.
     -623    1    1    2    0    0 -0.56371646677E-01 -0.14754993420E-01  0.32417977992E-03  0.17124000991E+03  0.17124000000E+03 0.  1.
     -611    1    1    2    0    0  0.23708717199E-01  0.38592536241E-02  0.22101293117E+01  0.22102599016E+01  0.51109989000E-03 0. -1.
      611    1    1    2    0    0  0.24551680670E-01  0.60187053833E-02  0.23737140092E+01  0.23738486617E+01  0.51109989000E-03 0. -1.
</event>
<event>
 6   3  0.2312675E+03  0.9118800E+02  0.7818608E-02  0.1180000E+00
       11   -1    0    0    0    0  0.00000000000E+00  0.00000000000E+00  0.54999999763E+01  0.55000000000E+01  0.51109989000E-03 0.  1.
     -623   -1    0    0    0    0  0.00000000000E+00  0.00000000000E+00  0.93234578044E-11  0.17124000000E+03  0.17124000000E+03 0. -1.
       11    1    1    2    0    0 -0.89501933195E-02  0.20005627795E-01  0.69412728933E-02  0.22995077656E-01  0.51109989000E-03 0.  1.
     -623    1    1    2    0    0 -0.10047170369E+00  0.84258136533E-02  0.17251730232E-01  0.17124003055E+03  0.17124000000E+03 0. -1.
     -611    1    1    2    0    0  0.75777622422E-01 -0.19578055600E-01  0.37487146447E+01  0.37495316103E+01  0.51109989000E-03 0.  1.
      611    1    1    2    0    0  0.33644274514E-01 -0.88533858281E-02  0.17270923247E+01  0.17274427571E+01  0.51109989000E-03 0.  1.
</event>
<event>
 6   3  0.2312675E+03  0.9118800E+02  0.7818608E-02  0.1180000E+00
       11   -1    0    0    0    0  0.00000000000E+00  0.00000000000E+00  0.54999999763E+01  0.55000000000E+01  0.51109989000E-03 0. -1.
     -623   -1    0    0    0    0  0.00000000000E+00  0.00000000000E+00  0.93234578044E-11  0.17124000000E+03  0.17124000000E+03 0. -1.
       11    1    1    2    0    0 -0.32650061517E-01 -0.18627355083E-03  0.71577617917E+00  0.71652066342E+00  0.51109989000E-03 0. -1.
     -623    1    1    2    0    0 -0.27042048434E-01 -0.25818036124E-02  0.11200401849E-02  0.17124000216E+03  0.17124000000E+03 0. -1.
     -611    1    1    2    0    0  0.31510871437E-01  0.17376571436E-02  0.25438281260E+01  0.25440239288E+01  0.51109989000E-03 0. -1.
      611    1    1    2    0    0  0.28181238452E-01  0.10304200169E-02  0.22392756260E+01  0.22394532445E+01  0.51109989000E-03 0. -1.
</event>
<event>
 6   3  0.2312675E+03  0.9118800E+02  0.7818608E-02  0.1180000E+00
       11   -1    0    0    0    0  0.00000000000E+00  0.00000000000E+00  0.54999999763E+01  0.55000000000E+01  0.51109989000E-03 0. -1.
     -623   -1    0    0    0    0  0.00000000000E+00  0.00000000000E+00  0.93234578044E-11  0.17124000000E+03  0.17124000000E+03 0. -1.
       11    1    1    2    0    0  0.22604230222E-01  0.24597541023E-01  0.17547000800E+00  0.17862243750E+00  0.51109989000E-03 0. -1.
     -623    1    1    2    0    0 -0.44701759475E-01 -0.58843112492E-01  0.58161111936E-02  0.17124001604E+03  0.17124000000E+03 0. -1.
     -611    1    1    2    0    0 -0.52114915784E-01  0.65248788042E-01  0.21364943318E+01  0.21381257353E+01  0.51109989000E-03 0.  1.
      611    1    1    2    0    0  0.74212445037E-01 -0.31003216573E-01  0.31822195253E+01  0.31832357837E+01  0.51109989000E-03 0. -1.
</event>
<event>
 6   3  0.2312675E+03  0.9118800E+02  0.7818608E-02  0.1180000E+00
       11   -1    0    0    0    0  0.00000000000E+00  0.00000000000E+00  0.54999999763E+01  0.55000000000E+01  0.51109989000E-03 0. -1.
     -623   -1    0    0    0    0  0.00000000000E+00  0.00000000000E+00  0.93234578044E-11  0.17124000000E+03  0.17124000000E+03 0. -1.
       11    1    1    2    0    0  0.53242071014E-01 -0.30400535282E-02  0.14346573275E+00  0.15305762885E+00  0.51109989000E-03 0. -1.
     -623    1    1    2    0    0  0.10712861707E-01 -0.13844546827E-01  0.10027035884E-01  0.17124000119E+03  0.17124000000E+03 0. -1.
     -611    1    1    2    0    0 -0.12077706564E-01 -0.12763242802E-02  0.66287662342E+00  0.66298806860E+00  0.51109989000E-03 0.  1.
      611    1    1    2    0    0 -0.51877226157E-01  0.18160924635E-01  0.46836305842E+01  0.46839531142E+01  0.51109989000E-03 0. -1.
</event>
<event>
 6   3  0.2312675E+03  0.9118800E+02  0.7818608E-02  0.1180000E+00
       11   -1    0    0    0    0  0.00000000000E+00  0.00000000000E+00  0.54999999763E+01  0.55000000000E+01  0.51109989000E-03 0.  1.
     -623   -1    0    0    0    0  0.00000000000E+00  0.00000000000E+00  0.93234578044E-11  0.17124000000E+03  0.17124000000E+03 0.  1.
       11    1    1    2    0    0 -0.24379480499E-01  0.19968267628E-01  0.15441087695E+00  0.15759464116E+00  0.51109989000E-03 0.  1.
     -623    1    1    2    0    0  0.19287855488E-01  0.43485741722E-02  0.10466645803E-01  0.17124000146E+03  0.17124000000E+03 0.  1.
     -611    1    1    2    0    0 -0.83823313590E-01 -0.20824388832E-01  0.57511154452E+00  0.58156130625E+00  0.51109989000E-03 0. -1.
      611    1    1    2    0    0  0.88914938601E-01 -0.34924529678E-02  0.47600109090E+01  0.47608425912E+01  0.51109989000E-03 0.  1.
</event>
<event>
 6   3  0.2312675E+03  0.9118800E+02  0.7818608E-02  0.1180000E+00
       11   -1    0    0    0    0  0.00000000000E+00  0.00000000000E+00  0.54999999763E+01  0.55000000000E+01  0.51109989000E-03 0. -1.
     -623   -1    0    0    0    0  0.00000000000E+00  0.00000000000E+00  0.93234578044E-11  0.17124000000E+03  0.17124000000E+03 0.  1.
       11    1    1    2    0    0 -0.11188134703E-01 -0.59848947169E-02  0.61878338857E-01  0.63167898222E-01  0.51109989000E-03 0. -1.
     -623    1    1    2    0    0  0.17035456060E-01 -0.10609579872E-01  0.38928811944E-02  0.17124000122E+03  0.17124000000E+03 0.  1.
     -611    1    1    2    0    0 -0.72154675061E-01  0.53960679374E-01  0.25264717821E+01  0.25280779219E+01  0.51109989000E-03 0. -1.
      611    1    1    2    0    0  0.66307353704E-01 -0.37366204785E-01  0.29077569741E+01  0.29087529596E+01  0.51109989000E-03 0.  1.
</event>
<event>
 6   3  0.2312675E+03  0.9118800E+02  0.7818608E-02  0.1180000E+00
       11   -1    0    0    0    0  0.00000000000E+00  0.00000000000E+00  0.54999999763E+01  0.55000000000E+01  0.51109989000E-03 0.  1.
     -623   -1    0    0    0    0  0.00000000000E+00  0.00000000000E+00  0.93234578044E-11  0.17124000000E+03  0.17124000000E+03 0. -1.
       11    1    1    2    0    0 -0.20049666434E-02 -0.18771773246E-01  0.73343469219E-01  0.75735890185E-01  0.51109989000E-03 0.  1.
     -623    1    1    2    0    0  0.11870838776E-01  0.24187322963E-01  0.39893268307E-02  0.17124000217E+03  0.17124000000E+03 0. -1.
     -611    1    1    2    0    0  0.55057973106E-01 -0.22199185261E-01  0.18125420433E+01  0.18135140210E+01  0.51109989000E-03 0. -1.
      611    1    1    2    0    0 -0.64923845239E-01  0.16783635544E-01  0.36101251369E+01  0.36107479227E+01  0.51109989000E-03 0.  1.
</event>
<event>
 6   3  0.2312675E+03  0.9118800E+02  0.7818608E-02  0.1180000E+00
       11   -1    0    0    0    0  0.00000000000E+00  0.00000000000E+00  0.54999999763E+01  0.55000000000E+01  0.51109989000E-03 0.  1.
     -623   -1    0    0    0    0  0.00000000000E+00  0.00000000000E+00  0.93234578044E-11  0.17124000000E+03  0.17124000000E+03 0. -1.
       11    1    1    2    0    0 -0.49236244147E-01 -0.18392828454E-01  0.94149623670E+00  0.94296231569E+00  0.51109989000E-03 0.  1.
     -623    1    1    2    0    0 -0.64834720529E-02 -0.68178861611E-02  0.18774948240E-02  0.17124000027E+03  0.17124000000E+03 0. -1.
     -611    1    1    2    0    0  0.48897410720E-01  0.22854315682E-01  0.40295157759E+01  0.40298772842E+01  0.51109989000E-03 0.  1.
      611    1    1    2    0    0  0.68223054797E-02  0.23563989330E-02  0.52711046885E+00  0.52716013133E+00  0.51109989000E-03 0.  1.
</event>
<event>
 6   3  0.2312675E+03  0.9118800E+02  0.7818608E-02  0.1180000E+00
       11   -1    0    0    0    0  0.00000000000E+00  0.00000000000E+00  0.54999999763E+01  0.55000000000E+01  0.51109989000E-03 0.  1.
     -623   -1    0    0    0    0  0.00000000000E+00  0.00000000000E+00  0.93234578044E-11  0.17124000000E+03  0.17124000000E+03 0. -1.
       11    1    1    2    0    0  0.63429548876E-01  0.15455866857E-01  0.58659737574E+00  0.59021939475E+00  0.51109989000E-03 0.  1.
     -623    1    1    2    0    0 -0.51274469161E-02  0.56481860787E-02  0.40150292553E-02  0.17124000022E+03  0.17124000000E+03 0. -1.
     -611    1    1    2    0    0 -0.60203883475E-02 -0.26324706967E-02  0.59428256833E+00  0.59431911228E+00  0.51109989000E-03 0. -1.
      611    1    1    2    0    0 -0.52281713626E-01 -0.18471582244E-01  0.43151050041E+01  0.43154612771E+01  0.51109989000E-03 0.  1.
</event>
